 Gaussian 16, Revision C.01,
 Gaussian 16:  ES64L-G16RevC.01  3-Jul-2019

 -------------------------------------
 # opt=modredundant b3lyp/6-311+g(d,p)
 -------------------------------------

 ---------------
 pg2T_TT_-25.pdb
 ---------------
 Symbolic Z-matrix:
 Charge =  0 Multiplicity = 1

 SCF Done:  E(RB3LYP) =  -1654.46435968     A.U. after   17 cycles
 SCF Done:  E(RB3LYP) =  -1654.52913215     A.U. after   14 cycles
 SCF Done:  E(RB3LYP) =  -1654.60958081     A.U. after   15 cycles
 SCF Done:  E(RB3LYP) =  -1654.62412545     A.U. after   15 cycles
 SCF Done:  E(RB3LYP) =  -1654.63075735     A.U. after   15 cycles
 SCF Done:  E(RB3LYP) =  -1654.63217468     A.U. after   14 cycles
 SCF Done:  E(RB3LYP) =  -1654.63290355     A.U. after   14 cycles
 SCF Done:  E(RB3LYP) =  -1654.63295931     A.U. after   12 cycles
 SCF Done:  E(RB3LYP) =  -1654.63296567     A.U. after   12 cycles
 SCF Done:  E(RB3LYP) =  -1654.63301937     A.U. after   12 cycles
 SCF Done:  E(RB3LYP) =  -1654.63302137     A.U. after   11 cycles
 SCF Done:  E(RB3LYP) =  -1654.63302334     A.U. after   10 cycles
 SCF Done:  E(RB3LYP) =  -1654.63302344     A.U. after    9 cycles
 Optimization completed.
    -- Stationary point found.

                         Standard orientation:
 ---------------------------------------------------------------------
 Center     Atomic      Atomic             Coordinates (Angstroms)
 Number     Number       Type             X           Y           Z
 ---------------------------------------------------------------------
      1          6           0       -3.824044    0.409531    0.183620
      2          6           0       -2.480014    0.875445    0.265770
      3          6           0       -1.551950   -0.105590    0.002726
      4          6           0       -3.920023   -0.915386   -0.137910
      5         16           0       -2.350649   -1.616904   -0.368817
      6          1           0       -4.814632   -1.505383   -0.253572
      7          6           0       -0.107380   -0.004895   -0.004945
      8         16           0        0.664095    1.561086   -0.304714
      9          6           0        2.247355    0.853052   -0.132401
     10          6           0        2.150126   -0.509984    0.117484
     11          6           0        0.820866   -0.999310    0.196170
     12          1           0        0.550238   -2.023294    0.414379
     13         16           0        3.734677   -1.216918    0.289128
     14          6           0        4.484152    0.339630    0.017740
     15          6           0        3.581640    1.343478   -0.190061
     16          1           0        5.560975    0.411430    0.027643
     17          1           0        3.861608    2.371194   -0.374714
     18          1           0       -2.210326    1.888332    0.539681
     19          8           0       -4.932009    1.177789    0.411327
     20          1           0       -4.666120    2.083366    0.597259
 ---------------------------------------------------------------------

 The electronic state is 1-A.
 Alpha  occ. eigenvalues --  -88.88818 -88.88793 -88.88567 -19.16567 -10.24673
 Alpha  occ. eigenvalues --  -10.22964 -10.22808 -10.21609 -10.21553 -10.21386
 Alpha  occ. eigenvalues --  -10.19761 -10.19744 -10.19710 -10.19108  -7.97397
 Alpha  occ. eigenvalues --   -7.97366  -7.97163  -5.93721  -5.93679  -5.93473
 Alpha  occ. eigenvalues --   -5.93360  -5.93313  -5.93096  -5.92915  -5.92915
 Alpha  occ. eigenvalues --   -5.92724  -1.07575  -0.92148  -0.89500  -0.85342
 Alpha  occ. eigenvalues --   -0.77696  -0.76497  -0.74570  -0.71797  -0.70651
 Alpha  occ. eigenvalues --   -0.63313  -0.58899  -0.58026  -0.55752  -0.54783
 Alpha  occ. eigenvalues --   -0.53323  -0.50196  -0.48554  -0.44276  -0.43819
 Alpha  occ. eigenvalues --   -0.43296  -0.42023  -0.41892  -0.40152  -0.39823
 Alpha  occ. eigenvalues --   -0.38096  -0.37613  -0.37064  -0.35624  -0.34572
 Alpha  occ. eigenvalues --   -0.33970  -0.29593  -0.26998  -0.24474  -0.24165
 Alpha  occ. eigenvalues --   -0.20797
 Alpha virt. eigenvalues --   -0.06722  -0.01856  -0.01556  -0.00871  -0.00514
 Alpha virt. eigenvalues --    0.00642   0.00998   0.01581   0.01780   0.02196
 Alpha virt. eigenvalues --    0.03078   0.03369   0.03896   0.04036   0.04365

 Mulliken charges:
               1
     1  C   -0.710807
     2  C    0.632769
     3  C    0.140211
     4  C    0.374653
     5  S   -0.470619
     6  H    0.159255
     7  C    0.093451
     8  S   -0.567063
     9  C    0.334601
    10  C    0.228178
    11  C    0.035330
    12  H    0.141100
    13  S   -0.409497
    14  C   -0.135120
    15  C   -0.251345
    16  H    0.168673
    17  H    0.135894
    18  H    0.121947
    19  O   -0.273600
    20  H    0.251988
 Sum of Mulliken charges =  -0.00000

 Dipole moment (field-independent basis, Debye):
    X=              1.1209    Y=              1.4694    Z=              0.3705  Tot=              1.8849
 Quadrupole moment (field-independent basis, Debye-Ang):
   XX=            -97.7500   YY=            -92.1446   ZZ=           -108.0975
   XY=             -0.3414   XZ=             -1.0851   YZ=              0.9808

 Normal termination of Gaussian 16 at Sun Oct 17 19:41:36 2021.
