 Gaussian 16, Revision C.01,
 Gaussian 16:  ES64L-G16RevC.01  3-Jul-2019

 -------------------------------------
 # opt=modredundant b3lyp/6-311+g(d,p)
 -------------------------------------

 ----------------
 pg2T_TT_-165.pdb
 ----------------
 Symbolic Z-matrix:
 Charge =  0 Multiplicity = 1

 SCF Done:  E(RB3LYP) =  -1654.46190845     A.U. after   17 cycles
 SCF Done:  E(RB3LYP) =  -1654.52673786     A.U. after   15 cycles
 SCF Done:  E(RB3LYP) =  -1654.60731646     A.U. after   15 cycles
 SCF Done:  E(RB3LYP) =  -1654.62203810     A.U. after   15 cycles
 SCF Done:  E(RB3LYP) =  -1654.62879412     A.U. after   14 cycles
 SCF Done:  E(RB3LYP) =  -1654.63022488     A.U. after   14 cycles
 SCF Done:  E(RB3LYP) =  -1654.63098540     A.U. after   13 cycles
 SCF Done:  E(RB3LYP) =  -1654.63098298     A.U. after   12 cycles
 SCF Done:  E(RB3LYP) =  -1654.63120799     A.U. after   12 cycles
 SCF Done:  E(RB3LYP) =  -1654.63122613     A.U. after   12 cycles
 SCF Done:  E(RB3LYP) =  -1654.63122804     A.U. after   11 cycles
 SCF Done:  E(RB3LYP) =  -1654.63123074     A.U. after   10 cycles
 SCF Done:  E(RB3LYP) =  -1654.63123091     A.U. after    9 cycles
 Optimization completed.
    -- Stationary point found.

                         Standard orientation:
 ---------------------------------------------------------------------
 Center     Atomic      Atomic             Coordinates (Angstroms)
 Number     Number       Type             X           Y           Z
 ---------------------------------------------------------------------
      1          6           0        3.761509    0.778930    0.066585
      2          6           0        2.378573    1.098084    0.175494
      3          6           0        1.556782    0.002893    0.026057
      4          6           0        3.996179   -0.548299   -0.163431
      5         16           0        2.510164   -1.433589   -0.268944
      6          1           0        4.946626   -1.044765   -0.271599
      7          6           0        0.107669   -0.022814    0.034773
      8         16           0       -0.778217   -1.544745    0.221209
      9          6           0       -2.304245   -0.712806    0.107547
     10          6           0       -2.107683    0.653266   -0.050377
     11          6           0       -0.747033    1.047817   -0.100225
     12          1           0       -0.405221    2.061590   -0.254343
     13         16           0       -3.637123    1.483660   -0.164742
     14          6           0       -4.497919   -0.029853    0.004771
     15          6           0       -3.670534   -1.107907    0.140069
     16          1           0       -5.577078   -0.022671   -0.006004
     17          1           0       -4.024079   -2.122950    0.255597
     18          1           0        2.008895    2.094085    0.385536
     19          8           0        4.783564    1.679594    0.186409
     20          1           0        4.425365    2.556878    0.351577
 ---------------------------------------------------------------------

 The electronic state is 1-A.
 Alpha  occ. eigenvalues --  -88.88802 -88.88789 -88.88601 -19.16597 -10.24690
 Alpha  occ. eigenvalues --  -10.23015 -10.22853 -10.21613 -10.21550 -10.21380
 Alpha  occ. eigenvalues --  -10.19773 -10.19750 -10.19700 -10.19088  -7.97376
 Alpha  occ. eigenvalues --   -7.97372  -7.97202  -5.93696  -5.93689  -5.93510
 Alpha  occ. eigenvalues --   -5.93334  -5.93324  -5.93133  -5.92923  -5.92890
 Alpha  occ. eigenvalues --   -5.92766  -1.07602  -0.92158  -0.89518  -0.85337
 Alpha  occ. eigenvalues --   -0.77806  -0.76376  -0.74626  -0.71785  -0.70640
 Alpha  occ. eigenvalues --   -0.63334  -0.59097  -0.57897  -0.55257  -0.54941
 Alpha  occ. eigenvalues --   -0.53745  -0.50313  -0.48590  -0.44213  -0.43798
 Alpha  occ. eigenvalues --   -0.43282  -0.42024  -0.41487  -0.40498  -0.39550
 Alpha  occ. eigenvalues --   -0.38183  -0.37678  -0.37234  -0.35893  -0.34371
 Alpha  occ. eigenvalues --   -0.33902  -0.29701  -0.26991  -0.24807  -0.23852
 Alpha  occ. eigenvalues --   -0.20664
 Alpha virt. eigenvalues --   -0.06875  -0.02447  -0.01553  -0.00946  -0.00418
 Alpha virt. eigenvalues --    0.00472   0.01432   0.01707   0.01833   0.02684
 Alpha virt. eigenvalues --    0.02835   0.03292   0.04038   0.04222   0.04754

 Mulliken charges:
               1
     1  C   -0.661407
     2  C    0.702998
     3  C    0.084528
     4  C    0.389186
     5  S   -0.480113
     6  H    0.157689
     7  C   -0.013392
     8  S   -0.554765
     9  C    0.328870
    10  C    0.290292
    11  C    0.007727
    12  H    0.126434
    13  S   -0.407453
    14  C   -0.141827
    15  C   -0.226711
    16  H    0.168813
    17  H    0.136225
    18  H    0.112378
    19  O   -0.271468
    20  H    0.251996
 Sum of Mulliken charges =  -0.00000

 Dipole moment (field-independent basis, Debye):
    X=             -1.2546    Y=              1.3499    Z=              0.2327  Tot=              1.8575
 Quadrupole moment (field-independent basis, Debye-Ang):
   XX=            -98.0435   YY=            -91.6155   ZZ=           -108.5101
   XY=              5.6188   XZ=              0.2188   YZ=              0.9522

 Normal termination of Gaussian 16 at Sun Oct 17 19:36:32 2021.
