 Gaussian 16, Revision C.01,
 Gaussian 16:  ES64L-G16RevC.01  3-Jul-2019

 -------------------------------------
 # opt=modredundant b3lyp/6-311+g(d,p)
 -------------------------------------

 ---------------
 pg2T_TT_-15.pdb
 ---------------
 Symbolic Z-matrix:
 Charge =  0 Multiplicity = 1

 SCF Done:  E(RB3LYP) =  -1654.46431635     A.U. after   17 cycles
 SCF Done:  E(RB3LYP) =  -1654.52906734     A.U. after   14 cycles
 SCF Done:  E(RB3LYP) =  -1654.60947742     A.U. after   15 cycles
 SCF Done:  E(RB3LYP) =  -1654.62395124     A.U. after   15 cycles
 SCF Done:  E(RB3LYP) =  -1654.63058133     A.U. after   14 cycles
 SCF Done:  E(RB3LYP) =  -1654.63199094     A.U. after   15 cycles
 SCF Done:  E(RB3LYP) =  -1654.63266933     A.U. after   13 cycles
 SCF Done:  E(RB3LYP) =  -1654.63279878     A.U. after   12 cycles
 SCF Done:  E(RB3LYP) =  -1654.63278067     A.U. after   12 cycles
 SCF Done:  E(RB3LYP) =  -1654.63282988     A.U. after   12 cycles
 SCF Done:  E(RB3LYP) =  -1654.63284156     A.U. after   11 cycles
 SCF Done:  E(RB3LYP) =  -1654.63284221     A.U. after   10 cycles
 SCF Done:  E(RB3LYP) =  -1654.63284235     A.U. after    9 cycles
 Optimization completed.
    -- Stationary point found.

                         Standard orientation:
 ---------------------------------------------------------------------
 Center     Atomic      Atomic             Coordinates (Angstroms)
 Number     Number       Type             X           Y           Z
 ---------------------------------------------------------------------
      1          6           0       -3.826442    0.417291    0.116990
      2          6           0       -2.483367    0.889711    0.168447
      3          6           0       -1.551327   -0.109661    0.005335
      4          6           0       -3.919457   -0.930887   -0.085231
      5         16           0       -2.347708   -1.649994   -0.233397
      6          1           0       -4.812322   -1.530462   -0.155910
      7          6           0       -0.107765   -0.005422   -0.008460
      8         16           0        0.660992    1.579937   -0.196833
      9          6           0        2.246165    0.864023   -0.084418
     10          6           0        2.152130   -0.512792    0.072891
     11          6           0        0.824388   -1.008570    0.122465
     12          1           0        0.558930   -2.047116    0.265681
     13         16           0        3.738666   -1.227259    0.184493
     14          6           0        4.484373    0.345378    0.014381
     15          6           0        3.579031    1.359547   -0.118752
     16          1           0        5.561124    0.418286    0.022597
     17          1           0        3.856400    2.397923   -0.234955
     18          1           0       -2.219255    1.925670    0.343937
     19          8           0       -4.936310    1.202530    0.261994
     20          1           0       -4.671978    2.120793    0.372615
 ---------------------------------------------------------------------

 The electronic state is 1-A.
 Alpha  occ. eigenvalues --  -88.88825 -88.88812 -88.88556 -19.16573 -10.24681
 Alpha  occ. eigenvalues --  -10.23020 -10.22860 -10.21635 -10.21577 -10.21400
 Alpha  occ. eigenvalues --  -10.19777 -10.19766 -10.19729 -10.19119  -7.97407
 Alpha  occ. eigenvalues --   -7.97385  -7.97155  -5.93733  -5.93697  -5.93467
 Alpha  occ. eigenvalues --   -5.93372  -5.93332  -5.93090  -5.92933  -5.92922
 Alpha  occ. eigenvalues --   -5.92712  -1.07585  -0.92173  -0.89509  -0.85359
 Alpha  occ. eigenvalues --   -0.77727  -0.76533  -0.74592  -0.71804  -0.70664
 Alpha  occ. eigenvalues --   -0.63347  -0.58939  -0.58056  -0.55803  -0.54829
 Alpha  occ. eigenvalues --   -0.53273  -0.50224  -0.48566  -0.44308  -0.43822
 Alpha  occ. eigenvalues --   -0.43309  -0.42024  -0.41903  -0.40154  -0.39835
 Alpha  occ. eigenvalues --   -0.38066  -0.37644  -0.37285  -0.35634  -0.34554
 Alpha  occ. eigenvalues --   -0.33953  -0.29624  -0.27134  -0.24500  -0.24192
 Alpha  occ. eigenvalues --   -0.20645
 Alpha virt. eigenvalues --   -0.06904  -0.01761  -0.01548  -0.00914  -0.00532
 Alpha virt. eigenvalues --    0.00752   0.01049   0.01648   0.01795   0.02203
 Alpha virt. eigenvalues --    0.03017   0.03292   0.03997   0.04088   0.04391

 Mulliken charges:
               1
     1  C   -0.688238
     2  C    0.802168
     3  C    0.066068
     4  C    0.348140
     5  S   -0.521395
     6  H    0.159018
     7  C   -0.036858
     8  S   -0.605707
     9  C    0.230504
    10  C    0.344203
    11  C    0.139260
    12  H    0.139646
    13  S   -0.414797
    14  C   -0.139101
    15  C   -0.225221
    16  H    0.168770
    17  H    0.135493
    18  H    0.119763
    19  O   -0.273795
    20  H    0.252081
 Sum of Mulliken charges =  -0.00000

 Dipole moment (field-independent basis, Debye):
    X=              1.1335    Y=              1.4879    Z=              0.2355  Tot=              1.8852
 Quadrupole moment (field-independent basis, Debye-Ang):
   XX=            -97.6857   YY=            -91.6657   ZZ=           -108.6396
   XY=             -0.4266   XZ=             -0.6228   YZ=              0.6032

 Normal termination of Gaussian 16 at Sun Oct 17 19:48:06 2021.
