 Gaussian 16, Revision C.01,
 Gaussian 16:  ES64L-G16RevC.01  3-Jul-2019

 -------------------------------------
 # opt=modredundant b3lyp/6-311+g(d,p)
 -------------------------------------

 ---------------
 pg2T_TT_100.pdb
 ---------------
 Symbolic Z-matrix:
 Charge =  0 Multiplicity = 1

 SCF Done:  E(RB3LYP) =  -1654.45939600     A.U. after   16 cycles
 SCF Done:  E(RB3LYP) =  -1654.52445088     A.U. after   14 cycles
 SCF Done:  E(RB3LYP) =  -1654.60526557     A.U. after   14 cycles
 SCF Done:  E(RB3LYP) =  -1654.62012109     A.U. after   15 cycles
 SCF Done:  E(RB3LYP) =  -1654.62696057     A.U. after   15 cycles
 SCF Done:  E(RB3LYP) =  -1654.62837426     A.U. after   14 cycles
 SCF Done:  E(RB3LYP) =  -1654.62910378     A.U. after   14 cycles
 SCF Done:  E(RB3LYP) =  -1654.62900090     A.U. after   14 cycles
 SCF Done:  E(RB3LYP) =  -1654.62934609     A.U. after   13 cycles
 SCF Done:  E(RB3LYP) =  -1654.62934653     A.U. after   13 cycles
 SCF Done:  E(RB3LYP) =  -1654.62936773     A.U. after   13 cycles
 SCF Done:  E(RB3LYP) =  -1654.62937016     A.U. after   11 cycles
 SCF Done:  E(RB3LYP) =  -1654.62937022     A.U. after   10 cycles
 Optimization completed.
    -- Stationary point found.

                         Standard orientation:
 ---------------------------------------------------------------------
 Center     Atomic      Atomic             Coordinates (Angstroms)
 Number     Number       Type             X           Y           Z
 ---------------------------------------------------------------------
      1          6           0        3.784396    0.532169   -0.431428
      2          6           0        2.406884    0.724275   -0.749875
      3          6           0        1.561244    0.039575    0.085208
      4          6           0        3.979640   -0.304137    0.631972
      5         16           0        2.471462   -0.867726    1.269900
      6          1           0        4.918331   -0.607422    1.067255
      7          6           0        0.099621   -0.009177    0.040065
      8         16           0       -0.726788   -1.396191   -0.687797
      9          6           0       -2.280152   -0.665523   -0.397111
     10          6           0       -2.134004    0.573290    0.214207
     11          6           0       -0.785555    0.947370    0.463502
     12          1           0       -0.467976    1.866097    0.936996
     13         16           0       -3.690264    1.303366    0.507129
     14          6           0       -4.496182   -0.076976   -0.201673
     15          6           0       -3.633462   -1.041263   -0.636106
     16          1           0       -5.574355   -0.085117   -0.251465
     17          1           0       -3.951569   -1.964583   -1.099746
     18          1           0        2.050193    1.338075   -1.568051
     19          8           0        4.830548    1.107571   -1.100013
     20          1           0        4.495862    1.643582   -1.825172
 ---------------------------------------------------------------------

 The electronic state is 1-A.
 Alpha  occ. eigenvalues --  -88.88732 -88.88613 -88.88443 -19.16513 -10.24547
 Alpha  occ. eigenvalues --  -10.22601 -10.22471 -10.21471 -10.21390 -10.21353
 Alpha  occ. eigenvalues --  -10.19769 -10.19714 -10.19619 -10.19202  -7.97306
 Alpha  occ. eigenvalues --   -7.97180  -7.97030  -5.93618  -5.93496  -5.93329
 Alpha  occ. eigenvalues --   -5.93253  -5.93133  -5.92954  -5.92855  -5.92715
 Alpha  occ. eigenvalues --   -5.92613  -1.07490  -0.91966  -0.89355  -0.85209
 Alpha  occ. eigenvalues --   -0.77534  -0.76168  -0.74356  -0.71741  -0.70616
 Alpha  occ. eigenvalues --   -0.63037  -0.58729  -0.57786  -0.55275  -0.54285
 Alpha  occ. eigenvalues --   -0.54198  -0.50092  -0.48486  -0.43995  -0.43666
 Alpha  occ. eigenvalues --   -0.43342  -0.42042  -0.41731  -0.40194  -0.39750
 Alpha  occ. eigenvalues --   -0.37942  -0.37452  -0.36215  -0.35280  -0.34536
 Alpha  occ. eigenvalues --   -0.34002  -0.29364  -0.26092  -0.24130  -0.23397
 Alpha  occ. eigenvalues --   -0.22433
 Alpha virt. eigenvalues --   -0.05043  -0.03618  -0.01541  -0.00692  -0.00352
 Alpha virt. eigenvalues --    0.00009   0.00757   0.01572   0.01754   0.02278
 Alpha virt. eigenvalues --    0.02975   0.03211   0.04071   0.04132   0.04371

 Mulliken charges:
               1
     1  C   -0.602627
     2  C    0.155962
     3  C    0.115423
     4  C    0.313771
     5  S   -0.178150
     6  H    0.160009
     7  C   -0.199245
     8  S   -0.501189
     9  C    0.147486
    10  C   -0.430772
    11  C    0.669883
    12  H    0.136042
    13  S   -0.375837
    14  C   -0.213500
    15  C    0.402514
    16  H    0.168460
    17  H    0.136518
    18  H    0.119303
    19  O   -0.278434
    20  H    0.254382
 Sum of Mulliken charges =  -0.00000

 Dipole moment (field-independent basis, Debye):
    X=             -1.1824    Y=              0.8766    Z=             -1.2236  Tot=              1.9141
 Quadrupole moment (field-independent basis, Debye-Ang):
   XX=            -98.3665   YY=            -99.0047   ZZ=           -100.8476
   XY=              4.3441   XZ=             -0.6007   YZ=             -2.0966

 Normal termination of Gaussian 16 at Sun Oct 17 19:50:23 2021.
