 Gaussian 16, Revision C.01,
 Gaussian 16:  ES64L-G16RevC.01  3-Jul-2019

 -------------------------------------
 # opt=modredundant b3lyp/6-311+g(d,p)
 -------------------------------------

 ----------------
 pg2T_TT_-120.pdb
 ----------------
 Symbolic Z-matrix:
 Charge =  0 Multiplicity = 1

 SCF Done:  E(RB3LYP) =  -1654.46040553     A.U. after   17 cycles
 SCF Done:  E(RB3LYP) =  -1654.52545537     A.U. after   14 cycles
 SCF Done:  E(RB3LYP) =  -1654.60627550     A.U. after   14 cycles
 SCF Done:  E(RB3LYP) =  -1654.62122209     A.U. after   15 cycles
 SCF Done:  E(RB3LYP) =  -1654.62823429     A.U. after   14 cycles
 SCF Done:  E(RB3LYP) =  -1654.62971953     A.U. after   14 cycles
 SCF Done:  E(RB3LYP) =  -1654.63053876     A.U. after   13 cycles
 SCF Done:  E(RB3LYP) =  -1654.63049951     A.U. after   13 cycles
 SCF Done:  E(RB3LYP) =  -1654.63074217     A.U. after   12 cycles
 SCF Done:  E(RB3LYP) =  -1654.63076588     A.U. after   12 cycles
 SCF Done:  E(RB3LYP) =  -1654.63077635     A.U. after   12 cycles
 SCF Done:  E(RB3LYP) =  -1654.63077954     A.U. after   11 cycles
 SCF Done:  E(RB3LYP) =  -1654.63077977     A.U. after    9 cycles
 Optimization completed.
    -- Stationary point found.

                         Standard orientation:
 ---------------------------------------------------------------------
 Center     Atomic      Atomic             Coordinates (Angstroms)
 Number     Number       Type             X           Y           Z
 ---------------------------------------------------------------------
      1          6           0        3.763156    0.683304    0.295166
      2          6           0        2.377135    0.950588    0.499595
      3          6           0        1.557736    0.020019   -0.090265
      4          6           0        3.992743   -0.454247   -0.427105
      5         16           0        2.505143   -1.213319   -0.888878
      6          1           0        4.944287   -0.875387   -0.709070
      7          6           0        0.101895   -0.026525   -0.063705
      8         16           0       -0.742281   -1.422090    0.625397
      9          6           0       -2.286297   -0.662925    0.354699
     10          6           0       -2.123223    0.595380   -0.211022
     11          6           0       -0.770978    0.959019   -0.450581
     12          1           0       -0.442923    1.883640   -0.904873
     13         16           0       -3.670295    1.351553   -0.485860
     14          6           0       -4.494817   -0.044948    0.168593
     15          6           0       -3.644167   -1.033446    0.571831
     16          1           0       -5.573175   -0.042712    0.214072
     17          1           0       -3.974303   -1.969502    1.000202
     18          1           0        1.996181    1.782982    1.078625
     19          8           0        4.787502    1.454500    0.772262
     20          1           0        4.429737    2.209366    1.249176
 ---------------------------------------------------------------------

 The electronic state is 1-A.
 Alpha  occ. eigenvalues --  -88.88747 -88.88683 -88.88498 -19.16550 -10.24602
 Alpha  occ. eigenvalues --  -10.22709 -10.22581 -10.21497 -10.21439 -10.21351
 Alpha  occ. eigenvalues --  -10.19748 -10.19732 -10.19634 -10.19182  -7.97321
 Alpha  occ. eigenvalues --   -7.97251  -7.97088  -5.93634  -5.93570  -5.93389
 Alpha  occ. eigenvalues --   -5.93269  -5.93207  -5.93014  -5.92870  -5.92782
 Alpha  occ. eigenvalues --   -5.92666  -1.07535  -0.92018  -0.89411  -0.85246
 Alpha  occ. eigenvalues --   -0.77616  -0.76235  -0.74441  -0.71755  -0.70617
 Alpha  occ. eigenvalues --   -0.63134  -0.58855  -0.57787  -0.55212  -0.54546
 Alpha  occ. eigenvalues --   -0.54043  -0.50144  -0.48534  -0.44049  -0.43747
 Alpha  occ. eigenvalues --   -0.43268  -0.42015  -0.41681  -0.40287  -0.39723
 Alpha  occ. eigenvalues --   -0.37987  -0.37548  -0.36406  -0.35437  -0.34564
 Alpha  occ. eigenvalues --   -0.34017  -0.29409  -0.26399  -0.24238  -0.23877
 Alpha  occ. eigenvalues --   -0.21690
 Alpha virt. eigenvalues --   -0.05721  -0.02838  -0.01612  -0.00741  -0.00382
 Alpha virt. eigenvalues --    0.00215   0.00759   0.01577   0.01759   0.02392
 Alpha virt. eigenvalues --    0.03011   0.03205   0.04079   0.04253   0.04372

 Mulliken charges:
               1
     1  C   -0.665751
     2  C    0.245137
     3  C    0.146908
     4  C    0.315379
     5  S   -0.251533
     6  H    0.160146
     7  C   -0.153982
     8  S   -0.539143
     9  C    0.137281
    10  C   -0.379714
    11  C    0.711663
    12  H    0.133925
    13  S   -0.383251
    14  C   -0.203441
    15  C    0.327925
    16  H    0.168567
    17  H    0.136375
    18  H    0.116759
    19  O   -0.276223
    20  H    0.252974
 Sum of Mulliken charges =  -0.00000

 Dipole moment (field-independent basis, Debye):
    X=             -1.2113    Y=              1.1961    Z=              0.8411  Tot=              1.8989
 Quadrupole moment (field-independent basis, Debye-Ang):
   XX=            -98.3928   YY=            -95.3830   ZZ=           -104.5303
   XY=              4.9278   XZ=             -0.3118   YZ=              1.8770

 Normal termination of Gaussian 16 at Sun Oct 17 19:36:21 2021.
