 Gaussian 16, Revision C.01,
 Gaussian 16:  ES64L-G16RevC.01  3-Jul-2019

 -------------------------------------
 # opt=modredundant b3lyp/6-311+g(d,p)
 -------------------------------------

 ----------------
 pg2T_TT_-125.pdb
 ----------------
 Symbolic Z-matrix:
 Charge =  0 Multiplicity = 1

 SCF Done:  E(RB3LYP) =  -1654.46072561     A.U. after   17 cycles
 SCF Done:  E(RB3LYP) =  -1654.52578298     A.U. after   14 cycles
 SCF Done:  E(RB3LYP) =  -1654.60662645     A.U. after   15 cycles
 SCF Done:  E(RB3LYP) =  -1654.62157980     A.U. after   15 cycles
 SCF Done:  E(RB3LYP) =  -1654.62860672     A.U. after   14 cycles
 SCF Done:  E(RB3LYP) =  -1654.63009170     A.U. after   14 cycles
 SCF Done:  E(RB3LYP) =  -1654.63090671     A.U. after   13 cycles
 SCF Done:  E(RB3LYP) =  -1654.63086652     A.U. after   13 cycles
 SCF Done:  E(RB3LYP) =  -1654.63111053     A.U. after   12 cycles
 SCF Done:  E(RB3LYP) =  -1654.63113367     A.U. after   12 cycles
 SCF Done:  E(RB3LYP) =  -1654.63114288     A.U. after   12 cycles
 SCF Done:  E(RB3LYP) =  -1654.63114611     A.U. after   11 cycles
 SCF Done:  E(RB3LYP) =  -1654.63114634     A.U. after    9 cycles
 Optimization completed.
    -- Stationary point found.

                         Standard orientation:
 ---------------------------------------------------------------------
 Center     Atomic      Atomic             Coordinates (Angstroms)
 Number     Number       Type             X           Y           Z
 ---------------------------------------------------------------------
      1          6           0        3.761923    0.701508    0.268916
      2          6           0        2.375905    0.977173    0.460376
      3          6           0        1.557249    0.015940   -0.080311
      4          6           0        3.992931   -0.471209   -0.394313
      5         16           0        2.506006   -1.254223   -0.817424
      6          1           0        4.944781   -0.906056   -0.653370
      7          6           0        0.102867   -0.026877   -0.056602
      8         16           0       -0.747626   -1.440209    0.586631
      9          6           0       -2.288765   -0.669802    0.330758
     10          6           0       -2.120087    0.604648   -0.195934
     11          6           0       -0.766293    0.971918   -0.418956
     12          1           0       -0.434858    1.907407   -0.847778
     13         16           0       -3.664271    1.371926   -0.455922
     14          6           0       -4.495002   -0.041947    0.151929
     15          6           0       -3.648270   -1.043860    0.529711
     16          1           0       -5.573565   -0.038790    0.191940
     17          1           0       -3.982430   -1.991672    0.928060
     18          1           0        1.994868    1.836188    0.999016
     19          8           0        4.785464    1.496503    0.706812
     20          1           0        4.426994    2.276046    1.141636
 ---------------------------------------------------------------------

 The electronic state is 1-A.
 Alpha  occ. eigenvalues --  -88.88752 -88.88703 -88.88514 -19.16559 -10.24617
 Alpha  occ. eigenvalues --  -10.22742 -10.22611 -10.21509 -10.21453 -10.21352
 Alpha  occ. eigenvalues --  -10.19745 -10.19734 -10.19639 -10.19172  -7.97326
 Alpha  occ. eigenvalues --   -7.97272  -7.97105  -5.93639  -5.93590  -5.93406
 Alpha  occ. eigenvalues --   -5.93274  -5.93227  -5.93031  -5.92875  -5.92801
 Alpha  occ. eigenvalues --   -5.92681  -1.07546  -0.92035  -0.89426  -0.85258
 Alpha  occ. eigenvalues --   -0.77639  -0.76255  -0.74465  -0.71760  -0.70618
 Alpha  occ. eigenvalues --   -0.63161  -0.58887  -0.57794  -0.55205  -0.54606
 Alpha  occ. eigenvalues --   -0.54002  -0.50161  -0.48544  -0.44065  -0.43765
 Alpha  occ. eigenvalues --   -0.43257  -0.42013  -0.41659  -0.40315  -0.39713
 Alpha  occ. eigenvalues --   -0.38007  -0.37573  -0.36472  -0.35494  -0.34561
 Alpha  occ. eigenvalues --   -0.34012  -0.29431  -0.26479  -0.24303  -0.23921
 Alpha  occ. eigenvalues --   -0.21534
 Alpha virt. eigenvalues --   -0.05877  -0.02677  -0.01638  -0.00760  -0.00386
 Alpha virt. eigenvalues --    0.00271   0.00784   0.01581   0.01761   0.02429
 Alpha virt. eigenvalues --    0.03007   0.03216   0.04067   0.04230   0.04404

 Mulliken charges:
               1
     1  C   -0.678486
     2  C    0.265120
     3  C    0.156141
     4  C    0.317873
     5  S   -0.270819
     6  H    0.160030
     7  C   -0.150157
     8  S   -0.550892
     9  C    0.154415
    10  C   -0.405096
    11  C    0.751071
    12  H    0.133360
    13  S   -0.385194
    14  C   -0.199963
    15  C    0.304213
    16  H    0.168587
    17  H    0.136375
    18  H    0.116099
    19  O   -0.275362
    20  H    0.252683
 Sum of Mulliken charges =  -0.00000

 Dipole moment (field-independent basis, Debye):
    X=             -1.2143    Y=              1.2271    Z=              0.7661  Tot=              1.8887
 Quadrupole moment (field-independent basis, Debye-Ang):
   XX=            -98.3485   YY=            -94.7587   ZZ=           -105.1830
   XY=              5.0523   XZ=             -0.3297   YZ=              1.7774

 Normal termination of Gaussian 16 at Sun Oct 17 19:44:25 2021.
