 Gaussian 16, Revision C.01,
 Gaussian 16:  ES64L-G16RevC.01  3-Jul-2019

 -------------------------------------
 # opt=modredundant b3lyp/6-311+g(d,p)
 -------------------------------------

 ---------------
 pg2T_TT_115.pdb
 ---------------
 Symbolic Z-matrix:
 Charge =  0 Multiplicity = 1

 SCF Done:  E(RB3LYP) =  -1654.46033322     A.U. after   17 cycles
 SCF Done:  E(RB3LYP) =  -1654.52539418     A.U. after   14 cycles
 SCF Done:  E(RB3LYP) =  -1654.60625848     A.U. after   14 cycles
 SCF Done:  E(RB3LYP) =  -1654.62117478     A.U. after   15 cycles
 SCF Done:  E(RB3LYP) =  -1654.62800505     A.U. after   14 cycles
 SCF Done:  E(RB3LYP) =  -1654.62942101     A.U. after   14 cycles
 SCF Done:  E(RB3LYP) =  -1654.63015382     A.U. after   14 cycles
 SCF Done:  E(RB3LYP) =  -1654.63007980     A.U. after   13 cycles
 SCF Done:  E(RB3LYP) =  -1654.63036133     A.U. after   13 cycles
 SCF Done:  E(RB3LYP) =  -1654.63036961     A.U. after   13 cycles
 SCF Done:  E(RB3LYP) =  -1654.63038355     A.U. after   11 cycles
 SCF Done:  E(RB3LYP) =  -1654.63038561     A.U. after   11 cycles
 SCF Done:  E(RB3LYP) =  -1654.63038577     A.U. after   10 cycles
 Optimization completed.
    -- Stationary point found.

                         Standard orientation:
 ---------------------------------------------------------------------
 Center     Atomic      Atomic             Coordinates (Angstroms)
 Number     Number       Type             X           Y           Z
 ---------------------------------------------------------------------
      1          6           0        3.765858    0.660020   -0.322599
      2          6           0        2.380506    0.917370   -0.544801
      3          6           0        1.558378    0.024423    0.096219
      4          6           0        3.991651   -0.433489    0.465824
      5         16           0        2.501877   -1.162646    0.966260
      6          1           0        4.941977   -0.837653    0.775524
      7          6           0        0.101005   -0.024833    0.065995
      8         16           0       -0.737310   -1.404227   -0.662148
      9          6           0       -2.284109   -0.656480   -0.376998
     10          6           0       -2.126380    0.586362    0.223267
     11          6           0       -0.775531    0.947349    0.475850
     12          1           0       -0.450734    1.862104    0.951985
     13         16           0       -3.676271    1.331086    0.513081
     14          6           0       -4.494851   -0.048729   -0.182690
     15          6           0       -3.640457   -1.024086   -0.609155
     16          1           0       -5.573039   -0.047707   -0.232304
     17          1           0       -3.966758   -1.948899   -1.064058
     18          1           0        2.001697    1.717531   -1.168922
     19          8           0        4.792569    1.401797   -0.839787
     20          1           0        4.437143    2.125387   -1.364498
 ---------------------------------------------------------------------

 The electronic state is 1-A.
 Alpha  occ. eigenvalues --  -88.88743 -88.88663 -88.88482 -19.16541 -10.24587
 Alpha  occ. eigenvalues --  -10.22677 -10.22550 -10.21488 -10.21425 -10.21351
 Alpha  occ. eigenvalues --  -10.19752 -10.19728 -10.19629 -10.19191  -7.97317
 Alpha  occ. eigenvalues --   -7.97230  -7.97071  -5.93629  -5.93548  -5.93371
 Alpha  occ. eigenvalues --   -5.93264  -5.93185  -5.92996  -5.92866  -5.92762
 Alpha  occ. eigenvalues --   -5.92650  -1.07524  -0.92002  -0.89396  -0.85235
 Alpha  occ. eigenvalues --   -0.77593  -0.76216  -0.74416  -0.71751  -0.70617
 Alpha  occ. eigenvalues --   -0.63107  -0.58823  -0.57783  -0.55221  -0.54482
 Alpha  occ. eigenvalues --   -0.54086  -0.50128  -0.48524  -0.44033  -0.43727
 Alpha  occ. eigenvalues --   -0.43284  -0.42020  -0.41699  -0.40260  -0.39732
 Alpha  occ. eigenvalues --   -0.37970  -0.37523  -0.36346  -0.35385  -0.34561
 Alpha  occ. eigenvalues --   -0.34018  -0.29390  -0.26317  -0.24185  -0.23805
 Alpha  occ. eigenvalues --   -0.21858
 Alpha virt. eigenvalues --   -0.05556  -0.03022  -0.01585  -0.00725  -0.00375
 Alpha virt. eigenvalues --    0.00156   0.00748   0.01575   0.01758   0.02359
 Alpha virt. eigenvalues --    0.03003   0.03201   0.04087   0.04284   0.04325

 Mulliken charges:
               1
     1  C   -0.650561
     2  C    0.228096
     3  C    0.132089
     4  C    0.316140
     5  S   -0.232767
     6  H    0.160191
     7  C   -0.168623
     8  S   -0.528272
     9  C    0.129804
    10  C   -0.371713
    11  C    0.688677
    12  H    0.134454
    13  S   -0.381064
    14  C   -0.206547
    15  C    0.351298
    16  H    0.168545
    17  H    0.136391
    18  H    0.117593
    19  O   -0.277017
    20  H    0.253285
 Sum of Mulliken charges =  -0.00000

 Dipole moment (field-independent basis, Debye):
    X=             -1.2073    Y=              1.1553    Z=             -0.9208  Tot=              1.9080
 Quadrupole moment (field-independent basis, Debye-Ang):
   XX=            -98.4195   YY=            -96.0970   ZZ=           -103.7904
   XY=              4.8030   XZ=              0.2379   YZ=             -1.9820

 Normal termination of Gaussian 16 at Sun Oct 17 19:56:29 2021.
