 Gaussian 16, Revision C.01,
 Gaussian 16:  ES64L-G16RevC.01  3-Jul-2019

 -------------------------------------
 # opt=modredundant b3lyp/6-311+g(d,p)
 -------------------------------------

 ---------------
 pg2T_TT_105.pdb
 ---------------
 Symbolic Z-matrix:
 Charge =  0 Multiplicity = 1

 SCF Done:  E(RB3LYP) =  -1654.45959107     A.U. after   16 cycles
 SCF Done:  E(RB3LYP) =  -1654.52466223     A.U. after   14 cycles
 SCF Done:  E(RB3LYP) =  -1654.60552173     A.U. after   15 cycles
 SCF Done:  E(RB3LYP) =  -1654.62040690     A.U. after   15 cycles
 SCF Done:  E(RB3LYP) =  -1654.62724874     A.U. after   14 cycles
 SCF Done:  E(RB3LYP) =  -1654.62866490     A.U. after   14 cycles
 SCF Done:  E(RB3LYP) =  -1654.62939501     A.U. after   14 cycles
 SCF Done:  E(RB3LYP) =  -1654.62929785     A.U. after   14 cycles
 SCF Done:  E(RB3LYP) =  -1654.62962257     A.U. after   13 cycles
 SCF Done:  E(RB3LYP) =  -1654.62962384     A.U. after   13 cycles
 SCF Done:  E(RB3LYP) =  -1654.62964549     A.U. after   13 cycles
 SCF Done:  E(RB3LYP) =  -1654.62964786     A.U. after   11 cycles
 SCF Done:  E(RB3LYP) =  -1654.62964794     A.U. after   10 cycles
 Optimization completed.
    -- Stationary point found.

                         Standard orientation:
 ---------------------------------------------------------------------
 Center     Atomic      Atomic             Coordinates (Angstroms)
 Number     Number       Type             X           Y           Z
 ---------------------------------------------------------------------
      1          6           0        3.776304    0.590778   -0.385869
      2          6           0        2.394974    0.815366   -0.663485
      3          6           0        1.560175    0.033489    0.094071
      4          6           0        3.985567   -0.367930    0.565667
      5         16           0        2.485822   -1.008387    1.149160
      6          1           0        4.929750   -0.719724    0.949456
      7          6           0        0.099777   -0.016589    0.054302
      8         16           0       -0.729621   -1.382413   -0.709235
      9          6           0       -2.281111   -0.652621   -0.405717
     10          6           0       -2.131908    0.572682    0.231543
     11          6           0       -0.782939    0.935735    0.493295
     12          1           0       -0.463335    1.841656    0.989505
     13         16           0       -3.686404    1.300755    0.538480
     14          6           0       -4.495624   -0.062050   -0.200040
     15          6           0       -3.635155   -1.019732   -0.653238
     16          1           0       -5.573723   -0.065634   -0.251789
     17          1           0       -3.955399   -1.932255   -1.136377
     18          1           0        2.027832    1.518020   -1.401604
     19          8           0        4.813576    1.244236   -0.993630
     20          1           0        4.469144    1.869997   -1.637806
 ---------------------------------------------------------------------

 The electronic state is 1-A.
 Alpha  occ. eigenvalues --  -88.88735 -88.88626 -88.88453 -19.16522 -10.24559
 Alpha  occ. eigenvalues --  -10.22621 -10.22493 -10.21475 -10.21400 -10.21352
 Alpha  occ. eigenvalues --  -10.19764 -10.19719 -10.19622 -10.19200  -7.97309
 Alpha  occ. eigenvalues --   -7.97193  -7.97041  -5.93621  -5.93510  -5.93340
 Alpha  occ. eigenvalues --   -5.93256  -5.93147  -5.92965  -5.92859  -5.92727
 Alpha  occ. eigenvalues --   -5.92622  -1.07501  -0.91976  -0.89367  -0.85216
 Alpha  occ. eigenvalues --   -0.77551  -0.76181  -0.74372  -0.71743  -0.70616
 Alpha  occ. eigenvalues --   -0.63057  -0.58759  -0.57782  -0.55253  -0.54343
 Alpha  occ. eigenvalues --   -0.54172  -0.50102  -0.48499  -0.44005  -0.43685
 Alpha  occ. eigenvalues --   -0.43321  -0.42034  -0.41724  -0.40212  -0.39746
 Alpha  occ. eigenvalues --   -0.37947  -0.37475  -0.36248  -0.35305  -0.34547
 Alpha  occ. eigenvalues --   -0.34010  -0.29368  -0.26159  -0.24130  -0.23566
 Alpha  occ. eigenvalues --   -0.22232
 Alpha virt. eigenvalues --   -0.05211  -0.03424  -0.01548  -0.00701  -0.00359
 Alpha virt. eigenvalues --    0.00052   0.00750   0.01572   0.01756   0.02301
 Alpha virt. eigenvalues --    0.02979   0.03206   0.04085   0.04195   0.04350

 Mulliken charges:
               1
     1  C   -0.619067
     2  C    0.187272
     3  C    0.112549
     4  C    0.318231
     5  S   -0.196714
     6  H    0.160107
     7  C   -0.198616
     8  S   -0.509057
     9  C    0.136828
    10  C   -0.401514
    11  C    0.672661
    12  H    0.135479
    13  S   -0.377176
    14  C   -0.211824
    15  C    0.391091
    16  H    0.168492
    17  H    0.136471
    18  H    0.118942
    19  O   -0.278148
    20  H    0.253992
 Sum of Mulliken charges =  -0.00000

 Dipole moment (field-independent basis, Debye):
    X=             -1.1941    Y=              1.0152    Z=             -1.1044  Tot=              1.9173
 Quadrupole moment (field-independent basis, Debye-Ang):
   XX=            -98.4099   YY=            -97.8635   ZZ=           -101.9918
   XY=              4.5325   XZ=             -0.1656   YZ=             -2.1428

 Normal termination of Gaussian 16 at Sun Oct 17 20:00:48 2021.
