 Gaussian 16, Revision C.01,
 Gaussian 16:  ES64L-G16RevC.01  3-Jul-2019

 -------------------------------------
 # opt=modredundant b3lyp/6-311+g(d,p)
 -------------------------------------

 ----------------
 pg2T_TT_-140.pdb
 ----------------
 Symbolic Z-matrix:
 Charge =  0 Multiplicity = 1

 SCF Done:  E(RB3LYP) =  -1654.46157979     A.U. after   17 cycles
 SCF Done:  E(RB3LYP) =  -1654.52659495     A.U. after   14 cycles
 SCF Done:  E(RB3LYP) =  -1654.60741876     A.U. after   15 cycles
 SCF Done:  E(RB3LYP) =  -1654.62234921     A.U. after   15 cycles
 SCF Done:  E(RB3LYP) =  -1654.62935178     A.U. after   14 cycles
 SCF Done:  E(RB3LYP) =  -1654.63081431     A.U. after   14 cycles
 SCF Done:  E(RB3LYP) =  -1654.63159995     A.U. after   13 cycles
 SCF Done:  E(RB3LYP) =  -1654.63151252     A.U. after   13 cycles
 SCF Done:  E(RB3LYP) =  -1654.63178223     A.U. after   12 cycles
 SCF Done:  E(RB3LYP) =  -1654.63184032     A.U. after   12 cycles
 SCF Done:  E(RB3LYP) =  -1654.63180439     A.U. after   11 cycles
 SCF Done:  E(RB3LYP) =  -1654.63180795     A.U. after   10 cycles
 SCF Done:  E(RB3LYP) =  -1654.63180775     A.U. after    9 cycles
 SCF Done:  E(RB3LYP) =  -1654.63180795     A.U. after    9 cycles
 Optimization completed.
    -- Stationary point found.

                         Standard orientation:
 ---------------------------------------------------------------------
 Center     Atomic      Atomic             Coordinates (Angstroms)
 Number     Number       Type             X           Y           Z
 ---------------------------------------------------------------------
      1          6           0        3.762021    0.739316    0.191788
      2          6           0        2.377952    1.034176    0.360945
      3          6           0        1.556590    0.005280   -0.035121
      4          6           0        3.991717   -0.509158   -0.315561
      5         16           0        2.503299   -1.343737   -0.619386
      6          1           0        4.942106   -0.973950   -0.522160
      7          6           0        0.105700   -0.025074   -0.016785
      8         16           0       -0.763875   -1.489155    0.466854
      9          6           0       -2.296602   -0.689035    0.253668
     10          6           0       -2.111769    0.629522   -0.143268
     11          6           0       -0.753380    1.008510   -0.303748
     12          1           0       -0.412691    1.976309   -0.644354
     13         16           0       -3.647555    1.426677   -0.359771
     14          6           0       -4.496069   -0.034613    0.092054
     15          6           0       -3.660651   -1.073005    0.388452
     16          1           0       -5.575189   -0.029367    0.109937
     17          1           0       -4.006319   -2.052907    0.686793
     18          1           0        2.002247    1.955140    0.790247
     19          8           0        4.787051    1.586813    0.511609
     20          1           0        4.430488    2.414189    0.848972
 ---------------------------------------------------------------------

 The electronic state is 1-A.
 Alpha  occ. eigenvalues --  -88.88771 -88.88748 -88.88556 -19.16580 -10.24654
 Alpha  occ. eigenvalues --  -10.22843 -10.22699 -10.21552 -10.21492 -10.21360
 Alpha  occ. eigenvalues --  -10.19749 -10.19738 -10.19661 -10.19133  -7.97345
 Alpha  occ. eigenvalues --   -7.97321  -7.97149  -5.93658  -5.93642  -5.93454
 Alpha  occ. eigenvalues --   -5.93293  -5.93279  -5.93078  -5.92893  -5.92847
 Alpha  occ. eigenvalues --   -5.92720  -1.07565  -0.92088  -0.89469  -0.85294
 Alpha  occ. eigenvalues --   -0.77710  -0.76312  -0.74534  -0.71774  -0.70622
 Alpha  occ. eigenvalues --   -0.63238  -0.58973  -0.57826  -0.55205  -0.54759
 Alpha  occ. eigenvalues --   -0.53890  -0.50218  -0.48564  -0.44118  -0.43800
 Alpha  occ. eigenvalues --   -0.43241  -0.42013  -0.41588  -0.40400  -0.39673
 Alpha  occ. eigenvalues --   -0.38077  -0.37631  -0.36699  -0.35681  -0.34526
 Alpha  occ. eigenvalues --   -0.33975  -0.29519  -0.26700  -0.24512  -0.23956
 Alpha  occ. eigenvalues --   -0.21138
 Alpha virt. eigenvalues --   -0.06304  -0.02376  -0.01661  -0.00816  -0.00392
 Alpha virt. eigenvalues --    0.00397   0.00973   0.01597   0.01768   0.02560
 Alpha virt. eigenvalues --    0.02960   0.03271   0.04049   0.04211   0.04476

 Mulliken charges:
               1
     1  C   -0.689568
     2  C    0.331146
     3  C    0.286595
     4  C    0.344220
     5  S   -0.359323
     6  H    0.159346
     7  C    0.289240
     8  S   -0.479392
     9  C    0.358552
    10  C    0.134483
    11  C   -0.095604
    12  H    0.132262
    13  S   -0.398306
    14  C   -0.134033
    15  C   -0.281664
    16  H    0.168666
    17  H    0.136737
    18  H    0.117847
    19  O   -0.273165
    20  H    0.251961
 Sum of Mulliken charges =  -0.00000

 Dipole moment (field-independent basis, Debye):
    X=             -1.2259    Y=              1.2842    Z=              0.5677  Tot=              1.8639
 Quadrupole moment (field-independent basis, Debye-Ang):
   XX=            -98.1816   YY=            -93.3056   ZZ=           -106.7313
   XY=              5.3595   XZ=             -0.1242   YZ=              1.5547

 Normal termination of Gaussian 16 at Sun Oct 17 19:41:57 2021.
