 Gaussian 16, Revision C.01,
 Gaussian 16:  ES64L-G16RevC.01  3-Jul-2019

 -------------------------------------
 # opt=modredundant b3lyp/6-311+g(d,p)
 -------------------------------------

 ---------------
 pg2T_TT_-95.pdb
 ---------------
 Symbolic Z-matrix:
 Charge =  0 Multiplicity = 1

 SCF Done:  E(RB3LYP) =  -1654.45886688     A.U. after   16 cycles
 SCF Done:  E(RB3LYP) =  -1654.52400715     A.U. after   14 cycles
 SCF Done:  E(RB3LYP) =  -1654.60489840     A.U. after   15 cycles
 SCF Done:  E(RB3LYP) =  -1654.61985214     A.U. after   15 cycles
 SCF Done:  E(RB3LYP) =  -1654.62676259     A.U. after   14 cycles
 SCF Done:  E(RB3LYP) =  -1654.62818058     A.U. after   14 cycles
 SCF Done:  E(RB3LYP) =  -1654.62894765     A.U. after   13 cycles
 SCF Done:  E(RB3LYP) =  -1654.62888461     A.U. after   13 cycles
 SCF Done:  E(RB3LYP) =  -1654.62916535     A.U. after   12 cycles
 SCF Done:  E(RB3LYP) =  -1654.62917616     A.U. after   12 cycles
 SCF Done:  E(RB3LYP) =  -1654.62919451     A.U. after   13 cycles
 SCF Done:  E(RB3LYP) =  -1654.62919693     A.U. after   11 cycles
 SCF Done:  E(RB3LYP) =  -1654.62919713     A.U. after    9 cycles
 Optimization completed.
    -- Stationary point found.

                         Standard orientation:
 ---------------------------------------------------------------------
 Center     Atomic      Atomic             Coordinates (Angstroms)
 Number     Number       Type             X           Y           Z
 ---------------------------------------------------------------------
      1          6           0        3.794377    0.424695    0.504975
      2          6           0        2.422278    0.545973    0.877356
      3          6           0        1.562352    0.048846   -0.068181
      4          6           0        3.971055   -0.169498   -0.713263
      5         16           0        2.451822   -0.587972   -1.431286
      6          1           0        4.902258   -0.374290   -1.216809
      7          6           0        0.099932   -0.000518   -0.019208
      8         16           0       -0.724623   -1.460887    0.550025
      9          6           0       -2.279427   -0.709047    0.330606
     10          6           0       -2.135318    0.586923   -0.148451
     11          6           0       -0.787107    0.990054   -0.349438
     12          1           0       -0.471010    1.954821   -0.721548
     13         16           0       -3.692861    1.339745   -0.367719
     14          6           0       -4.496612   -0.108879    0.191351
     15          6           0       -3.632318   -1.110662    0.526345
     16          1           0       -5.574923   -0.125301    0.235950
     17          1           0       -3.949021   -2.077929    0.890718
     18          1           0        2.079742    0.980463    1.808703
     19          8           0        4.852185    0.848827    1.262514
     20          1           0        4.530791    1.210129    2.094025
 ---------------------------------------------------------------------

 The electronic state is 1-A.
 Alpha  occ. eigenvalues --  -88.88728 -88.88605 -88.88439 -19.16505 -10.24539
 Alpha  occ. eigenvalues --  -10.22588 -10.22457 -10.21468 -10.21384 -10.21352
 Alpha  occ. eigenvalues --  -10.19773 -10.19710 -10.19617 -10.19201  -7.97302
 Alpha  occ. eigenvalues --   -7.97172  -7.97026  -5.93614  -5.93488  -5.93324
 Alpha  occ. eigenvalues --   -5.93249  -5.93125  -5.92949  -5.92851  -5.92708
 Alpha  occ. eigenvalues --   -5.92609  -1.07479  -0.91960  -0.89348  -0.85205
 Alpha  occ. eigenvalues --   -0.77521  -0.76161  -0.74346  -0.71739  -0.70615
 Alpha  occ. eigenvalues --   -0.63024  -0.58703  -0.57793  -0.55304  -0.54296
 Alpha  occ. eigenvalues --   -0.54153  -0.50084  -0.48474  -0.43990  -0.43655
 Alpha  occ. eigenvalues --   -0.43361  -0.42049  -0.41733  -0.40183  -0.39752
 Alpha  occ. eigenvalues --   -0.37942  -0.37430  -0.36197  -0.35263  -0.34524
 Alpha  occ. eigenvalues --   -0.33996  -0.29363  -0.26041  -0.24150  -0.23197
 Alpha  occ. eigenvalues --   -0.22641
 Alpha virt. eigenvalues --   -0.04906  -0.03774  -0.01542  -0.00684  -0.00347
 Alpha virt. eigenvalues --   -0.00024   0.00768   0.01572   0.01750   0.02259
 Alpha virt. eigenvalues --    0.02982   0.03221   0.04027   0.04096   0.04381

 Mulliken charges:
               1
     1  C   -0.583964
     2  C    0.112679
     3  C    0.125326
     4  C    0.303732
     5  S   -0.159501
     6  H    0.159922
     7  C   -0.179558
     8  S   -0.495123
     9  C    0.160784
    10  C   -0.463342
    11  C    0.665283
    12  H    0.136740
    13  S   -0.374860
    14  C   -0.214329
    15  C    0.405442
    16  H    0.168424
    17  H    0.136552
    18  H    0.119646
    19  O   -0.278580
    20  H    0.254728
 Sum of Mulliken charges =  -0.00000

 Dipole moment (field-independent basis, Debye):
    X=             -1.1654    Y=              0.5970    Z=              1.3813  Tot=              1.9033
 Quadrupole moment (field-independent basis, Debye-Ang):
   XX=            -98.2901   YY=           -100.4280   ZZ=            -99.4335
   XY=              3.9840   XZ=              1.4047   YZ=              1.6533

 Normal termination of Gaussian 16 at Sun Oct 17 19:39:26 2021.
