 Gaussian 16, Revision C.01,
 Gaussian 16:  ES64L-G16RevC.01  3-Jul-2019

 -------------------------------------
 # opt=modredundant b3lyp/6-311+g(d,p)
 -------------------------------------

 --------------
 pg2T_TT_60.pdb
 --------------
 Symbolic Z-matrix:
 Charge =  0 Multiplicity = 1

 SCF Done:  E(RB3LYP) =  -1654.46108839     A.U. after   17 cycles
 SCF Done:  E(RB3LYP) =  -1654.52612741     A.U. after   14 cycles
 SCF Done:  E(RB3LYP) =  -1654.60701167     A.U. after   15 cycles
 SCF Done:  E(RB3LYP) =  -1654.62184813     A.U. after   15 cycles
 SCF Done:  E(RB3LYP) =  -1654.62874929     A.U. after   14 cycles
 SCF Done:  E(RB3LYP) =  -1654.63019089     A.U. after   14 cycles
 SCF Done:  E(RB3LYP) =  -1654.63094582     A.U. after   13 cycles
 SCF Done:  E(RB3LYP) =  -1654.63092910     A.U. after   13 cycles
 SCF Done:  E(RB3LYP) =  -1654.63130939     A.U. after   12 cycles
 SCF Done:  E(RB3LYP) =  -1654.63131807     A.U. after   12 cycles
 SCF Done:  E(RB3LYP) =  -1654.63132334     A.U. after   12 cycles
 SCF Done:  E(RB3LYP) =  -1654.63132786     A.U. after   11 cycles
 SCF Done:  E(RB3LYP) =  -1654.63132798     A.U. after    9 cycles
 Optimization completed.
    -- Stationary point found.

                         Standard orientation:
 ---------------------------------------------------------------------
 Center     Atomic      Atomic             Coordinates (Angstroms)
 Number     Number       Type             X           Y           Z
 ---------------------------------------------------------------------
      1          6           0        3.828471    0.328502    0.389032
      2          6           0        2.485417    0.759776    0.597152
      3          6           0        1.559926   -0.057573   -0.003946
      4          6           0        3.919862   -0.817272   -0.351577
      5         16           0        2.351412   -1.380802   -0.825194
      6          1           0        4.814305   -1.343981   -0.642927
      7          6           0        0.106609    0.033223    0.033632
      8         16           0       -0.698854    1.485496   -0.581317
      9          6           0       -2.264926    0.793985   -0.260374
     10          6           0       -2.137224   -0.488791    0.257961
     11          6           0       -0.795359   -0.925614    0.420766
     12          1           0       -0.495158   -1.884320    0.820633
     13         16           0       -3.704747   -1.179411    0.583772
     14          6           0       -4.489694    0.275529    0.013916
     15          6           0       -3.611641    1.235867   -0.398784
     16          1           0       -5.567873    0.325014    0.018574
     17          1           0       -3.915529    2.199685   -0.782723
     18          1           0        2.210220    1.626931    1.185430
     19          8           0        4.937912    0.959758    0.880765
     20          1           0        4.677116    1.768282    1.332045
 ---------------------------------------------------------------------

 The electronic state is 1-A.
 Alpha  occ. eigenvalues --  -88.88727 -88.88713 -88.88552 -19.16525 -10.24608
 Alpha  occ. eigenvalues --  -10.22724 -10.22587 -10.21500 -10.21440 -10.21343
 Alpha  occ. eigenvalues --  -10.19720 -10.19713 -10.19634 -10.19140  -7.97301
 Alpha  occ. eigenvalues --   -7.97280  -7.97137  -5.93613  -5.93599  -5.93439
 Alpha  occ. eigenvalues --   -5.93248  -5.93236  -5.93063  -5.92850  -5.92810
 Alpha  occ. eigenvalues --   -5.92715  -1.07517  -0.92019  -0.89427  -0.85249
 Alpha  occ. eigenvalues --   -0.77562  -0.76296  -0.74454  -0.71751  -0.70613
 Alpha  occ. eigenvalues --   -0.63131  -0.58733  -0.57900  -0.55538  -0.54581
 Alpha  occ. eigenvalues --   -0.53638  -0.50095  -0.48483  -0.44116  -0.43762
 Alpha  occ. eigenvalues --   -0.43325  -0.42046  -0.41773  -0.40178  -0.39752
 Alpha  occ. eigenvalues --   -0.38015  -0.37472  -0.36476  -0.35394  -0.34534
 Alpha  occ. eigenvalues --   -0.34015  -0.29446  -0.26383  -0.24445  -0.23681
 Alpha  occ. eigenvalues --   -0.21690
 Alpha virt. eigenvalues --   -0.05768  -0.02729  -0.01617  -0.00710  -0.00458
 Alpha virt. eigenvalues --    0.00111   0.00849   0.01525   0.01758   0.02212
 Alpha virt. eigenvalues --    0.03133   0.03446   0.03702   0.04087   0.04272

 Mulliken charges:
               1
     1  C   -0.530433
     2  C   -0.000140
     3  C    0.164060
     4  C    0.231155
     5  S   -0.167727
     6  H    0.161170
     7  C    0.045800
     8  S   -0.473023
     9  C    0.195673
    10  C   -0.600663
    11  C    0.742047
    12  H    0.142721
    13  S   -0.381368
    14  C   -0.204460
    15  C    0.268156
    16  H    0.168316
    17  H    0.136291
    18  H    0.124436
    19  O   -0.274815
    20  H    0.252801
 Sum of Mulliken charges =  -0.00000

 Dipole moment (field-independent basis, Debye):
    X=             -1.0682    Y=              1.2852    Z=              0.7669  Tot=              1.8387
 Quadrupole moment (field-independent basis, Debye-Ang):
   XX=            -97.8348   YY=            -95.3051   ZZ=           -104.7352
   XY=              0.1755   XZ=              2.7144   YZ=              2.1126

 Normal termination of Gaussian 16 at Sun Oct 17 19:55:24 2021.
