 Gaussian 16, Revision C.01,
 Gaussian 16:  ES64L-G16RevC.01  3-Jul-2019

 -------------------------------------
 # opt=modredundant b3lyp/6-311+g(d,p)
 -------------------------------------

 --------------
 pg2T_TT_55.pdb
 --------------
 Symbolic Z-matrix:
 Charge =  0 Multiplicity = 1

 SCF Done:  E(RB3LYP) =  -1654.46161501     A.U. after   17 cycles
 SCF Done:  E(RB3LYP) =  -1654.52664117     A.U. after   14 cycles
 SCF Done:  E(RB3LYP) =  -1654.60751730     A.U. after   15 cycles
 SCF Done:  E(RB3LYP) =  -1654.62234991     A.U. after   15 cycles
 SCF Done:  E(RB3LYP) =  -1654.62924642     A.U. after   14 cycles
 SCF Done:  E(RB3LYP) =  -1654.63067490     A.U. after   15 cycles
 SCF Done:  E(RB3LYP) =  -1654.63142313     A.U. after   13 cycles
 SCF Done:  E(RB3LYP) =  -1654.63141329     A.U. after   13 cycles
 SCF Done:  E(RB3LYP) =  -1654.63178112     A.U. after   12 cycles
 SCF Done:  E(RB3LYP) =  -1654.63179054     A.U. after   12 cycles
 SCF Done:  E(RB3LYP) =  -1654.63179481     A.U. after   12 cycles
 SCF Done:  E(RB3LYP) =  -1654.63179909     A.U. after   11 cycles
 SCF Done:  E(RB3LYP) =  -1654.63179921     A.U. after    9 cycles
 Optimization completed.
    -- Stationary point found.

                         Standard orientation:
 ---------------------------------------------------------------------
 Center     Atomic      Atomic             Coordinates (Angstroms)
 Number     Number       Type             X           Y           Z
 ---------------------------------------------------------------------
      1          6           0        3.827510    0.346483    0.358490
      2          6           0        2.484630    0.787617    0.544641
      3          6           0        1.558501   -0.064976   -0.005403
      4          6           0        3.918900   -0.840278   -0.314485
      5         16           0        2.350008   -1.431327   -0.752833
      6          1           0        4.813135   -1.382306   -0.576782
      7          6           0        0.106915    0.027035    0.028258
      8         16           0       -0.692700    1.497359   -0.550070
      9          6           0       -2.261699    0.804155   -0.246087
     10          6           0       -2.138967   -0.491940    0.239291
     11          6           0       -0.799128   -0.937686    0.392269
     12          1           0       -0.503361   -1.905956    0.771859
     13         16           0       -3.709275   -1.184364    0.547262
     14          6           0       -4.488455    0.287615    0.014340
     15          6           0       -3.606412    1.254659   -0.373752
     16          1           0       -5.566423    0.341196    0.020080
     17          1           0       -3.906408    2.229098   -0.733164
     18          1           0        2.210223    1.685891    1.084589
     19          8           0        4.937161    1.006330    0.810291
     20          1           0        4.676261    1.838645    1.215962
 ---------------------------------------------------------------------

 The electronic state is 1-A.
 Alpha  occ. eigenvalues --  -88.88735 -88.88733 -88.88564 -19.16533 -10.24622
 Alpha  occ. eigenvalues --  -10.22760 -10.22620 -10.21514 -10.21456 -10.21346
 Alpha  occ. eigenvalues --  -10.19725 -10.19708 -10.19643 -10.19130  -7.97307
 Alpha  occ. eigenvalues --   -7.97304  -7.97151  -5.93623  -5.93619  -5.93454
 Alpha  occ. eigenvalues --   -5.93261  -5.93254  -5.93078  -5.92856  -5.92833
 Alpha  occ. eigenvalues --   -5.92726  -1.07528  -0.92038  -0.89443  -0.85263
 Alpha  occ. eigenvalues --   -0.77580  -0.76329  -0.74476  -0.71758  -0.70616
 Alpha  occ. eigenvalues --   -0.63160  -0.58757  -0.57918  -0.55570  -0.54614
 Alpha  occ. eigenvalues --   -0.53580  -0.50107  -0.48494  -0.44142  -0.43777
 Alpha  occ. eigenvalues --   -0.43314  -0.42042  -0.41790  -0.40175  -0.39761
 Alpha  occ. eigenvalues --   -0.38034  -0.37493  -0.36542  -0.35438  -0.34547
 Alpha  occ. eigenvalues --   -0.34015  -0.29467  -0.26479  -0.24461  -0.23778
 Alpha  occ. eigenvalues --   -0.21523
 Alpha virt. eigenvalues --   -0.05929  -0.02536  -0.01623  -0.00727  -0.00471
 Alpha virt. eigenvalues --    0.00170   0.00863   0.01520   0.01763   0.02206
 Alpha virt. eigenvalues --    0.03144   0.03475   0.03680   0.04075   0.04278

 Mulliken charges:
               1
     1  C   -0.569659
     2  C    0.055422
     3  C    0.193735
     4  C    0.257561
     5  S   -0.204848
     6  H    0.161012
     7  C    0.006867
     8  S   -0.496128
     9  C    0.200783
    10  C   -0.632234
    11  C    0.803522
    12  H    0.143105
    13  S   -0.384034
    14  C   -0.204888
    15  C    0.262087
    16  H    0.168331
    17  H    0.136236
    18  H    0.124492
    19  O   -0.273868
    20  H    0.252507
 Sum of Mulliken charges =  -0.00000

 Dipole moment (field-independent basis, Debye):
    X=             -1.0707    Y=              1.3296    Z=              0.7005  Tot=              1.8452
 Quadrupole moment (field-independent basis, Debye-Ang):
   XX=            -97.8270   YY=            -94.6664   ZZ=           -105.4003
   XY=              0.2221   XZ=              2.4502   YZ=              1.9583

 Normal termination of Gaussian 16 at Sun Oct 17 19:52:58 2021.
