 Gaussian 16, Revision C.01,
 Gaussian 16:  ES64L-G16RevC.01  3-Jul-2019

 -------------------------------------
 # opt=modredundant b3lyp/6-311+g(d,p)
 -------------------------------------

 ---------------
 pg2T_TT_-10.pdb
 ---------------
 Symbolic Z-matrix:
 Charge =  0 Multiplicity = 1

 SCF Done:  E(RB3LYP) =  -1654.46425460     A.U. after   17 cycles
 SCF Done:  E(RB3LYP) =  -1654.52898653     A.U. after   14 cycles
 SCF Done:  E(RB3LYP) =  -1654.60938534     A.U. after   15 cycles
 SCF Done:  E(RB3LYP) =  -1654.62383743     A.U. after   15 cycles
 SCF Done:  E(RB3LYP) =  -1654.63046299     A.U. after   16 cycles
 SCF Done:  E(RB3LYP) =  -1654.63180619     A.U. after   14 cycles
 SCF Done:  E(RB3LYP) =  -1654.63253611     A.U. after   13 cycles
 SCF Done:  E(RB3LYP) =  -1654.63267810     A.U. after   12 cycles
 SCF Done:  E(RB3LYP) =  -1654.63267029     A.U. after   12 cycles
 SCF Done:  E(RB3LYP) =  -1654.63270265     A.U. after   12 cycles
 SCF Done:  E(RB3LYP) =  -1654.63271647     A.U. after   11 cycles
 SCF Done:  E(RB3LYP) =  -1654.63271710     A.U. after   10 cycles
 SCF Done:  E(RB3LYP) =  -1654.63271733     A.U. after    9 cycles
 Optimization completed.
    -- Stationary point found.

                         Standard orientation:
 ---------------------------------------------------------------------
 Center     Atomic      Atomic             Coordinates (Angstroms)
 Number     Number       Type             X           Y           Z
 ---------------------------------------------------------------------
      1          6           0       -3.827852    0.419401    0.080430
      2          6           0       -2.485334    0.894685    0.115683
      3          6           0       -1.551290   -0.110164    0.004957
      4          6           0       -3.919072   -0.936819   -0.057780
      5         16           0       -2.346063   -1.661456   -0.159948
      6          1           0       -4.811005   -1.540014   -0.105374
      7          6           0       -0.107966   -0.004445   -0.007628
      8         16           0        0.660454    1.587475   -0.136046
      9          6           0        2.246103    0.868017   -0.057986
     10          6           0        2.152734   -0.513547    0.049205
     11          6           0        0.825370   -1.011145    0.082973
     12          1           0        0.561699   -2.055276    0.182397
     13         16           0        3.739762   -1.231417    0.126848
     14          6           0        4.484673    0.346523    0.011013
     15          6           0        3.578643    1.364762   -0.080559
     16          1           0        5.561440    0.419330    0.017310
     17          1           0        3.855432    2.406767   -0.159727
     18          1           0       -2.223973    1.939145    0.236346
     19          8           0       -4.938835    1.210062    0.180025
     20          1           0       -4.675420    2.132309    0.253340
 ---------------------------------------------------------------------

 The electronic state is 1-A.
 Alpha  occ. eigenvalues --  -88.88825 -88.88819 -88.88553 -19.16576 -10.24684
 Alpha  occ. eigenvalues --  -10.23043 -10.22881 -10.21644 -10.21586 -10.21405
 Alpha  occ. eigenvalues --  -10.19784 -10.19776 -10.19736 -10.19126  -7.97409
 Alpha  occ. eigenvalues --   -7.97392  -7.97153  -5.93736  -5.93704  -5.93466
 Alpha  occ. eigenvalues --   -5.93375  -5.93339  -5.93089  -5.92940  -5.92922
 Alpha  occ. eigenvalues --   -5.92708  -1.07588  -0.92182  -0.89512  -0.85365
 Alpha  occ. eigenvalues --   -0.77739  -0.76546  -0.74601  -0.71805  -0.70669
 Alpha  occ. eigenvalues --   -0.63360  -0.58954  -0.58067  -0.55822  -0.54847
 Alpha  occ. eigenvalues --   -0.53255  -0.50235  -0.48570  -0.44319  -0.43822
 Alpha  occ. eigenvalues --   -0.43316  -0.42027  -0.41904  -0.40157  -0.39839
 Alpha  occ. eigenvalues --   -0.38032  -0.37657  -0.37393  -0.35636  -0.34544
 Alpha  occ. eigenvalues --   -0.33946  -0.29635  -0.27186  -0.24518  -0.24190
 Alpha  occ. eigenvalues --   -0.20591
 Alpha virt. eigenvalues --   -0.06969  -0.01721  -0.01559  -0.00930  -0.00541
 Alpha virt. eigenvalues --    0.00784   0.01065   0.01675   0.01813   0.02207
 Alpha virt. eigenvalues --    0.02987   0.03262   0.04024   0.04124   0.04418

 Mulliken charges:
               1
     1  C   -0.672770
     2  C    0.852540
     3  C    0.055474
     4  C    0.322821
     5  S   -0.539106
     6  H    0.159148
     7  C   -0.078931
     8  S   -0.619798
     9  C    0.163816
    10  C    0.400261
    11  C    0.179834
    12  H    0.139290
    13  S   -0.418467
    14  C   -0.147179
    15  C   -0.198187
    16  H    0.168848
    17  H    0.135272
    18  H    0.118755
    19  O   -0.273751
    20  H    0.252128
 Sum of Mulliken charges =  -0.00000

 Dipole moment (field-independent basis, Debye):
    X=              1.1378    Y=              1.4925    Z=              0.1611  Tot=              1.8837
 Quadrupole moment (field-independent basis, Debye-Ang):
   XX=            -97.6655   YY=            -91.4993   ZZ=           -108.8281
   XY=             -0.4635   XZ=             -0.4031   YZ=              0.4066

 Normal termination of Gaussian 16 at Sun Oct 17 19:44:13 2021.
