 Gaussian 16, Revision C.01,
 Gaussian 16:  ES64L-G16RevC.01  3-Jul-2019

 -------------------------------------
 # opt=modredundant b3lyp/6-311+g(d,p)
 -------------------------------------

 --------------
 pg2T_TT_75.pdb
 --------------
 Symbolic Z-matrix:
 Charge =  0 Multiplicity = 1

 SCF Done:  E(RB3LYP) =  -1654.45979986     A.U. after   17 cycles
 SCF Done:  E(RB3LYP) =  -1654.52485213     A.U. after   14 cycles
 SCF Done:  E(RB3LYP) =  -1654.60569595     A.U. after   16 cycles
 SCF Done:  E(RB3LYP) =  -1654.62048476     A.U. after   15 cycles
 SCF Done:  E(RB3LYP) =  -1654.62734844     A.U. after   14 cycles
 SCF Done:  E(RB3LYP) =  -1654.62878289     A.U. after   14 cycles
 SCF Done:  E(RB3LYP) =  -1654.62953592     A.U. after   13 cycles
 SCF Done:  E(RB3LYP) =  -1654.62948034     A.U. after   13 cycles
 SCF Done:  E(RB3LYP) =  -1654.62988300     A.U. after   12 cycles
 SCF Done:  E(RB3LYP) =  -1654.62988807     A.U. after   12 cycles
 SCF Done:  E(RB3LYP) =  -1654.62989844     A.U. after   12 cycles
 SCF Done:  E(RB3LYP) =  -1654.62990301     A.U. after   11 cycles
 Optimization completed.
    -- Stationary point found.

                         Standard orientation:
 ---------------------------------------------------------------------
 Center     Atomic      Atomic             Coordinates (Angstroms)
 Number     Number       Type             X           Y           Z
 ---------------------------------------------------------------------
      1          6           0        3.825039    0.245300    0.498976
      2          6           0        2.475955    0.609300    0.785804
      3          6           0        1.563218   -0.050238    0.002240
      4          6           0        3.931989   -0.693131   -0.489427
      5         16           0        2.372907   -1.142576   -1.094898
      6          1           0        4.833590   -1.132155   -0.885581
      7          6           0        0.104262    0.034274    0.038395
      8         16           0       -0.713819    1.458719   -0.623664
      9          6           0       -2.273284    0.767633   -0.274811
     10          6           0       -2.135078   -0.491878    0.295168
     11          6           0       -0.788785   -0.913160    0.467117
     12          1           0       -0.478789   -1.857415    0.893164
     13         16           0       -3.696512   -1.181790    0.650605
     14          6           0       -4.493695    0.242444    0.023405
     15          6           0       -3.624296    1.192168   -0.429503
     16          1           0       -5.572245    0.283646    0.028329
     17          1           0       -3.936524    2.136946   -0.852120
     18          1           0        2.187269    1.322407    1.548793
     19          8           0        4.924997    0.751176    1.136293
     20          1           0        4.653546    1.431244    1.760192
 ---------------------------------------------------------------------

 The electronic state is 1-A.
 Alpha  occ. eigenvalues --  -88.88718 -88.88643 -88.88492 -19.16504 -10.24560
 Alpha  occ. eigenvalues --  -10.22627 -10.22494 -10.21472 -10.21401 -10.21344
 Alpha  occ. eigenvalues --  -10.19744 -10.19708 -10.19618 -10.19172  -7.97292
 Alpha  occ. eigenvalues --   -7.97209  -7.97077  -5.93604  -5.93526  -5.93376
 Alpha  occ. eigenvalues --   -5.93239  -5.93162  -5.93000  -5.92841  -5.92744
 Alpha  occ. eigenvalues --   -5.92658  -1.07486  -0.91975  -0.89378  -0.85215
 Alpha  occ. eigenvalues --   -0.77521  -0.76208  -0.74385  -0.71738  -0.70611
 Alpha  occ. eigenvalues --   -0.63053  -0.58678  -0.57849  -0.55440  -0.54470
 Alpha  occ. eigenvalues --   -0.53837  -0.50074  -0.48459  -0.44040  -0.43701
 Alpha  occ. eigenvalues --   -0.43363  -0.42056  -0.41739  -0.40181  -0.39743
 Alpha  occ. eigenvalues --   -0.37968  -0.37421  -0.36302  -0.35284  -0.34502
 Alpha  occ. eigenvalues --   -0.34004  -0.29396  -0.26119  -0.24344  -0.23331
 Alpha  occ. eigenvalues --   -0.22281
 Alpha virt. eigenvalues --   -0.05242  -0.03379  -0.01584  -0.00677  -0.00402
 Alpha virt. eigenvalues --   -0.00010   0.00816   0.01553   0.01742   0.02229
 Alpha virt. eigenvalues --    0.03069   0.03332   0.03818   0.04070   0.04329

 Mulliken charges:
               1
     1  C   -0.505241
     2  C   -0.048274
     3  C    0.132340
     4  C    0.234112
     5  S   -0.122541
     6  H    0.160763
     7  C    0.003805
     8  S   -0.462172
     9  C    0.192691
    10  C   -0.536979
    11  C    0.655821
    12  H    0.140180
    13  S   -0.375527
    14  C   -0.208239
    15  C    0.335124
    16  H    0.168347
    17  H    0.136438
    18  H    0.122952
    19  O   -0.277724
    20  H    0.254124
 Sum of Mulliken charges =  -0.00000

 Dipole moment (field-independent basis, Debye):
    X=             -1.0870    Y=              1.0709    Z=              1.0304  Tot=              1.8413
 Quadrupole moment (field-independent basis, Debye-Ang):
   XX=            -97.9242   YY=            -97.8262   ZZ=           -102.1355
   XY=             -0.2805   XZ=              3.4604   YZ=              2.4175

 Normal termination of Gaussian 16 at Sun Oct 17 19:50:22 2021.
