 Gaussian 16, Revision C.01,
 Gaussian 16:  ES64L-G16RevC.01  3-Jul-2019

 -------------------------------------
 # opt=modredundant b3lyp/6-311+g(d,p)
 -------------------------------------

 ---------------
 pg2T_TT_180.pdb
 ---------------
 Symbolic Z-matrix:
 Charge =  0 Multiplicity = 1

 SCF Done:  E(RB3LYP) =  -1654.46206007     A.U. after   17 cycles
 SCF Done:  E(RB3LYP) =  -1654.52681576     A.U. after   15 cycles
 SCF Done:  E(RB3LYP) =  -1654.60727905     A.U. after   15 cycles
 SCF Done:  E(RB3LYP) =  -1654.62183167     A.U. after   15 cycles
 SCF Done:  E(RB3LYP) =  -1654.62838716     A.U. after   14 cycles
 SCF Done:  E(RB3LYP) =  -1654.62976751     A.U. after   14 cycles
 SCF Done:  E(RB3LYP) =  -1654.63051233     A.U. after   12 cycles
 SCF Done:  E(RB3LYP) =  -1654.63053682     A.U. after   12 cycles
 SCF Done:  E(RB3LYP) =  -1654.63070726     A.U. after   12 cycles
 SCF Done:  E(RB3LYP) =  -1654.63073261     A.U. after   11 cycles
 SCF Done:  E(RB3LYP) =  -1654.63073383     A.U. after   10 cycles
 SCF Done:  E(RB3LYP) =  -1654.63073545     A.U. after   10 cycles
 SCF Done:  E(RB3LYP) =  -1654.63073562     A.U. after    9 cycles
 SCF Done:  E(RB3LYP) =  -1654.63073564     A.U. after    8 cycles
 Optimization completed.
    -- Stationary point found.

                         Standard orientation:
 ---------------------------------------------------------------------
 Center     Atomic      Atomic             Coordinates (Angstroms)
 Number     Number       Type             X           Y           Z
 ---------------------------------------------------------------------
      1          6           0        3.760638    0.789467   -0.000107
      2          6           0        2.375548    1.115593   -0.000401
      3          6           0        1.556761    0.007139   -0.000225
      4          6           0        4.002186   -0.556303    0.000163
      5         16           0        2.519588   -1.453216    0.000239
      6          1           0        4.954906   -1.059997    0.000273
      7          6           0        0.107312   -0.022924   -0.000111
      8         16           0       -0.778623   -1.556698   -0.000158
      9          6           0       -2.305385   -0.718910   -0.000054
     10          6           0       -2.109829    0.656259    0.000153
     11          6           0       -0.750058    1.054849    0.000139
     12          1           0       -0.412781    2.081698    0.000308
     13         16           0       -3.640211    1.493012    0.000091
     14          6           0       -4.499645   -0.030804    0.000209
     15          6           0       -3.671097   -1.116558   -0.000282
     16          1           0       -5.578846   -0.023499    0.000481
     17          1           0       -4.023690   -2.138474   -0.000472
     18          1           0        2.003454    2.132567   -0.000559
     19          8           0        4.778778    1.702266    0.000196
     20          1           0        4.416093    2.593144   -0.001242
 ---------------------------------------------------------------------

 The electronic state is 1-A.
 Alpha  occ. eigenvalues --  -88.88810 -88.88801 -88.88617 -19.16597 -10.24694
 Alpha  occ. eigenvalues --  -10.23070 -10.22908 -10.21627 -10.21565 -10.21384
 Alpha  occ. eigenvalues --  -10.19782 -10.19758 -10.19710 -10.19087  -7.97387
 Alpha  occ. eigenvalues --   -7.97384  -7.97221  -5.93711  -5.93697  -5.93530
 Alpha  occ. eigenvalues --   -5.93350  -5.93332  -5.93153  -5.92930  -5.92902
 Alpha  occ. eigenvalues --   -5.92783  -1.07607  -0.92174  -0.89533  -0.85348
 Alpha  occ. eigenvalues --   -0.77831  -0.76390  -0.74652  -0.71786  -0.70650
 Alpha  occ. eigenvalues --   -0.63358  -0.59131  -0.57921  -0.55286  -0.54983
 Alpha  occ. eigenvalues --   -0.53708  -0.50342  -0.48601  -0.44243  -0.43783
 Alpha  occ. eigenvalues --   -0.43315  -0.42026  -0.41470  -0.40516  -0.39491
 Alpha  occ. eigenvalues --   -0.38212  -0.37598  -0.37522  -0.35930  -0.34302
 Alpha  occ. eigenvalues --   -0.33891  -0.29763  -0.27069  -0.24883  -0.23797
 Alpha  occ. eigenvalues --   -0.20549
 Alpha virt. eigenvalues --   -0.07020  -0.02533  -0.01497  -0.00996  -0.00435
 Alpha virt. eigenvalues --    0.00478   0.01476   0.01748   0.01984   0.02621
 Alpha virt. eigenvalues --    0.02838   0.03353   0.03981   0.04220   0.04859

 Mulliken charges:
               1
     1  C   -0.704923
     2  C    0.905310
     3  C    0.037051
     4  C    0.368982
     5  S   -0.529198
     6  H    0.157668
     7  C   -0.256107
     8  S   -0.612980
     9  C    0.276414
    10  C    0.301143
    11  C    0.202773
    12  H    0.123595
    13  S   -0.410712
    14  C   -0.152659
    15  C   -0.101061
    16  H    0.169074
    17  H    0.135768
    18  H    0.109018
    19  O   -0.271513
    20  H    0.252358
 Sum of Mulliken charges =  -0.00000

 Dipole moment (field-independent basis, Debye):
    X=             -1.2664    Y=              1.3691    Z=             -0.0022  Tot=              1.8650
 Quadrupole moment (field-independent basis, Debye-Ang):
   XX=            -98.0971   YY=            -91.1626   ZZ=           -108.9547
   XY=              5.6151   XZ=             -0.0110   YZ=             -0.0076

 Normal termination of Gaussian 16 at Sun Oct 17 20:01:08 2021.
