 Gaussian 16, Revision C.01,
 Gaussian 16:  ES64L-G16RevC.01  3-Jul-2019

 -------------------------------------
 # opt=modredundant b3lyp/6-311+g(d,p)
 -------------------------------------

 --------------
 pg2T_TT_25.pdb
 --------------
 Symbolic Z-matrix:
 Charge =  0 Multiplicity = 1

 SCF Done:  E(RB3LYP) =  -1654.46340224     A.U. after   17 cycles
 SCF Done:  E(RB3LYP) =  -1654.52832310     A.U. after   14 cycles
 SCF Done:  E(RB3LYP) =  -1654.60907326     A.U. after   15 cycles
 SCF Done:  E(RB3LYP) =  -1654.62384652     A.U. after   15 cycles
 SCF Done:  E(RB3LYP) =  -1654.63067922     A.U. after   17 cycles
 SCF Done:  E(RB3LYP) =  -1654.63208622     A.U. after   14 cycles
 SCF Done:  E(RB3LYP) =  -1654.63277060     A.U. after   13 cycles
 SCF Done:  E(RB3LYP) =  -1654.63274083     A.U. after   13 cycles
 SCF Done:  E(RB3LYP) =  -1654.63300511     A.U. after   13 cycles
 SCF Done:  E(RB3LYP) =  -1654.63301971     A.U. after   11 cycles
 SCF Done:  E(RB3LYP) =  -1654.63302054     A.U. after   11 cycles
 SCF Done:  E(RB3LYP) =  -1654.63302327     A.U. after   11 cycles
 SCF Done:  E(RB3LYP) =  -1654.63302349     A.U. after   10 cycles
 Optimization completed.
    -- Stationary point found.

                         Standard orientation:
 ---------------------------------------------------------------------
 Center     Atomic      Atomic             Coordinates (Angstroms)
 Number     Number       Type             X           Y           Z
 ---------------------------------------------------------------------
      1          6           0       -3.824101    0.409529   -0.183337
      2          6           0       -2.480083    0.875441   -0.265883
      3          6           0       -1.551952   -0.105504   -0.002768
      4          6           0       -3.919980   -0.915457    0.137939
      5         16           0       -2.350548   -1.616899    0.368797
      6          1           0       -4.814559   -1.505518    0.253509
      7          6           0       -0.107371   -0.004786    0.004916
      8         16           0        0.664128    1.561120    0.304716
      9          6           0        2.247362    0.853072    0.132315
     10          6           0        2.150105   -0.509961   -0.117640
     11          6           0        0.820828   -0.999218   -0.196410
     12          1           0        0.550111   -2.023140   -0.414788
     13         16           0        3.734654   -1.216974   -0.288934
     14          6           0        4.484148    0.339616   -0.017832
     15          6           0        3.581654    1.343451    0.190117
     16          1           0        5.560969    0.411413   -0.027933
     17          1           0        3.861631    2.371165    0.374771
     18          1           0       -2.210463    1.888291   -0.539978
     19          8           0       -4.932110    1.177689   -0.411245
     20          1           0       -4.666250    2.083238   -0.597386
 ---------------------------------------------------------------------

 The electronic state is 1-A.
 Alpha  occ. eigenvalues --  -88.88818 -88.88793 -88.88567 -19.16567 -10.24673
 Alpha  occ. eigenvalues --  -10.22964 -10.22808 -10.21609 -10.21553 -10.21387
 Alpha  occ. eigenvalues --  -10.19761 -10.19744 -10.19710 -10.19108  -7.97397
 Alpha  occ. eigenvalues --   -7.97366  -7.97162  -5.93721  -5.93679  -5.93472
 Alpha  occ. eigenvalues --   -5.93360  -5.93313  -5.93095  -5.92915  -5.92915
 Alpha  occ. eigenvalues --   -5.92723  -1.07574  -0.92148  -0.89499  -0.85343
 Alpha  occ. eigenvalues --   -0.77696  -0.76497  -0.74570  -0.71797  -0.70650
 Alpha  occ. eigenvalues --   -0.63312  -0.58899  -0.58026  -0.55752  -0.54783
 Alpha  occ. eigenvalues --   -0.53324  -0.50197  -0.48553  -0.44276  -0.43819
 Alpha  occ. eigenvalues --   -0.43295  -0.42023  -0.41892  -0.40152  -0.39823
 Alpha  occ. eigenvalues --   -0.38096  -0.37613  -0.37063  -0.35624  -0.34572
 Alpha  occ. eigenvalues --   -0.33970  -0.29593  -0.26998  -0.24474  -0.24165
 Alpha  occ. eigenvalues --   -0.20797
 Alpha virt. eigenvalues --   -0.06722  -0.01856  -0.01556  -0.00871  -0.00514
 Alpha virt. eigenvalues --    0.00643   0.00998   0.01581   0.01780   0.02195
 Alpha virt. eigenvalues --    0.03077   0.03368   0.03897   0.04036   0.04365

 Mulliken charges:
               1
     1  C   -0.710641
     2  C    0.632365
     3  C    0.140382
     4  C    0.374619
     5  S   -0.470549
     6  H    0.159256
     7  C    0.093685
     8  S   -0.567011
     9  C    0.334654
    10  C    0.227990
    11  C    0.035436
    12  H    0.141105
    13  S   -0.409469
    14  C   -0.135082
    15  C   -0.251657
    16  H    0.168674
    17  H    0.135896
    18  H    0.121949
    19  O   -0.273589
    20  H    0.251986
 Sum of Mulliken charges =  -0.00000

 Dipole moment (field-independent basis, Debye):
    X=              1.1211    Y=              1.4694    Z=             -0.3712  Tot=              1.8852
 Quadrupole moment (field-independent basis, Debye-Ang):
   XX=            -97.7506   YY=            -92.1451   ZZ=           -108.0969
   XY=             -0.3413   XZ=              1.0872   YZ=             -0.9815

 Normal termination of Gaussian 16 at Sun Oct 17 19:45:42 2021.
