 Gaussian 16, Revision C.01,
 Gaussian 16:  ES64L-G16RevC.01  3-Jul-2019

 -------------------------------------
 # opt=modredundant b3lyp/6-311+g(d,p)
 -------------------------------------

 ---------------
 pg2T_TT_-70.pdb
 ---------------
 Symbolic Z-matrix:
 Charge =  0 Multiplicity = 1

 SCF Done:  E(RB3LYP) =  -1654.46036822     A.U. after   16 cycles
 SCF Done:  E(RB3LYP) =  -1654.52539523     A.U. after   14 cycles
 SCF Done:  E(RB3LYP) =  -1654.60618216     A.U. after   15 cycles
 SCF Done:  E(RB3LYP) =  -1654.62116822     A.U. after   15 cycles
 SCF Done:  E(RB3LYP) =  -1654.62800798     A.U. after   14 cycles
 SCF Done:  E(RB3LYP) =  -1654.62940991     A.U. after   14 cycles
 SCF Done:  E(RB3LYP) =  -1654.63012002     A.U. after   13 cycles
 SCF Done:  E(RB3LYP) =  -1654.63006326     A.U. after   13 cycles
 SCF Done:  E(RB3LYP) =  -1654.63032102     A.U. after   12 cycles
 SCF Done:  E(RB3LYP) =  -1654.63032799     A.U. after   12 cycles
 SCF Done:  E(RB3LYP) =  -1654.63034627     A.U. after   12 cycles
 SCF Done:  E(RB3LYP) =  -1654.63034818     A.U. after   10 cycles
 SCF Done:  E(RB3LYP) =  -1654.63034834     A.U. after    9 cycles
 Optimization completed.
    -- Stationary point found.

                         Standard orientation:
 ---------------------------------------------------------------------
 Center     Atomic      Atomic             Coordinates (Angstroms)
 Number     Number       Type             X           Y           Z
 ---------------------------------------------------------------------
      1          6           0       -3.827944    0.280947    0.457489
      2          6           0       -2.482217    0.677060    0.715218
      3          6           0       -1.562411   -0.048900    0.000822
      4          6           0       -3.925723   -0.748391   -0.437138
      5         16           0       -2.361457   -1.244650   -0.991130
      6          1           0       -4.823312   -1.227370   -0.794089
      7          6           0       -0.105339    0.038438    0.039741
      8         16           0        0.709763    1.463594   -0.624551
      9          6           0        2.270861    0.774412   -0.278170
     10          6           0        2.135130   -0.486820    0.288577
     11          6           0        0.789922   -0.909853    0.463316
     12          1           0        0.482414   -1.854228    0.890859
     13         16           0        3.698059   -1.174895    0.641138
     14          6           0        4.492343    0.252238    0.016780
     15          6           0        3.620868    1.201921   -0.432413
     16          1           0        5.570832    0.295045    0.020245
     17          1           0        3.931112    2.148497   -0.852453
     18          1           0       -2.201051    1.457445    1.412023
     19          8           0       -4.933323    0.839098    1.039249
     20          1           0       -4.668181    1.576752    1.596783
 ---------------------------------------------------------------------

 The electronic state is 1-A.
 Alpha  occ. eigenvalues --  -88.88720 -88.88665 -88.88515 -19.16510 -10.24577
 Alpha  occ. eigenvalues --  -10.22656 -10.22524 -10.21479 -10.21412 -10.21343
 Alpha  occ. eigenvalues --  -10.19731 -10.19712 -10.19622 -10.19161  -7.97293
 Alpha  occ. eigenvalues --   -7.97231  -7.97099  -5.93606  -5.93548  -5.93400
 Alpha  occ. eigenvalues --   -5.93240  -5.93185  -5.93024  -5.92843  -5.92765
 Alpha  occ. eigenvalues --   -5.92680  -1.07496  -0.91987  -0.89393  -0.85224
 Alpha  occ. eigenvalues --   -0.77532  -0.76234  -0.74409  -0.71741  -0.70610
 Alpha  occ. eigenvalues --   -0.63076  -0.58692  -0.57866  -0.55474  -0.54510
 Alpha  occ. eigenvalues --   -0.53765  -0.50079  -0.48465  -0.44063  -0.43723
 Alpha  occ. eigenvalues --   -0.43351  -0.42052  -0.41747  -0.40181  -0.39743
 Alpha  occ. eigenvalues --   -0.37981  -0.37436  -0.36357  -0.35315  -0.34510
 Alpha  occ. eigenvalues --   -0.34009  -0.29410  -0.26199  -0.24387  -0.23460
 Alpha  occ. eigenvalues --   -0.22067
 Alpha virt. eigenvalues --   -0.05424  -0.03157  -0.01597  -0.00685  -0.00423
 Alpha virt. eigenvalues --    0.00021   0.00826   0.01543   0.01746   0.02224
 Alpha virt. eigenvalues --    0.03096   0.03371   0.03774   0.04080   0.04303

 Mulliken charges:
               1
     1  C   -0.496511
     2  C   -0.051598
     3  C    0.130028
     4  C    0.219911
     5  S   -0.126929
     6  H    0.161029
     7  C    0.037948
     8  S   -0.456761
     9  C    0.193230
    10  C   -0.552369
    11  C    0.671371
    12  H    0.141171
    13  S   -0.377050
    14  C   -0.206086
    15  C    0.307457
    16  H    0.168325
    17  H    0.136388
    18  H    0.123721
    19  O   -0.276908
    20  H    0.253634
 Sum of Mulliken charges =  -0.00000

 Dipole moment (field-independent basis, Debye):
    X=              1.0753    Y=              1.1630    Z=              0.9265  Tot=              1.8351
 Quadrupole moment (field-independent basis, Debye-Ang):
   XX=            -97.8743   YY=            -96.8576   ZZ=           -103.1315
   XY=              0.0400   XZ=             -3.2361   YZ=              2.3621

 Normal termination of Gaussian 16 at Sun Oct 17 19:42:51 2021.
