 Gaussian 16, Revision C.01,
 Gaussian 16:  ES64L-G16RevC.01  3-Jul-2019

 -------------------------------------
 # opt=modredundant b3lyp/6-311+g(d,p)
 -------------------------------------

 ---------------
 pg2T_TT_155.pdb
 ---------------
 Symbolic Z-matrix:
 Charge =  0 Multiplicity = 1

 SCF Done:  E(RB3LYP) =  -1654.46274072     A.U. after   17 cycles
 SCF Done:  E(RB3LYP) =  -1654.52756859     A.U. after   14 cycles
 SCF Done:  E(RB3LYP) =  -1654.60814325     A.U. after   15 cycles
 SCF Done:  E(RB3LYP) =  -1654.62279104     A.U. after   15 cycles
 SCF Done:  E(RB3LYP) =  -1654.62940123     A.U. after   14 cycles
 SCF Done:  E(RB3LYP) =  -1654.63078710     A.U. after   14 cycles
 SCF Done:  E(RB3LYP) =  -1654.63148311     A.U. after   13 cycles
 SCF Done:  E(RB3LYP) =  -1654.63151267     A.U. after   13 cycles
 SCF Done:  E(RB3LYP) =  -1654.63163924     A.U. after   12 cycles
 SCF Done:  E(RB3LYP) =  -1654.63167524     A.U. after   11 cycles
 SCF Done:  E(RB3LYP) =  -1654.63167897     A.U. after   11 cycles
 SCF Done:  E(RB3LYP) =  -1654.63168131     A.U. after   10 cycles
 SCF Done:  E(RB3LYP) =  -1654.63168148     A.U. after    9 cycles
 Optimization completed.
    -- Stationary point found.

                         Standard orientation:
 ---------------------------------------------------------------------
 Center     Atomic      Atomic             Coordinates (Angstroms)
 Number     Number       Type             X           Y           Z
 ---------------------------------------------------------------------
      1          6           0        3.762394    0.765203   -0.115515
      2          6           0        2.380037    1.075656   -0.260228
      3          6           0        1.556668    0.001166   -0.011107
      4          6           0        3.992424   -0.535825    0.236298
      5         16           0        2.503962   -1.404642    0.419316
      6          1           0        4.941816   -1.021865    0.391613
      7          6           0        0.107443   -0.023065   -0.024602
      8         16           0       -0.775014   -1.526674   -0.332715
      9          6           0       -2.302192   -0.704574   -0.169954
     10          6           0       -2.107507    0.646755    0.087100
     11          6           0       -0.746769    1.035908    0.179337
     12          1           0       -0.402809    2.032876    0.416484
     13         16           0       -3.637910    1.466642    0.251784
     14          6           0       -4.496955   -0.030388   -0.032762
     15          6           0       -3.668462   -1.096099   -0.239045
     16          1           0       -5.576181   -0.023649   -0.029655
     17          1           0       -4.020938   -2.100167   -0.429510
     18          1           0        2.010021    2.044800   -0.571482
     19          8           0        4.787176    1.648410   -0.315645
     20          1           0        4.431600    2.507088   -0.563575
 ---------------------------------------------------------------------

 The electronic state is 1-A.
 Alpha  occ. eigenvalues --  -88.88791 -88.88777 -88.88586 -19.16594 -10.24680
 Alpha  occ. eigenvalues --  -10.22948 -10.22791 -10.21593 -10.21529 -10.21372
 Alpha  occ. eigenvalues --  -10.19763 -10.19743 -10.19685 -10.19099  -7.97365
 Alpha  occ. eigenvalues --   -7.97356  -7.97183  -5.93678  -5.93678  -5.93490
 Alpha  occ. eigenvalues --   -5.93316  -5.93313  -5.93113  -5.92912  -5.92877
 Alpha  occ. eigenvalues --   -5.92749  -1.07595  -0.92133  -0.89499  -0.85322
 Alpha  occ. eigenvalues --   -0.77772  -0.76355  -0.74593  -0.71783  -0.70631
 Alpha  occ. eigenvalues --   -0.63302  -0.59053  -0.57868  -0.55230  -0.54880
 Alpha  occ. eigenvalues --   -0.53796  -0.50277  -0.48580  -0.44176  -0.43807
 Alpha  occ. eigenvalues --   -0.43256  -0.42021  -0.41521  -0.40467  -0.39610
 Alpha  occ. eigenvalues --   -0.38145  -0.37668  -0.37000  -0.35833  -0.34445
 Alpha  occ. eigenvalues --   -0.33925  -0.29627  -0.26887  -0.24702  -0.23907
 Alpha  occ. eigenvalues --   -0.20825
 Alpha virt. eigenvalues --   -0.06674  -0.02368  -0.01610  -0.00892  -0.00403
 Alpha virt. eigenvalues --    0.00454   0.01284   0.01636   0.01786   0.02675
 Alpha virt. eigenvalues --    0.02860   0.03278   0.04062   0.04214   0.04613

 Mulliken charges:
               1
     1  C   -0.674315
     2  C    0.527696
     3  C    0.161697
     4  C    0.378104
     5  S   -0.427235
     6  H    0.158378
     7  C    0.148020
     8  S   -0.520650
     9  C    0.349851
    10  C    0.213971
    11  C   -0.040403
    12  H    0.129415
    13  S   -0.402922
    14  C   -0.136474
    15  C   -0.266035
    16  H    0.168742
    17  H    0.136485
    18  H    0.115579
    19  O   -0.271698
    20  H    0.251795
 Sum of Mulliken charges =  -0.00000

 Dipole moment (field-independent basis, Debye):
    X=             -1.2417    Y=              1.3242    Z=             -0.3797  Tot=              1.8546
 Quadrupole moment (field-independent basis, Debye-Ang):
   XX=            -98.0569   YY=            -92.2134   ZZ=           -107.8930
   XY=              5.5560   XZ=             -0.1761   YZ=             -1.3078

 Normal termination of Gaussian 16 at Sun Oct 17 20:03:30 2021.
