 Gaussian 16, Revision C.01,
 Gaussian 16:  ES64L-G16RevC.01  3-Jul-2019

 -------------------------------------
 # opt=modredundant b3lyp/6-311+g(d,p)
 -------------------------------------

 --------------
 pg2T_TT_-5.pdb
 --------------
 Symbolic Z-matrix:
 Charge =  0 Multiplicity = 1

 SCF Done:  E(RB3LYP) =  -1654.46408730     A.U. after   17 cycles
 SCF Done:  E(RB3LYP) =  -1654.52883664     A.U. after   14 cycles
 SCF Done:  E(RB3LYP) =  -1654.60925756     A.U. after   15 cycles
 SCF Done:  E(RB3LYP) =  -1654.62371613     A.U. after   15 cycles
 SCF Done:  E(RB3LYP) =  -1654.63035713     A.U. after   15 cycles
 SCF Done:  E(RB3LYP) =  -1654.63170303     A.U. after   14 cycles
 SCF Done:  E(RB3LYP) =  -1654.63243501     A.U. after   13 cycles
 SCF Done:  E(RB3LYP) =  -1654.63257922     A.U. after   12 cycles
 SCF Done:  E(RB3LYP) =  -1654.63257901     A.U. after   12 cycles
 SCF Done:  E(RB3LYP) =  -1654.63260128     A.U. after   12 cycles
 SCF Done:  E(RB3LYP) =  -1654.63261505     A.U. after   11 cycles
 SCF Done:  E(RB3LYP) =  -1654.63261539     A.U. after   10 cycles
 SCF Done:  E(RB3LYP) =  -1654.63261563     A.U. after    9 cycles
 Optimization completed.
    -- Stationary point found.

                         Standard orientation:
 ---------------------------------------------------------------------
 Center     Atomic      Atomic             Coordinates (Angstroms)
 Number     Number       Type             X           Y           Z
 ---------------------------------------------------------------------
      1          6           0       -3.829004    0.420521    0.041219
      2          6           0       -2.486937    0.897931    0.059375
      3          6           0       -1.551347   -0.110103    0.003191
      4          6           0       -3.918742   -0.940884   -0.029431
      5         16           0       -2.344726   -1.668870   -0.081618
      6          1           0       -4.809945   -1.546526   -0.053564
      7          6           0       -0.108126   -0.003325   -0.004671
      8         16           0        0.660328    1.592750   -0.069930
      9          6           0        2.246216    0.870672   -0.029707
     10          6           0        2.153076   -0.513914    0.024677
     11          6           0        0.825896   -1.012504    0.041851
     12          1           0        0.563368   -2.060416    0.093039
     13         16           0        3.740339   -1.234332    0.064982
     14          6           0        4.484967    0.346890    0.006075
     15          6           0        3.578624    1.367948   -0.040755
     16          1           0        5.561762    0.419425    0.009538
     17          1           0        3.855192    2.412240   -0.080944
     18          1           0       -2.227678    1.948059    0.121067
     19          8           0       -4.940908    1.214493    0.092006
     20          1           0       -4.678234    2.139116    0.128931
 ---------------------------------------------------------------------

 The electronic state is 1-A.
 Alpha  occ. eigenvalues --  -88.88826 -88.88824 -88.88551 -19.16577 -10.24686
 Alpha  occ. eigenvalues --  -10.23058 -10.22895 -10.21650 -10.21591 -10.21408
 Alpha  occ. eigenvalues --  -10.19788 -10.19783 -10.19740 -10.19133  -7.97410
 Alpha  occ. eigenvalues --   -7.97396  -7.97152  -5.93737  -5.93709  -5.93466
 Alpha  occ. eigenvalues --   -5.93376  -5.93343  -5.93088  -5.92945  -5.92922
 Alpha  occ. eigenvalues --   -5.92706  -1.07590  -0.92188  -0.89515  -0.85368
 Alpha  occ. eigenvalues --   -0.77747  -0.76555  -0.74607  -0.71807  -0.70674
 Alpha  occ. eigenvalues --   -0.63368  -0.58965  -0.58075  -0.55836  -0.54859
 Alpha  occ. eigenvalues --   -0.53243  -0.50242  -0.48573  -0.44327  -0.43821
 Alpha  occ. eigenvalues --   -0.43322  -0.42029  -0.41904  -0.40160  -0.39842
 Alpha  occ. eigenvalues --   -0.37991  -0.37665  -0.37485  -0.35636  -0.34536
 Alpha  occ. eigenvalues --   -0.33942  -0.29642  -0.27222  -0.24531  -0.24185
 Alpha  occ. eigenvalues --   -0.20556
 Alpha virt. eigenvalues --   -0.07012  -0.01686  -0.01578  -0.00941  -0.00547
 Alpha virt. eigenvalues --    0.00804   0.01073   0.01689   0.01836   0.02212
 Alpha virt. eigenvalues --    0.02964   0.03241   0.04038   0.04150   0.04452

 Mulliken charges:
               1
     1  C   -0.656685
     2  C    0.867813
     3  C    0.064717
     4  C    0.293679
     5  S   -0.547954
     6  H    0.159485
     7  C   -0.098607
     8  S   -0.626538
     9  C    0.100694
    10  C    0.448653
    11  C    0.201437
    12  H    0.139129
    13  S   -0.422790
    14  C   -0.160197
    15  C   -0.163472
    16  H    0.168961
    17  H    0.135095
    18  H    0.117964
    19  O   -0.273573
    20  H    0.252188
 Sum of Mulliken charges =  -0.00000

 Dipole moment (field-independent basis, Debye):
    X=              1.1404    Y=              1.4950    Z=              0.0828  Tot=              1.8821
 Quadrupole moment (field-independent basis, Debye-Ang):
   XX=            -97.6585   YY=            -91.3897   ZZ=           -108.9493
   XY=             -0.4890   XZ=             -0.1994   YZ=              0.2072

 Normal termination of Gaussian 16 at Sun Oct 17 19:44:15 2021.
