 Gaussian 16, Revision C.01,
 Gaussian 16:  ES64L-G16RevC.01  3-Jul-2019

 -------------------------------------
 # opt=modredundant b3lyp/6-311+g(d,p)
 -------------------------------------

 --------------
 pg2T_TT_20.pdb
 --------------
 Symbolic Z-matrix:
 Charge =  0 Multiplicity = 1

 SCF Done:  E(RB3LYP) =  -1654.46361139     A.U. after   17 cycles
 SCF Done:  E(RB3LYP) =  -1654.52847393     A.U. after   14 cycles
 SCF Done:  E(RB3LYP) =  -1654.60912714     A.U. after   16 cycles
 SCF Done:  E(RB3LYP) =  -1654.62383181     A.U. after   15 cycles
 SCF Done:  E(RB3LYP) =  -1654.63063314     A.U. after   17 cycles
 SCF Done:  E(RB3LYP) =  -1654.63198959     A.U. after   13 cycles
 SCF Done:  E(RB3LYP) =  -1654.63272067     A.U. after   13 cycles
 SCF Done:  E(RB3LYP) =  -1654.63270711     A.U. after   13 cycles
 SCF Done:  E(RB3LYP) =  -1654.63293044     A.U. after   13 cycles
 SCF Done:  E(RB3LYP) =  -1654.63295138     A.U. after   11 cycles
 SCF Done:  E(RB3LYP) =  -1654.63295150     A.U. after   11 cycles
 SCF Done:  E(RB3LYP) =  -1654.63295413     A.U. after   11 cycles
 SCF Done:  E(RB3LYP) =  -1654.63295431     A.U. after   10 cycles
 Optimization completed.
    -- Stationary point found.

                         Standard orientation:
 ---------------------------------------------------------------------
 Center     Atomic      Atomic             Coordinates (Angstroms)
 Number     Number       Type             X           Y           Z
 ---------------------------------------------------------------------
      1          6           0       -3.825126    0.414076   -0.150929
      2          6           0       -2.481520    0.883297   -0.218125
      3          6           0       -1.551532   -0.108154   -0.004443
      4          6           0       -3.919773   -0.923700    0.111642
      5         16           0       -2.349258   -1.635083    0.302502
      6          1           0       -4.813569   -1.518866    0.204639
      7          6           0       -0.107550   -0.005637    0.007610
      8         16           0        0.662185    1.570981    0.252810
      9          6           0        2.246551    0.858998    0.108989
     10          6           0        2.151243   -0.511607   -0.095661
     11          6           0        0.822866   -1.004621   -0.160096
     12          1           0        0.554990   -2.036293   -0.342776
     13         16           0        3.736964   -1.222371   -0.238138
     14          6           0        4.484169    0.343152   -0.016687
     15          6           0        3.579992    1.352439    0.155011
     16          1           0        5.560933    0.415779   -0.026257
     17          1           0        3.858401    2.386036    0.306133
     18          1           0       -2.214557    1.908604   -0.444461
     19          8           0       -4.933953    1.191795   -0.338617
     20          1           0       -4.668746    2.104484   -0.486993
 ---------------------------------------------------------------------

 The electronic state is 1-A.
 Alpha  occ. eigenvalues --  -88.88823 -88.88803 -88.88561 -19.16570 -10.24677
 Alpha  occ. eigenvalues --  -10.22993 -10.22836 -10.21623 -10.21566 -10.21394
 Alpha  occ. eigenvalues --  -10.19769 -10.19755 -10.19720 -10.19113  -7.97404
 Alpha  occ. eigenvalues --   -7.97376  -7.97158  -5.93728  -5.93689  -5.93470
 Alpha  occ. eigenvalues --   -5.93367  -5.93323  -5.93092  -5.92925  -5.92920
 Alpha  occ. eigenvalues --   -5.92717  -1.07579  -0.92162  -0.89504  -0.85352
 Alpha  occ. eigenvalues --   -0.77713  -0.76517  -0.74581  -0.71801  -0.70657
 Alpha  occ. eigenvalues --   -0.63331  -0.58919  -0.58042  -0.55779  -0.54807
 Alpha  occ. eigenvalues --   -0.53296  -0.50211  -0.48560  -0.44293  -0.43821
 Alpha  occ. eigenvalues --   -0.43301  -0.42022  -0.41899  -0.40152  -0.39830
 Alpha  occ. eigenvalues --   -0.38088  -0.37629  -0.37173  -0.35631  -0.34564
 Alpha  occ. eigenvalues --   -0.33961  -0.29610  -0.27070  -0.24484  -0.24185
 Alpha  occ. eigenvalues --   -0.20715
 Alpha virt. eigenvalues --   -0.06820  -0.01805  -0.01547  -0.00893  -0.00523
 Alpha virt. eigenvalues --    0.00705   0.01026   0.01613   0.01784   0.02198
 Alpha virt. eigenvalues --    0.03048   0.03328   0.03953   0.04057   0.04375

 Mulliken charges:
               1
     1  C   -0.701420
     2  C    0.725789
     3  C    0.096131
     4  C    0.365315
     5  S   -0.497761
     6  H    0.159076
     7  C    0.022420
     8  S   -0.587502
     9  C    0.288852
    10  C    0.285340
    11  C    0.089569
    12  H    0.140264
    13  S   -0.411918
    14  C   -0.135623
    15  C   -0.242149
    16  H    0.168719
    17  H    0.135707
    18  H    0.120872
    19  O   -0.273712
    20  H    0.252033
 Sum of Mulliken charges =  -0.00000

 Dipole moment (field-independent basis, Debye):
    X=              1.1280    Y=              1.4804    Z=             -0.3059  Tot=              1.8862
 Quadrupole moment (field-independent basis, Debye-Ang):
   XX=            -97.7164   YY=            -91.8817   ZZ=           -108.3940
   XY=             -0.3839   XZ=              0.8529   YZ=             -0.7953

 Normal termination of Gaussian 16 at Sun Oct 17 19:48:15 2021.
