 Gaussian 16, Revision C.01,
 Gaussian 16:  ES64L-G16RevC.01  3-Jul-2019

 -------------------------------------
 # opt=modredundant b3lyp/6-311+g(d,p)
 -------------------------------------

 ----------------
 pg2T_TT_-150.pdb
 ----------------
 Symbolic Z-matrix:
 Charge =  0 Multiplicity = 1

 SCF Done:  E(RB3LYP) =  -1654.46196338     A.U. after   16 cycles
 SCF Done:  E(RB3LYP) =  -1654.52687821     A.U. after   14 cycles
 SCF Done:  E(RB3LYP) =  -1654.60757839     A.U. after   15 cycles
 SCF Done:  E(RB3LYP) =  -1654.62244380     A.U. after   15 cycles
 SCF Done:  E(RB3LYP) =  -1654.62938177     A.U. after   14 cycles
 SCF Done:  E(RB3LYP) =  -1654.63082949     A.U. after   14 cycles
 SCF Done:  E(RB3LYP) =  -1654.63156004     A.U. after   13 cycles
 SCF Done:  E(RB3LYP) =  -1654.63152747     A.U. after   13 cycles
 SCF Done:  E(RB3LYP) =  -1654.63179417     A.U. after   12 cycles
 SCF Done:  E(RB3LYP) =  -1654.63180822     A.U. after   11 cycles
 SCF Done:  E(RB3LYP) =  -1654.63181294     A.U. after   11 cycles
 SCF Done:  E(RB3LYP) =  -1654.63181616     A.U. after   10 cycles
 SCF Done:  E(RB3LYP) =  -1654.63181639     A.U. after    9 cycles
 Optimization completed.
    -- Stationary point found.

                         Standard orientation:
 ---------------------------------------------------------------------
 Center     Atomic      Atomic             Coordinates (Angstroms)
 Number     Number       Type             X           Y           Z
 ---------------------------------------------------------------------
      1          6           0        3.762472    0.757527    0.140539
      2          6           0        2.379767    1.062945    0.295940
      3          6           0        1.556607    0.001635   -0.002683
      4          6           0        3.991692   -0.527946   -0.264766
      5         16           0        2.502810   -1.386738   -0.488083
      6          1           0        4.941180   -1.007658   -0.438369
      7          6           0        0.107022   -0.023637    0.012391
      8         16           0       -0.772091   -1.515501    0.380357
      9          6           0       -2.300660   -0.699812    0.198792
     10          6           0       -2.108371    0.641898   -0.106225
     11          6           0       -0.748080    1.027804   -0.221457
     12          1           0       -0.404331    2.015361   -0.495566
     13         16           0       -3.640105    1.455203   -0.289602
     14          6           0       -4.496650   -0.031417    0.051154
     15          6           0       -3.666499   -1.089010    0.289572
     16          1           0       -5.575887   -0.025134    0.054123
     17          1           0       -4.017361   -2.085977    0.516791
     18          1           0        2.008365    2.016876    0.649636
     19          8           0        4.787763    1.630043    0.381224
     20          1           0        4.432306    2.478835    0.661299
 ---------------------------------------------------------------------

 The electronic state is 1-A.
 Alpha  occ. eigenvalues --  -88.88785 -88.88769 -88.88577 -19.16590 -10.24673
 Alpha  occ. eigenvalues --  -10.22913 -10.22760 -10.21580 -10.21517 -10.21368
 Alpha  occ. eigenvalues --  -10.19758 -10.19740 -10.19677 -10.19108  -7.97359
 Alpha  occ. eigenvalues --   -7.97346  -7.97172  -5.93672  -5.93668  -5.93478
 Alpha  occ. eigenvalues --   -5.93307  -5.93306  -5.93102  -5.92906  -5.92869
 Alpha  occ. eigenvalues --   -5.92740  -1.07589  -0.92119  -0.89488  -0.85314
 Alpha  occ. eigenvalues --   -0.77752  -0.76341  -0.74574  -0.71781  -0.70627
 Alpha  occ. eigenvalues --   -0.63283  -0.59028  -0.57853  -0.55219  -0.54844
 Alpha  occ. eigenvalues --   -0.53826  -0.50257  -0.48574  -0.44157  -0.43808
 Alpha  occ. eigenvalues --   -0.43247  -0.42018  -0.41542  -0.40447  -0.39634
 Alpha  occ. eigenvalues --   -0.38123  -0.37658  -0.36889  -0.35791  -0.34478
 Alpha  occ. eigenvalues --   -0.33941  -0.29589  -0.26827  -0.24642  -0.23930
 Alpha  occ. eigenvalues --   -0.20921
 Alpha virt. eigenvalues --   -0.06557  -0.02345  -0.01635  -0.00865  -0.00399
 Alpha virt. eigenvalues --    0.00440   0.01179   0.01617   0.01777   0.02640
 Alpha virt. eigenvalues --    0.02891   0.03280   0.04061   0.04210   0.04555

 Mulliken charges:
               1
     1  C   -0.681893
     2  C    0.452087
     3  C    0.208390
     4  C    0.367471
     5  S   -0.403569
     6  H    0.158720
     7  C    0.206954
     8  S   -0.505963
     9  C    0.356127
    10  C    0.179818
    11  C   -0.059379
    12  H    0.130668
    13  S   -0.401198
    14  C   -0.135027
    15  C   -0.274976
    16  H    0.168720
    17  H    0.136580
    18  H    0.116716
    19  O   -0.272029
    20  H    0.251784
 Sum of Mulliken charges =  -0.00000

 Dipole moment (field-independent basis, Debye):
    X=             -1.2360    Y=              1.3112    Z=              0.4450  Tot=              1.8561
 Quadrupole moment (field-independent basis, Debye-Ang):
   XX=            -98.0870   YY=            -92.5516   ZZ=           -107.5359
   XY=              5.5024   XZ=              0.0909   YZ=              1.4108

 Normal termination of Gaussian 16 at Sun Oct 17 19:37:24 2021.
