 Gaussian 16, Revision C.01,
 Gaussian 16:  ES64L-G16RevC.01  3-Jul-2019

 -------------------------------------
 # opt=modredundant b3lyp/6-311+g(d,p)
 -------------------------------------

 --------------
 pg2T_TT_35.pdb
 --------------
 Symbolic Z-matrix:
 Charge =  0 Multiplicity = 1

 SCF Done:  E(RB3LYP) =  -1654.46309171     A.U. after   17 cycles
 SCF Done:  E(RB3LYP) =  -1654.52805893     A.U. after   14 cycles
 SCF Done:  E(RB3LYP) =  -1654.60888887     A.U. after   15 cycles
 SCF Done:  E(RB3LYP) =  -1654.62370456     A.U. after   15 cycles
 SCF Done:  E(RB3LYP) =  -1654.63055661     A.U. after   16 cycles
 SCF Done:  E(RB3LYP) =  -1654.63195513     A.U. after   15 cycles
 SCF Done:  E(RB3LYP) =  -1654.63269119     A.U. after   14 cycles
 SCF Done:  E(RB3LYP) =  -1654.63266109     A.U. after   14 cycles
 SCF Done:  E(RB3LYP) =  -1654.63292884     A.U. after   12 cycles
 SCF Done:  E(RB3LYP) =  -1654.63293839     A.U. after   12 cycles
 SCF Done:  E(RB3LYP) =  -1654.63294239     A.U. after   11 cycles
 SCF Done:  E(RB3LYP) =  -1654.63294512     A.U. after   11 cycles
 SCF Done:  E(RB3LYP) =  -1654.63294537     A.U. after   10 cycles
 Optimization completed.
    -- Stationary point found.

                         Standard orientation:
 ---------------------------------------------------------------------
 Center     Atomic      Atomic             Coordinates (Angstroms)
 Number     Number       Type             X           Y           Z
 ---------------------------------------------------------------------
      1          6           0        3.823527    0.395888    0.243713
      2          6           0        2.479329    0.855448    0.357266
      3          6           0        1.553452   -0.096049   -0.001642
      4          6           0        3.919801   -0.896495   -0.191351
      5         16           0        2.351536   -1.571060   -0.495349
      6          1           0        4.815099   -1.474774   -0.352504
      7          6           0        0.107163    0.001214    0.004111
      8         16           0       -0.670670    1.540408   -0.397678
      9          6           0       -2.250456    0.839105   -0.175136
     10          6           0       -2.147036   -0.505348    0.159524
     11          6           0       -0.815088   -0.983778    0.265345
     12          1           0       -0.537304   -1.990462    0.545814
     13         16           0       -3.728053   -1.205801    0.382587
     14          6           0       -4.484760    0.328031    0.018038
     15          6           0       -3.587333    1.320152   -0.256196
     16          1           0       -5.561837    0.396155    0.027771
     17          1           0       -3.872187    2.333237   -0.503597
     18          1           0        2.206097    1.838700    0.720765
     19          8           0        4.931025    1.138188    0.547610
     20          1           0        4.665325    2.025896    0.805883
 ---------------------------------------------------------------------

 The electronic state is 1-A.
 Alpha  occ. eigenvalues --  -88.88801 -88.88772 -88.88576 -19.16558 -10.24661
 Alpha  occ. eigenvalues --  -10.22900 -10.22749 -10.21578 -10.21522 -10.21370
 Alpha  occ. eigenvalues --  -10.19747 -10.19723 -10.19687 -10.19107  -7.97376
 Alpha  occ. eigenvalues --   -7.97345  -7.97168  -5.93698  -5.93657  -5.93476
 Alpha  occ. eigenvalues --   -5.93337  -5.93292  -5.93099  -5.92898  -5.92894
 Alpha  occ. eigenvalues --   -5.92734  -1.07563  -0.92115  -0.89487  -0.85320
 Alpha  occ. eigenvalues --   -0.77658  -0.76449  -0.74544  -0.71786  -0.70637
 Alpha  occ. eigenvalues --   -0.63269  -0.58855  -0.57991  -0.55694  -0.54731
 Alpha  occ. eigenvalues --   -0.53393  -0.50166  -0.48537  -0.44237  -0.43813
 Alpha  occ. eigenvalues --   -0.43291  -0.42030  -0.41865  -0.40156  -0.39804
 Alpha  occ. eigenvalues --   -0.38090  -0.37578  -0.36859  -0.35591  -0.34578
 Alpha  occ. eigenvalues --   -0.33990  -0.29554  -0.26839  -0.24470  -0.24078
 Alpha  occ. eigenvalues --   -0.20995
 Alpha virt. eigenvalues --   -0.06491  -0.01996  -0.01589  -0.00819  -0.00497
 Alpha virt. eigenvalues --    0.00485   0.00942   0.01538   0.01776   0.02195
 Alpha virt. eigenvalues --    0.03123   0.03448   0.03778   0.04025   0.04345

 Mulliken charges:
               1
     1  C   -0.709440
     2  C    0.419451
     3  C    0.247393
     4  C    0.371888
     5  S   -0.409695
     6  H    0.159795
     7  C    0.256989
     8  S   -0.519602
     9  C    0.382527
    10  C    0.130788
    11  C   -0.076243
    12  H    0.143048
    13  S   -0.404691
    14  C   -0.137842
    15  C   -0.261251
    16  H    0.168567
    17  H    0.136207
    18  H    0.123578
    19  O   -0.273424
    20  H    0.251959
 Sum of Mulliken charges =  -0.00000

 Dipole moment (field-independent basis, Debye):
    X=             -1.1039    Y=              1.4381    Z=              0.4863  Tot=              1.8770
 Quadrupole moment (field-independent basis, Debye-Ang):
   XX=            -97.8067   YY=            -92.7972   ZZ=           -107.3772
   XY=              0.2774   XZ=              1.5376   YZ=              1.3253

 Normal termination of Gaussian 16 at Sun Oct 17 19:50:09 2021.
