 Gaussian 16, Revision C.01,
 Gaussian 16:  ES64L-G16RevC.01  3-Jul-2019

 -------------------------------------
 # opt=modredundant b3lyp/6-311+g(d,p)
 -------------------------------------

 --------------
 pg2T_TT_15.pdb
 --------------
 Symbolic Z-matrix:
 Charge =  0 Multiplicity = 1

 SCF Done:  E(RB3LYP) =  -1654.46361478     A.U. after   17 cycles
 SCF Done:  E(RB3LYP) =  -1654.52846564     A.U. after   14 cycles
 SCF Done:  E(RB3LYP) =  -1654.60909641     A.U. after   16 cycles
 SCF Done:  E(RB3LYP) =  -1654.62374938     A.U. after   15 cycles
 SCF Done:  E(RB3LYP) =  -1654.63052861     A.U. after   15 cycles
 SCF Done:  E(RB3LYP) =  -1654.63189444     A.U. after   13 cycles
 SCF Done:  E(RB3LYP) =  -1654.63263119     A.U. after   13 cycles
 SCF Done:  E(RB3LYP) =  -1654.63266269     A.U. after   13 cycles
 SCF Done:  E(RB3LYP) =  -1654.63280078     A.U. after   12 cycles
 SCF Done:  E(RB3LYP) =  -1654.63283942     A.U. after   11 cycles
 SCF Done:  E(RB3LYP) =  -1654.63283992     A.U. after   10 cycles
 SCF Done:  E(RB3LYP) =  -1654.63284157     A.U. after   10 cycles
 SCF Done:  E(RB3LYP) =  -1654.63284176     A.U. after   10 cycles
 Optimization completed.
    -- Stationary point found.

                         Standard orientation:
 ---------------------------------------------------------------------
 Center     Atomic      Atomic             Coordinates (Angstroms)
 Number     Number       Type             X           Y           Z
 ---------------------------------------------------------------------
      1          6           0       -3.826462    0.417306   -0.116568
      2          6           0       -2.483394    0.889738   -0.168226
      3          6           0       -1.551324   -0.109599   -0.005289
      4          6           0       -3.919432   -0.930953    0.085065
      5         16           0       -2.347647   -1.650040    0.233056
      6          1           0       -4.812295   -1.530571    0.155407
      7          6           0       -0.107759   -0.005362    0.008577
      8         16           0        0.661016    1.579982    0.196648
      9          6           0        2.246165    0.864056    0.084180
     10          6           0        2.152110   -0.512787   -0.072943
     11          6           0        0.824359   -1.008539   -0.122442
     12          1           0        0.558837   -2.047069   -0.265644
     13         16           0        3.738646   -1.227316   -0.184089
     14          6           0        4.484366    0.345373   -0.014484
     15          6           0        3.579036    1.359565    0.118523
     16          1           0        5.561115    0.418294   -0.022897
     17          1           0        3.856410    2.397965    0.234500
     18          1           0       -2.219340    1.925738   -0.343670
     19          8           0       -4.936360    1.202502   -0.261734
     20          1           0       -4.672074    2.120835   -0.372029
 ---------------------------------------------------------------------

 The electronic state is 1-A.
 Alpha  occ. eigenvalues --  -88.88825 -88.88812 -88.88556 -19.16573 -10.24681
 Alpha  occ. eigenvalues --  -10.23020 -10.22860 -10.21635 -10.21577 -10.21400
 Alpha  occ. eigenvalues --  -10.19777 -10.19766 -10.19729 -10.19119  -7.97407
 Alpha  occ. eigenvalues --   -7.97385  -7.97155  -5.93733  -5.93697  -5.93467
 Alpha  occ. eigenvalues --   -5.93372  -5.93332  -5.93090  -5.92933  -5.92922
 Alpha  occ. eigenvalues --   -5.92711  -1.07584  -0.92174  -0.89509  -0.85360
 Alpha  occ. eigenvalues --   -0.77728  -0.76534  -0.74592  -0.71804  -0.70664
 Alpha  occ. eigenvalues --   -0.63347  -0.58938  -0.58056  -0.55802  -0.54828
 Alpha  occ. eigenvalues --   -0.53273  -0.50224  -0.48566  -0.44308  -0.43822
 Alpha  occ. eigenvalues --   -0.43309  -0.42024  -0.41903  -0.40154  -0.39835
 Alpha  occ. eigenvalues --   -0.38067  -0.37644  -0.37284  -0.35634  -0.34554
 Alpha  occ. eigenvalues --   -0.33953  -0.29624  -0.27134  -0.24500  -0.24192
 Alpha  occ. eigenvalues --   -0.20645
 Alpha virt. eigenvalues --   -0.06904  -0.01761  -0.01548  -0.00913  -0.00532
 Alpha virt. eigenvalues --    0.00752   0.01050   0.01648   0.01794   0.02202
 Alpha virt. eigenvalues --    0.03017   0.03292   0.03997   0.04089   0.04391

 Mulliken charges:
               1
     1  C   -0.687950
     2  C    0.802439
     3  C    0.065803
     4  C    0.348044
     5  S   -0.521481
     6  H    0.159016
     7  C   -0.036855
     8  S   -0.605786
     9  C    0.230253
    10  C    0.344167
    11  C    0.139665
    12  H    0.139648
    13  S   -0.414769
    14  C   -0.139031
    15  C   -0.225467
    16  H    0.168770
    17  H    0.135493
    18  H    0.119758
    19  O   -0.273801
    20  H    0.252083
 Sum of Mulliken charges =  -0.00000

 Dipole moment (field-independent basis, Debye):
    X=              1.1337    Y=              1.4881    Z=             -0.2354  Tot=              1.8855
 Quadrupole moment (field-independent basis, Debye-Ang):
   XX=            -97.6858   YY=            -91.6647   ZZ=           -108.6407
   XY=             -0.4269   XZ=              0.6209   YZ=             -0.6016

 Normal termination of Gaussian 16 at Sun Oct 17 19:49:42 2021.
