 Gaussian 16, Revision C.01,
 Gaussian 16:  ES64L-G16RevC.01  3-Jul-2019

 -------------------------------------
 # opt=modredundant b3lyp/6-311+g(d,p)
 -------------------------------------

 --------------
 pg2T_TT_10.pdb
 --------------
 Symbolic Z-matrix:
 Charge =  0 Multiplicity = 1

 SCF Done:  E(RB3LYP) =  -1654.46366075     A.U. after   17 cycles
 SCF Done:  E(RB3LYP) =  -1654.52849027     A.U. after   14 cycles
 SCF Done:  E(RB3LYP) =  -1654.60907101     A.U. after   15 cycles
 SCF Done:  E(RB3LYP) =  -1654.62366284     A.U. after   15 cycles
 SCF Done:  E(RB3LYP) =  -1654.63037185     A.U. after   14 cycles
 SCF Done:  E(RB3LYP) =  -1654.63177844     A.U. after   13 cycles
 SCF Done:  E(RB3LYP) =  -1654.63252402     A.U. after   12 cycles
 SCF Done:  E(RB3LYP) =  -1654.63259711     A.U. after   12 cycles
 SCF Done:  E(RB3LYP) =  -1654.63265889     A.U. after   12 cycles
 SCF Done:  E(RB3LYP) =  -1654.63271468     A.U. after   11 cycles
 SCF Done:  E(RB3LYP) =  -1654.63271579     A.U. after   10 cycles
 SCF Done:  E(RB3LYP) =  -1654.63271689     A.U. after   10 cycles
 SCF Done:  E(RB3LYP) =  -1654.63271711     A.U. after    9 cycles
 Optimization completed.
    -- Stationary point found.

                         Standard orientation:
 ---------------------------------------------------------------------
 Center     Atomic      Atomic             Coordinates (Angstroms)
 Number     Number       Type             X           Y           Z
 ---------------------------------------------------------------------
      1          6           0       -3.827857    0.419402   -0.080001
      2          6           0       -2.485342    0.894676   -0.115556
      3          6           0       -1.551287   -0.110123   -0.004924
      4          6           0       -3.919055   -0.936848    0.057761
      5         16           0       -2.346021   -1.661468    0.159722
      6          1           0       -4.810997   -1.540049    0.105138
      7          6           0       -0.107963   -0.004410    0.007650
      8         16           0        0.660464    1.587490    0.135910
      9          6           0        2.246097    0.868040    0.057747
     10          6           0        2.152717   -0.513535   -0.049410
     11          6           0        0.825351   -1.011112   -0.083241
     12          1           0        0.561642   -2.055220   -0.182795
     13         16           0        3.739752   -1.231453   -0.126425
     14          6           0        4.484665    0.346527   -0.011103
     15          6           0        3.578642    1.364765    0.080499
     16          1           0        5.561429    0.419359   -0.017628
     17          1           0        3.855433    2.406778    0.159553
     18          1           0       -2.224026    1.939151   -0.236368
     19          8           0       -4.938862    1.210028   -0.179908
     20          1           0       -4.675514    2.132359   -0.252495
 ---------------------------------------------------------------------

 The electronic state is 1-A.
 Alpha  occ. eigenvalues --  -88.88825 -88.88819 -88.88552 -19.16575 -10.24684
 Alpha  occ. eigenvalues --  -10.23042 -10.22880 -10.21644 -10.21586 -10.21405
 Alpha  occ. eigenvalues --  -10.19783 -10.19776 -10.19736 -10.19126  -7.97409
 Alpha  occ. eigenvalues --   -7.97392  -7.97153  -5.93736  -5.93704  -5.93466
 Alpha  occ. eigenvalues --   -5.93375  -5.93339  -5.93088  -5.92940  -5.92923
 Alpha  occ. eigenvalues --   -5.92708  -1.07587  -0.92182  -0.89513  -0.85365
 Alpha  occ. eigenvalues --   -0.77739  -0.76547  -0.74600  -0.71806  -0.70670
 Alpha  occ. eigenvalues --   -0.63360  -0.58954  -0.58067  -0.55822  -0.54847
 Alpha  occ. eigenvalues --   -0.53255  -0.50235  -0.48570  -0.44319  -0.43822
 Alpha  occ. eigenvalues --   -0.43316  -0.42027  -0.41904  -0.40157  -0.39839
 Alpha  occ. eigenvalues --   -0.38033  -0.37657  -0.37392  -0.35635  -0.34544
 Alpha  occ. eigenvalues --   -0.33946  -0.29635  -0.27186  -0.24518  -0.24190
 Alpha  occ. eigenvalues --   -0.20592
 Alpha virt. eigenvalues --   -0.06969  -0.01720  -0.01559  -0.00930  -0.00541
 Alpha virt. eigenvalues --    0.00785   0.01065   0.01676   0.01813   0.02207
 Alpha virt. eigenvalues --    0.02987   0.03262   0.04024   0.04124   0.04419

 Mulliken charges:
               1
     1  C   -0.672372
     2  C    0.852655
     3  C    0.055140
     4  C    0.322789
     5  S   -0.539154
     6  H    0.159147
     7  C   -0.078877
     8  S   -0.619886
     9  C    0.163786
    10  C    0.400045
    11  C    0.180330
    12  H    0.139292
    13  S   -0.418413
    14  C   -0.147076
    15  C   -0.198633
    16  H    0.168847
    17  H    0.135272
    18  H    0.118749
    19  O   -0.273772
    20  H    0.252131
 Sum of Mulliken charges =  -0.00000

 Dipole moment (field-independent basis, Debye):
    X=              1.1379    Y=              1.4927    Z=             -0.1604  Tot=              1.8838
 Quadrupole moment (field-independent basis, Debye-Ang):
   XX=            -97.6653   YY=            -91.4986   ZZ=           -108.8289
   XY=             -0.4640   XZ=              0.3979   YZ=             -0.4032

 Normal termination of Gaussian 16 at Sun Oct 17 19:42:52 2021.
