 Gaussian 16, Revision C.01,
 Gaussian 16:  ES64L-G16RevC.01  3-Jul-2019

 -------------------------------------
 # opt=modredundant b3lyp/6-311+g(d,p)
 -------------------------------------

 ----------------
 pg2T_TT_-100.pdb
 ----------------
 Symbolic Z-matrix:
 Charge =  0 Multiplicity = 1

 SCF Done:  E(RB3LYP) =  -1654.45912908     A.U. after   16 cycles
 SCF Done:  E(RB3LYP) =  -1654.52421905     A.U. after   14 cycles
 SCF Done:  E(RB3LYP) =  -1654.60504429     A.U. after   15 cycles
 SCF Done:  E(RB3LYP) =  -1654.61997617     A.U. after   15 cycles
 SCF Done:  E(RB3LYP) =  -1654.62689635     A.U. after   14 cycles
 SCF Done:  E(RB3LYP) =  -1654.62833168     A.U. after   14 cycles
 SCF Done:  E(RB3LYP) =  -1654.62911735     A.U. after   13 cycles
 SCF Done:  E(RB3LYP) =  -1654.62906027     A.U. after   13 cycles
 SCF Done:  E(RB3LYP) =  -1654.62933504     A.U. after   13 cycles
 SCF Done:  E(RB3LYP) =  -1654.62935066     A.U. after   12 cycles
 SCF Done:  E(RB3LYP) =  -1654.62936692     A.U. after   13 cycles
 SCF Done:  E(RB3LYP) =  -1654.62936975     A.U. after   11 cycles
 SCF Done:  E(RB3LYP) =  -1654.62936998     A.U. after    9 cycles
 Optimization completed.
    -- Stationary point found.

                         Standard orientation:
 ---------------------------------------------------------------------
 Center     Atomic      Atomic             Coordinates (Angstroms)
 Number     Number       Type             X           Y           Z
 ---------------------------------------------------------------------
      1          6           0        3.784529    0.532007    0.431356
      2          6           0        2.407110    0.723428    0.750615
      3          6           0        1.561278    0.039446   -0.084827
      4          6           0        3.979531   -0.303496   -0.632711
      5         16           0        2.471174   -0.866566   -1.270707
      6          1           0        4.918101   -0.606591   -1.068382
      7          6           0        0.099629   -0.009078   -0.039520
      8         16           0       -0.726871   -1.396380    0.687630
      9          6           0       -2.280217   -0.665797    0.396675
     10          6           0       -2.133980    0.573257   -0.214136
     11          6           0       -0.785499    0.947441   -0.463112
     12          1           0       -0.467865    1.866240   -0.936428
     13         16           0       -3.690172    1.303730   -0.506396
     14          6           0       -4.496219   -0.077142    0.201241
     15          6           0       -3.633559   -1.041602    0.635394
     16          1           0       -5.574406   -0.085386    0.250713
     17          1           0       -3.951745   -1.965216    1.098396
     18          1           0        2.050626    1.336263    1.569658
     19          8           0        4.830894    1.106317    1.100592
     20          1           0        4.496443    1.640834    1.827008
 ---------------------------------------------------------------------

 The electronic state is 1-A.
 Alpha  occ. eigenvalues --  -88.88732 -88.88613 -88.88443 -19.16513 -10.24547
 Alpha  occ. eigenvalues --  -10.22601 -10.22471 -10.21471 -10.21390 -10.21353
 Alpha  occ. eigenvalues --  -10.19770 -10.19714 -10.19619 -10.19202  -7.97306
 Alpha  occ. eigenvalues --   -7.97180  -7.97030  -5.93618  -5.93496  -5.93329
 Alpha  occ. eigenvalues --   -5.93253  -5.93133  -5.92954  -5.92855  -5.92715
 Alpha  occ. eigenvalues --   -5.92613  -1.07488  -0.91966  -0.89356  -0.85209
 Alpha  occ. eigenvalues --   -0.77534  -0.76168  -0.74356  -0.71741  -0.70616
 Alpha  occ. eigenvalues --   -0.63037  -0.58729  -0.57786  -0.55275  -0.54285
 Alpha  occ. eigenvalues --   -0.54198  -0.50092  -0.48486  -0.43995  -0.43667
 Alpha  occ. eigenvalues --   -0.43341  -0.42042  -0.41731  -0.40194  -0.39750
 Alpha  occ. eigenvalues --   -0.37942  -0.37451  -0.36214  -0.35281  -0.34536
 Alpha  occ. eigenvalues --   -0.34002  -0.29364  -0.26091  -0.24131  -0.23396
 Alpha  occ. eigenvalues --   -0.22435
 Alpha virt. eigenvalues --   -0.05042  -0.03618  -0.01541  -0.00692  -0.00352
 Alpha virt. eigenvalues --    0.00009   0.00757   0.01572   0.01754   0.02277
 Alpha virt. eigenvalues --    0.02976   0.03211   0.04070   0.04132   0.04371

 Mulliken charges:
               1
     1  C   -0.602261
     2  C    0.155812
     3  C    0.115253
     4  C    0.313572
     5  S   -0.177985
     6  H    0.160010
     7  C   -0.198933
     8  S   -0.501175
     9  C    0.147669
    10  C   -0.431289
    11  C    0.669932
    12  H    0.136059
    13  S   -0.375826
    14  C   -0.213589
    15  C    0.402543
    16  H    0.168459
    17  H    0.136519
    18  H    0.119303
    19  O   -0.278460
    20  H    0.254387
 Sum of Mulliken charges =  -0.00000

 Dipole moment (field-independent basis, Debye):
    X=             -1.1822    Y=              0.8737    Z=              1.2253  Tot=              1.9137
 Quadrupole moment (field-independent basis, Debye-Ang):
   XX=            -98.3648   YY=            -99.0173   ZZ=           -100.8360
   XY=              4.3376   XZ=              0.6125   YZ=              2.0959

 Normal termination of Gaussian 16 at Sun Oct 17 19:38:16 2021.
