 Gaussian 16, Revision C.01,
 Gaussian 16:  ES64L-G16RevC.01  3-Jul-2019

 -------------------------------------
 # opt=modredundant b3lyp/6-311+g(d,p)
 -------------------------------------

 ----------------
 pg2T_TT_-110.pdb
 ----------------
 Symbolic Z-matrix:
 Charge =  0 Multiplicity = 1

 SCF Done:  E(RB3LYP) =  -1654.45952204     A.U. after   17 cycles
 SCF Done:  E(RB3LYP) =  -1654.52462653     A.U. after   14 cycles
 SCF Done:  E(RB3LYP) =  -1654.60550343     A.U. after   14 cycles
 SCF Done:  E(RB3LYP) =  -1654.62046445     A.U. after   15 cycles
 SCF Done:  E(RB3LYP) =  -1654.62745353     A.U. after   14 cycles
 SCF Done:  E(RB3LYP) =  -1654.62892914     A.U. after   14 cycles
 SCF Done:  E(RB3LYP) =  -1654.62974859     A.U. after   13 cycles
 SCF Done:  E(RB3LYP) =  -1654.62970573     A.U. after   13 cycles
 SCF Done:  E(RB3LYP) =  -1654.62995896     A.U. after   12 cycles
 SCF Done:  E(RB3LYP) =  -1654.62998083     A.U. after   12 cycles
 SCF Done:  E(RB3LYP) =  -1654.62999437     A.U. after   13 cycles
 SCF Done:  E(RB3LYP) =  -1654.62999743     A.U. after   11 cycles
 SCF Done:  E(RB3LYP) =  -1654.62999765     A.U. after    9 cycles
 Optimization completed.
    -- Stationary point found.

                         Standard orientation:
 ---------------------------------------------------------------------
 Center     Atomic      Atomic             Coordinates (Angstroms)
 Number     Number       Type             X           Y           Z
 ---------------------------------------------------------------------
      1          6           0        3.770045    0.630793    0.351574
      2          6           0        2.386153    0.874381    0.597987
      3          6           0        1.559215    0.028611   -0.097641
      4          6           0        3.989487   -0.406432   -0.511166
      5         16           0        2.495880   -1.098042   -1.051094
      6          1           0        4.937491   -0.788777   -0.854033
      7          6           0        0.100262   -0.021821   -0.063006
      8         16           0       -0.733121   -1.389235    0.693054
      9          6           0       -2.282420   -0.652132    0.395119
     10          6           0       -2.129313    0.578060   -0.231750
     11          6           0       -0.779548    0.938079   -0.492648
     12          1           0       -0.457538    1.845250   -0.984955
     13         16           0       -3.681624    1.313122   -0.532965
     14          6           0       -4.495152   -0.053964    0.193009
     15          6           0       -3.637473   -1.017798    0.638495
     16          1           0       -5.573267   -0.054874    0.244367
     17          1           0       -3.960487   -1.933598    1.113529
     18          1           0        2.011631    1.633402    1.274020
     19          8           0        4.800862    1.334979    0.911659
     20          1           0        4.449564    2.018581    1.490050
 ---------------------------------------------------------------------

 The electronic state is 1-A.
 Alpha  occ. eigenvalues --  -88.88739 -88.88643 -88.88466 -19.16531 -10.24573
 Alpha  occ. eigenvalues --  -10.22647 -10.22520 -10.21480 -10.21412 -10.21352
 Alpha  occ. eigenvalues --  -10.19758 -10.19724 -10.19625 -10.19197  -7.97313
 Alpha  occ. eigenvalues --   -7.97210  -7.97055  -5.93625  -5.93528  -5.93354
 Alpha  occ. eigenvalues --   -5.93260  -5.93165  -5.92980  -5.92862  -5.92743
 Alpha  occ. eigenvalues --   -5.92635  -1.07511  -0.91988  -0.89381  -0.85225
 Alpha  occ. eigenvalues --   -0.77571  -0.76197  -0.74393  -0.71747  -0.70617
 Alpha  occ. eigenvalues --   -0.63080  -0.58791  -0.57781  -0.55235  -0.54413
 Alpha  occ. eigenvalues --   -0.54129  -0.50114  -0.48511  -0.44018  -0.43706
 Alpha  occ. eigenvalues --   -0.43301  -0.42026  -0.41715  -0.40234  -0.39739
 Alpha  occ. eigenvalues --   -0.37955  -0.37500  -0.36292  -0.35340  -0.34555
 Alpha  occ. eigenvalues --   -0.34016  -0.29377  -0.26235  -0.24149  -0.23702
 Alpha  occ. eigenvalues --   -0.22040
 Alpha virt. eigenvalues --   -0.05385  -0.03220  -0.01563  -0.00711  -0.00369
 Alpha virt. eigenvalues --    0.00102   0.00746   0.01573   0.01757   0.02328
 Alpha virt. eigenvalues --    0.02990   0.03202   0.04089   0.04263   0.04319

 Mulliken charges:
               1
     1  C   -0.634562
     2  C    0.209989
     3  C    0.118808
     4  C    0.317928
     5  S   -0.214554
     6  H    0.160180
     7  C   -0.186113
     8  S   -0.518212
     9  C    0.130048
    10  C   -0.380747
    11  C    0.678089
    12  H    0.134975
    13  S   -0.378999
    14  C   -0.209574
    15  C    0.373491
    16  H    0.168521
    17  H    0.136427
    18  H    0.118394
    19  O   -0.277713
    20  H    0.253626
 Sum of Mulliken charges =  -0.00000

 Dipole moment (field-independent basis, Debye):
    X=             -1.2023    Y=              1.0998    Z=              1.0053  Tot=              1.9146
 Quadrupole moment (field-independent basis, Debye-Ang):
   XX=            -98.4279   YY=            -96.9067   ZZ=           -102.9609
   XY=              4.6787   XZ=             -0.0976   YZ=              2.0778

 Normal termination of Gaussian 16 at Sun Oct 17 19:40:06 2021.
