 Gaussian 16, Revision C.01,
 Gaussian 16:  ES64L-G16RevC.01  3-Jul-2019

 -------------------------------------
 # opt=modredundant b3lyp/6-311+g(d,p)
 -------------------------------------

 --------------
 pg2T_TT_30.pdb
 --------------
 Symbolic Z-matrix:
 Charge =  0 Multiplicity = 1

 SCF Done:  E(RB3LYP) =  -1654.46315987     A.U. after   17 cycles
 SCF Done:  E(RB3LYP) =  -1654.52813437     A.U. after   14 cycles
 SCF Done:  E(RB3LYP) =  -1654.60897979     A.U. after   15 cycles
 SCF Done:  E(RB3LYP) =  -1654.62380098     A.U. after   15 cycles
 SCF Done:  E(RB3LYP) =  -1654.63065600     A.U. after   17 cycles
 SCF Done:  E(RB3LYP) =  -1654.63205901     A.U. after   14 cycles
 SCF Done:  E(RB3LYP) =  -1654.63274493     A.U. after   13 cycles
 SCF Done:  E(RB3LYP) =  -1654.63271002     A.U. after   13 cycles
 SCF Done:  E(RB3LYP) =  -1654.63300851     A.U. after   12 cycles
 SCF Done:  E(RB3LYP) =  -1654.63301912     A.U. after   12 cycles
 SCF Done:  E(RB3LYP) =  -1654.63302262     A.U. after   11 cycles
 SCF Done:  E(RB3LYP) =  -1654.63302543     A.U. after   11 cycles
 SCF Done:  E(RB3LYP) =  -1654.63302553     A.U. after    9 cycles
 Optimization completed.
    -- Stationary point found.

                         Standard orientation:
 ---------------------------------------------------------------------
 Center     Atomic      Atomic             Coordinates (Angstroms)
 Number     Number       Type             X           Y           Z
 ---------------------------------------------------------------------
      1          6           0       -3.823507    0.403494   -0.214208
      2          6           0       -2.479285    0.866187   -0.311994
      3          6           0       -1.552589   -0.101502   -0.000625
      4          6           0       -3.920007   -0.906380    0.164323
      5         16           0       -2.351359   -1.595593    0.432735
      6          1           0       -4.815108   -1.490803    0.302566
      7          6           0       -0.107243   -0.002548    0.000911
      8         16           0        0.666938    1.550843    0.352772
      9          6           0        2.248651    0.846413    0.154295
     10          6           0        2.148690   -0.507880   -0.138882
     11          6           0        0.818225   -0.992297   -0.231371
     12          1           0        0.544184   -2.007845   -0.482117
     13         16           0        3.731671   -1.211385   -0.336932
     14          6           0        4.484336    0.334594   -0.018132
     15          6           0        3.584086    1.332668    0.223820
     16          1           0        5.561264    0.404884   -0.028225
     17          1           0        3.866204    2.353521    0.440514
     18          1           0       -2.207469    1.865096   -0.631449
     19          8           0       -4.931030    1.159944   -0.480554
     20          1           0       -4.664975    2.057247   -0.702867
 ---------------------------------------------------------------------

 The electronic state is 1-A.
 Alpha  occ. eigenvalues --  -88.88811 -88.88782 -88.88572 -19.16562 -10.24667
 Alpha  occ. eigenvalues --  -10.22932 -10.22779 -10.21594 -10.21538 -10.21379
 Alpha  occ. eigenvalues --  -10.19753 -10.19733 -10.19699 -10.19106  -7.97388
 Alpha  occ. eigenvalues --   -7.97356  -7.97166  -5.93711  -5.93668  -5.93475
 Alpha  occ. eigenvalues --   -5.93350  -5.93303  -5.93098  -5.92908  -5.92904
 Alpha  occ. eigenvalues --   -5.92729  -1.07569  -0.92132  -0.89494  -0.85332
 Alpha  occ. eigenvalues --   -0.77678  -0.76474  -0.74557  -0.71792  -0.70644
 Alpha  occ. eigenvalues --   -0.63292  -0.58877  -0.58009  -0.55724  -0.54757
 Alpha  occ. eigenvalues --   -0.53356  -0.50181  -0.48546  -0.44258  -0.43817
 Alpha  occ. eigenvalues --   -0.43292  -0.42026  -0.41880  -0.40154  -0.39814
 Alpha  occ. eigenvalues --   -0.38096  -0.37596  -0.36958  -0.35611  -0.34577
 Alpha  occ. eigenvalues --   -0.33980  -0.29574  -0.26921  -0.24470  -0.24128
 Alpha  occ. eigenvalues --   -0.20891
 Alpha virt. eigenvalues --   -0.06611  -0.01918  -0.01572  -0.00845  -0.00505
 Alpha virt. eigenvalues --    0.00568   0.00969   0.01556   0.01778   0.02194
 Alpha virt. eigenvalues --    0.03103   0.03410   0.03836   0.04025   0.04356

 Mulliken charges:
               1
     1  C   -0.713769
     2  C    0.528859
     3  C    0.192522
     4  C    0.376677
     5  S   -0.441106
     6  H    0.159506
     7  C    0.173167
     8  S   -0.544610
     9  C    0.365725
    10  C    0.175834
    11  C   -0.020471
    12  H    0.142078
    13  S   -0.407120
    14  C   -0.136085
    15  C   -0.257242
    16  H    0.168626
    17  H    0.136060
    18  H    0.122875
    19  O   -0.273485
    20  H    0.251960
 Sum of Mulliken charges =  -0.00000

 Dipole moment (field-independent basis, Debye):
    X=              1.1129    Y=              1.4556    Z=             -0.4302  Tot=              1.8821
 Quadrupole moment (field-independent basis, Debye-Ang):
   XX=            -97.7814   YY=            -92.4499   ZZ=           -107.7580
   XY=             -0.3055   XZ=              1.3120   YZ=             -1.1559

 Normal termination of Gaussian 16 at Sun Oct 17 19:47:34 2021.
