 Gaussian 16, Revision C.01,
 Gaussian 16:  ES64L-G16RevC.01  3-Jul-2019

 -------------------------------------
 # opt=modredundant b3lyp/6-311+g(d,p)
 -------------------------------------

 -------------
 pg2T_TT_5.pdb
 -------------
 Symbolic Z-matrix:
 Charge =  0 Multiplicity = 1

 SCF Done:  E(RB3LYP) =  -1654.46370743     A.U. after   17 cycles
 SCF Done:  E(RB3LYP) =  -1654.52852200     A.U. after   14 cycles
 SCF Done:  E(RB3LYP) =  -1654.60905824     A.U. after   15 cycles
 SCF Done:  E(RB3LYP) =  -1654.62359464     A.U. after   15 cycles
 SCF Done:  E(RB3LYP) =  -1654.63027972     A.U. after   14 cycles
 SCF Done:  E(RB3LYP) =  -1654.63168762     A.U. after   13 cycles
 SCF Done:  E(RB3LYP) =  -1654.63243459     A.U. after   12 cycles
 SCF Done:  E(RB3LYP) =  -1654.63255007     A.U. after   12 cycles
 SCF Done:  E(RB3LYP) =  -1654.63253963     A.U. after   12 cycles
 SCF Done:  E(RB3LYP) =  -1654.63260940     A.U. after   11 cycles
 SCF Done:  E(RB3LYP) =  -1654.63261504     A.U. after   10 cycles
 SCF Done:  E(RB3LYP) =  -1654.63261548     A.U. after   10 cycles
 SCF Done:  E(RB3LYP) =  -1654.63261584     A.U. after    9 cycles
 Optimization completed.
    -- Stationary point found.

                         Standard orientation:
 ---------------------------------------------------------------------
 Center     Atomic      Atomic             Coordinates (Angstroms)
 Number     Number       Type             X           Y           Z
 ---------------------------------------------------------------------
      1          6           0       -3.828999    0.420523   -0.041000
      2          6           0       -2.486932    0.897921   -0.059419
      3          6           0       -1.551345   -0.110086   -0.003095
      4          6           0       -3.918734   -0.940888    0.029351
      5         16           0       -2.344716   -1.668848    0.081871
      6          1           0       -4.809939   -1.546541    0.053184
      7          6           0       -0.108123   -0.003314    0.004821
      8         16           0        0.660333    1.592731    0.070290
      9          6           0        2.246211    0.870678    0.029533
     10          6           0        2.153066   -0.513908   -0.025044
     11          6           0        0.825883   -1.012485   -0.042280
     12          1           0        0.563323   -2.060369   -0.093865
     13         16           0        3.740331   -1.234342   -0.064858
     14          6           0        4.484960    0.346895   -0.006354
     15          6           0        3.578621    1.367944    0.040737
     16          1           0        5.561754    0.419435   -0.010114
     17          1           0        3.855192    2.412235    0.080923
     18          1           0       -2.227663    1.948023   -0.121596
     19          8           0       -4.940901    1.214464   -0.092624
     20          1           0       -4.678268    2.139160   -0.127895
 ---------------------------------------------------------------------

 The electronic state is 1-A.
 Alpha  occ. eigenvalues --  -88.88826 -88.88824 -88.88551 -19.16577 -10.24686
 Alpha  occ. eigenvalues --  -10.23058 -10.22895 -10.21650 -10.21591 -10.21408
 Alpha  occ. eigenvalues --  -10.19788 -10.19783 -10.19740 -10.19132  -7.97411
 Alpha  occ. eigenvalues --   -7.97396  -7.97152  -5.93737  -5.93709  -5.93466
 Alpha  occ. eigenvalues --   -5.93376  -5.93343  -5.93088  -5.92945  -5.92923
 Alpha  occ. eigenvalues --   -5.92706  -1.07590  -0.92188  -0.89515  -0.85369
 Alpha  occ. eigenvalues --   -0.77747  -0.76555  -0.74607  -0.71807  -0.70674
 Alpha  occ. eigenvalues --   -0.63368  -0.58965  -0.58075  -0.55836  -0.54859
 Alpha  occ. eigenvalues --   -0.53244  -0.50242  -0.48573  -0.44327  -0.43821
 Alpha  occ. eigenvalues --   -0.43322  -0.42029  -0.41904  -0.40160  -0.39842
 Alpha  occ. eigenvalues --   -0.37992  -0.37666  -0.37482  -0.35636  -0.34536
 Alpha  occ. eigenvalues --   -0.33942  -0.29642  -0.27222  -0.24531  -0.24185
 Alpha  occ. eigenvalues --   -0.20556
 Alpha virt. eigenvalues --   -0.07012  -0.01685  -0.01578  -0.00941  -0.00547
 Alpha virt. eigenvalues --    0.00804   0.01073   0.01689   0.01836   0.02212
 Alpha virt. eigenvalues --    0.02963   0.03241   0.04038   0.04150   0.04452

 Mulliken charges:
               1
     1  C   -0.656359
     2  C    0.867855
     3  C    0.064419
     4  C    0.293792
     5  S   -0.547963
     6  H    0.159482
     7  C   -0.098479
     8  S   -0.626628
     9  C    0.100976
    10  C    0.448196
    11  C    0.201685
    12  H    0.139132
    13  S   -0.422724
    14  C   -0.160005
    15  C   -0.163996
    16  H    0.168960
    17  H    0.135095
    18  H    0.117962
    19  O   -0.273591
    20  H    0.252190
 Sum of Mulliken charges =  -0.00000

 Dipole moment (field-independent basis, Debye):
    X=              1.1405    Y=              1.4951    Z=             -0.0808  Tot=              1.8821
 Quadrupole moment (field-independent basis, Debye-Ang):
   XX=            -97.6583   YY=            -91.3893   ZZ=           -108.9498
   XY=             -0.4892   XZ=              0.1863   YZ=             -0.2002

 Normal termination of Gaussian 16 at Sun Oct 17 19:42:57 2021.
