 Gaussian 16, Revision C.01,
 Gaussian 16:  ES64L-G16RevC.01  3-Jul-2019

 -------------------------------------
 # opt=modredundant b3lyp/6-311+g(d,p)
 -------------------------------------

 ----------------
 pg2T_TT_-155.pdb
 ----------------
 Symbolic Z-matrix:
 Charge =  0 Multiplicity = 1

 SCF Done:  E(RB3LYP) =  -1654.46202881     A.U. after   16 cycles
 SCF Done:  E(RB3LYP) =  -1654.52690608     A.U. after   14 cycles
 SCF Done:  E(RB3LYP) =  -1654.60754503     A.U. after   15 cycles
 SCF Done:  E(RB3LYP) =  -1654.62235886     A.U. after   15 cycles
 SCF Done:  E(RB3LYP) =  -1654.62925562     A.U. after   14 cycles
 SCF Done:  E(RB3LYP) =  -1654.63069900     A.U. after   14 cycles
 SCF Done:  E(RB3LYP) =  -1654.63142573     A.U. after   13 cycles
 SCF Done:  E(RB3LYP) =  -1654.63140261     A.U. after   13 cycles
 SCF Done:  E(RB3LYP) =  -1654.63165981     A.U. after   12 cycles
 SCF Done:  E(RB3LYP) =  -1654.63167456     A.U. after   11 cycles
 SCF Done:  E(RB3LYP) =  -1654.63167795     A.U. after   11 cycles
 SCF Done:  E(RB3LYP) =  -1654.63168106     A.U. after   11 cycles
 SCF Done:  E(RB3LYP) =  -1654.63168127     A.U. after    9 cycles
 Optimization completed.
    -- Stationary point found.

                         Standard orientation:
 ---------------------------------------------------------------------
 Center     Atomic      Atomic             Coordinates (Angstroms)
 Number     Number       Type             X           Y           Z
 ---------------------------------------------------------------------
      1          6           0        3.762345    0.765352    0.115283
      2          6           0        2.379976    1.075687    0.260144
      3          6           0        1.556667    0.001142    0.011016
      4          6           0        3.992476   -0.535847   -0.235859
      5         16           0        2.504052   -1.404743   -0.418912
      6          1           0        4.941902   -1.021881   -0.390977
      7          6           0        0.107431   -0.023157    0.024364
      8         16           0       -0.775032   -1.526760    0.332334
      9          6           0       -2.302198   -0.704599    0.169785
     10          6           0       -2.107506    0.646730   -0.087275
     11          6           0       -0.746764    1.035818   -0.179682
     12          1           0       -0.402768    2.032768   -0.416840
     13         16           0       -3.637904    1.466751   -0.251291
     14          6           0       -4.496955   -0.030415    0.032513
     15          6           0       -3.668467   -1.096057    0.239205
     16          1           0       -5.576180   -0.023748    0.029034
     17          1           0       -4.020943   -2.100126    0.429663
     18          1           0        2.009951    2.044826    0.571304
     19          8           0        4.787091    1.648580    0.315583
     20          1           0        4.431414    2.507624    0.562089
 ---------------------------------------------------------------------

 The electronic state is 1-A.
 Alpha  occ. eigenvalues --  -88.88791 -88.88777 -88.88586 -19.16594 -10.24680
 Alpha  occ. eigenvalues --  -10.22948 -10.22791 -10.21593 -10.21529 -10.21373
 Alpha  occ. eigenvalues --  -10.19763 -10.19743 -10.19685 -10.19099  -7.97365
 Alpha  occ. eigenvalues --   -7.97356  -7.97183  -5.93678  -5.93678  -5.93490
 Alpha  occ. eigenvalues --   -5.93316  -5.93313  -5.93113  -5.92913  -5.92877
 Alpha  occ. eigenvalues --   -5.92749  -1.07595  -0.92134  -0.89499  -0.85322
 Alpha  occ. eigenvalues --   -0.77772  -0.76355  -0.74593  -0.71783  -0.70631
 Alpha  occ. eigenvalues --   -0.63302  -0.59053  -0.57868  -0.55230  -0.54880
 Alpha  occ. eigenvalues --   -0.53796  -0.50277  -0.48579  -0.44176  -0.43807
 Alpha  occ. eigenvalues --   -0.43256  -0.42021  -0.41521  -0.40467  -0.39609
 Alpha  occ. eigenvalues --   -0.38145  -0.37670  -0.36999  -0.35833  -0.34445
 Alpha  occ. eigenvalues --   -0.33925  -0.29627  -0.26887  -0.24703  -0.23907
 Alpha  occ. eigenvalues --   -0.20825
 Alpha virt. eigenvalues --   -0.06674  -0.02367  -0.01610  -0.00891  -0.00404
 Alpha virt. eigenvalues --    0.00454   0.01285   0.01636   0.01786   0.02674
 Alpha virt. eigenvalues --    0.02860   0.03279   0.04062   0.04213   0.04612

 Mulliken charges:
               1
     1  C   -0.674257
     2  C    0.527413
     3  C    0.162063
     4  C    0.377983
     5  S   -0.427213
     6  H    0.158377
     7  C    0.148668
     8  S   -0.520661
     9  C    0.349813
    10  C    0.213769
    11  C   -0.040194
    12  H    0.129416
    13  S   -0.402926
    14  C   -0.136485
    15  C   -0.266668
    16  H    0.168743
    17  H    0.136484
    18  H    0.115575
    19  O   -0.271693
    20  H    0.251794
 Sum of Mulliken charges =  -0.00000

 Dipole moment (field-independent basis, Debye):
    X=             -1.2420    Y=              1.3247    Z=              0.3775  Tot=              1.8547
 Quadrupole moment (field-independent basis, Debye-Ang):
   XX=            -98.0581   YY=            -92.2088   ZZ=           -107.8973
   XY=              5.5577   XZ=              0.1672   YZ=              1.3008

 Normal termination of Gaussian 16 at Sun Oct 17 19:33:28 2021.
