 Gaussian 16, Revision C.01,
 Gaussian 16:  ES64L-G16RevC.01  3-Jul-2019

 -------------------------------------
 # opt=modredundant b3lyp/6-311+g(d,p)
 -------------------------------------

 ---------------
 pg2T_TT_-40.pdb
 ---------------
 Symbolic Z-matrix:
 Charge =  0 Multiplicity = 1

 SCF Done:  E(RB3LYP) =  -1654.46375051     A.U. after   18 cycles
 SCF Done:  E(RB3LYP) =  -1654.52857646     A.U. after   14 cycles
 SCF Done:  E(RB3LYP) =  -1654.60911937     A.U. after   15 cycles
 SCF Done:  E(RB3LYP) =  -1654.62383811     A.U. after   15 cycles
 SCF Done:  E(RB3LYP) =  -1654.63050335     A.U. after   16 cycles
 SCF Done:  E(RB3LYP) =  -1654.63192257     A.U. after   14 cycles
 SCF Done:  E(RB3LYP) =  -1654.63264540     A.U. after   14 cycles
 SCF Done:  E(RB3LYP) =  -1654.63268571     A.U. after   13 cycles
 SCF Done:  E(RB3LYP) =  -1654.63273256     A.U. after   12 cycles
 SCF Done:  E(RB3LYP) =  -1654.63277046     A.U. after   12 cycles
 SCF Done:  E(RB3LYP) =  -1654.63277121     A.U. after   11 cycles
 SCF Done:  E(RB3LYP) =  -1654.63277424     A.U. after   10 cycles
 SCF Done:  E(RB3LYP) =  -1654.63277438     A.U. after    9 cycles
 Optimization completed.
    -- Stationary point found.

                         Standard orientation:
 ---------------------------------------------------------------------
 Center     Atomic      Atomic             Coordinates (Angstroms)
 Number     Number       Type             X           Y           Z
 ---------------------------------------------------------------------
      1          6           0       -3.824023    0.386335    0.272924
      2          6           0       -2.480071    0.842684    0.402769
      3          6           0       -1.554515   -0.089367   -0.003573
      4          6           0       -3.919451   -0.885396   -0.219759
      5         16           0       -2.351230   -1.542800   -0.558033
      6          1           0       -4.814686   -1.456622   -0.404871
      7          6           0       -0.107136    0.006344    0.009955
      8         16           0        0.675243    1.529826   -0.439799
      9          6           0        2.252734    0.831168   -0.194786
     10          6           0        2.145154   -0.502349    0.180026
     11          6           0        0.811472   -0.973782    0.298628
     12          1           0        0.529588   -1.971199    0.606662
     13         16           0        3.723865   -1.200172    0.426645
     14          6           0        4.485421    0.319812    0.017018
     15          6           0        3.591332    1.305873   -0.287727
     16          1           0        5.562698    0.385035    0.025732
     17          1           0        3.879445    2.310275   -0.564966
     18          1           0       -2.206021    1.808586    0.809665
     19          8           0       -4.931930    1.112173    0.613311
     20          1           0       -4.667136    1.988950    0.907427
 ---------------------------------------------------------------------

 The electronic state is 1-A.
 Alpha  occ. eigenvalues --  -88.88787 -88.88761 -88.88578 -19.16552 -10.24654
 Alpha  occ. eigenvalues --  -10.22866 -10.22718 -10.21561 -10.21505 -10.21363
 Alpha  occ. eigenvalues --  -10.19740 -10.19715 -10.19675 -10.19110  -7.97361
 Alpha  occ. eigenvalues --   -7.97334  -7.97169  -5.93682  -5.93646  -5.93475
 Alpha  occ. eigenvalues --   -5.93321  -5.93281  -5.93099  -5.92884  -5.92883
 Alpha  occ. eigenvalues --   -5.92738  -1.07555  -0.92096  -0.89479  -0.85306
 Alpha  occ. eigenvalues --   -0.77638  -0.76422  -0.74530  -0.71780  -0.70631
 Alpha  occ. eigenvalues --   -0.63244  -0.58831  -0.57973  -0.55664  -0.54704
 Alpha  occ. eigenvalues --   -0.53433  -0.50150  -0.48527  -0.44215  -0.43806
 Alpha  occ. eigenvalues --   -0.43293  -0.42034  -0.41847  -0.40160  -0.39794
 Alpha  occ. eigenvalues --   -0.38079  -0.37558  -0.36770  -0.35563  -0.34575
 Alpha  occ. eigenvalues --   -0.33998  -0.29532  -0.26754  -0.24472  -0.24016
 Alpha  occ. eigenvalues --   -0.21110
 Alpha virt. eigenvalues --   -0.06361  -0.02096  -0.01604  -0.00793  -0.00488
 Alpha virt. eigenvalues --    0.00397   0.00917   0.01527   0.01775   0.02197
 Alpha virt. eigenvalues --    0.03139   0.03481   0.03728   0.04034   0.04330

 Mulliken charges:
               1
     1  C   -0.697096
     2  C    0.309964
     3  C    0.299162
     4  C    0.360798
     5  S   -0.376465
     6  H    0.160099
     7  C    0.339444
     8  S   -0.491262
     9  C    0.386676
    10  C    0.093755
    11  C   -0.129600
    12  H    0.143873
    13  S   -0.402132
    14  C   -0.139849
    15  C   -0.264750
    16  H    0.168500
    17  H    0.136340
    18  H    0.124043
    19  O   -0.273506
    20  H    0.252005
 Sum of Mulliken charges =  -0.00000

 Dipole moment (field-independent basis, Debye):
    X=              1.0944    Y=              1.4170    Z=              0.5395  Tot=              1.8700
 Quadrupole moment (field-independent basis, Debye-Ang):
   XX=            -97.8243   YY=            -93.1904   ZZ=           -106.9526
   XY=             -0.2578   XZ=             -1.7631   YZ=              1.4891

 Normal termination of Gaussian 16 at Sun Oct 17 19:41:52 2021.
