 Gaussian 16, Revision C.01,
 Gaussian 16:  ES64L-G16RevC.01  3-Jul-2019

 -------------------------------------
 # opt=modredundant b3lyp/6-311+g(d,p)
 -------------------------------------

 --------------
 pg2T_TT_70.pdb
 --------------
 Symbolic Z-matrix:
 Charge =  0 Multiplicity = 1

 SCF Done:  E(RB3LYP) =  -1654.46021657     A.U. after   17 cycles
 SCF Done:  E(RB3LYP) =  -1654.52526339     A.U. after   14 cycles
 SCF Done:  E(RB3LYP) =  -1654.60610336     A.U. after   16 cycles
 SCF Done:  E(RB3LYP) =  -1654.62089431     A.U. after   15 cycles
 SCF Done:  E(RB3LYP) =  -1654.62777471     A.U. after   14 cycles
 SCF Done:  E(RB3LYP) =  -1654.62921482     A.U. after   14 cycles
 SCF Done:  E(RB3LYP) =  -1654.62997056     A.U. after   13 cycles
 SCF Done:  E(RB3LYP) =  -1654.62993053     A.U. after   14 cycles
 SCF Done:  E(RB3LYP) =  -1654.63032873     A.U. after   12 cycles
 SCF Done:  E(RB3LYP) =  -1654.63033542     A.U. after   12 cycles
 SCF Done:  E(RB3LYP) =  -1654.63034326     A.U. after   12 cycles
 SCF Done:  E(RB3LYP) =  -1654.63034798     A.U. after   11 cycles
 SCF Done:  E(RB3LYP) =  -1654.63034809     A.U. after    9 cycles
 Optimization completed.
    -- Stationary point found.

                         Standard orientation:
 ---------------------------------------------------------------------
 Center     Atomic      Atomic             Coordinates (Angstroms)
 Number     Number       Type             X           Y           Z
 ---------------------------------------------------------------------
      1          6           0        3.827796    0.281229    0.457519
      2          6           0        2.481953    0.676902    0.715286
      3          6           0        1.562396   -0.049144    0.000707
      4          6           0        3.925900   -0.748167   -0.436965
      5         16           0        2.361797   -1.244655   -0.991212
      6          1           0        4.823590   -1.227057   -0.793781
      7          6           0        0.105309    0.038186    0.039498
      8         16           0       -0.709690    1.463296   -0.624896
      9          6           0       -2.270836    0.774391   -0.278178
     10          6           0       -2.135169   -0.486807    0.288705
     11          6           0       -0.789985   -0.909941    0.463376
     12          1           0       -0.482496   -1.854221    0.891142
     13         16           0       -3.698131   -1.174793    0.641172
     14          6           0       -4.492341    0.252445    0.016942
     15          6           0       -3.620801    1.201993   -0.432409
     16          1           0       -5.570824    0.295363    0.020630
     17          1           0       -3.930987    2.148570   -0.852496
     18          1           0        2.200462    1.457144    1.412253
     19          8           0        4.932964    0.839382    1.039653
     20          1           0        4.667593    1.577048    1.597129
 ---------------------------------------------------------------------

 The electronic state is 1-A.
 Alpha  occ. eigenvalues --  -88.88719 -88.88665 -88.88514 -19.16510 -10.24577
 Alpha  occ. eigenvalues --  -10.22656 -10.22523 -10.21479 -10.21412 -10.21343
 Alpha  occ. eigenvalues --  -10.19731 -10.19712 -10.19622 -10.19161  -7.97293
 Alpha  occ. eigenvalues --   -7.97231  -7.97099  -5.93605  -5.93549  -5.93399
 Alpha  occ. eigenvalues --   -5.93240  -5.93185  -5.93023  -5.92843  -5.92765
 Alpha  occ. eigenvalues --   -5.92680  -1.07495  -0.91987  -0.89393  -0.85224
 Alpha  occ. eigenvalues --   -0.77532  -0.76234  -0.74408  -0.71741  -0.70610
 Alpha  occ. eigenvalues --   -0.63076  -0.58692  -0.57866  -0.55473  -0.54509
 Alpha  occ. eigenvalues --   -0.53765  -0.50079  -0.48465  -0.44064  -0.43723
 Alpha  occ. eigenvalues --   -0.43351  -0.42053  -0.41747  -0.40181  -0.39743
 Alpha  occ. eigenvalues --   -0.37981  -0.37435  -0.36356  -0.35315  -0.34510
 Alpha  occ. eigenvalues --   -0.34009  -0.29410  -0.26198  -0.24387  -0.23460
 Alpha  occ. eigenvalues --   -0.22068
 Alpha virt. eigenvalues --   -0.05424  -0.03157  -0.01597  -0.00685  -0.00423
 Alpha virt. eigenvalues --    0.00022   0.00827   0.01543   0.01746   0.02224
 Alpha virt. eigenvalues --    0.03095   0.03371   0.03774   0.04080   0.04304

 Mulliken charges:
               1
     1  C   -0.496478
     2  C   -0.051908
     3  C    0.130430
     4  C    0.219847
     5  S   -0.126790
     6  H    0.161032
     7  C    0.037691
     8  S   -0.456826
     9  C    0.193229
    10  C   -0.552603
    11  C    0.671571
    12  H    0.141167
    13  S   -0.377028
    14  C   -0.206129
    15  C    0.307632
    16  H    0.168328
    17  H    0.136388
    18  H    0.123729
    19  O   -0.276922
    20  H    0.253640
 Sum of Mulliken charges =  -0.00000

 Dipole moment (field-independent basis, Debye):
    X=             -1.0757    Y=              1.1631    Z=              0.9267  Tot=              1.8354
 Quadrupole moment (field-independent basis, Debye-Ang):
   XX=            -97.8765   YY=            -96.8580   ZZ=           -103.1309
   XY=             -0.0428   XZ=              3.2332   YZ=              2.3616

 Normal termination of Gaussian 16 at Sun Oct 17 19:51:08 2021.
