 Gaussian 16, Revision C.01,
 Gaussian 16:  ES64L-G16RevC.01  3-Jul-2019

 -------------------------------------
 # opt=modredundant b3lyp/6-311+g(d,p)
 -------------------------------------

 ---------------
 pg2T_TT_175.pdb
 ---------------
 Symbolic Z-matrix:
 Charge =  0 Multiplicity = 1

 SCF Done:  E(RB3LYP) =  -1654.46208319     A.U. after   17 cycles
 SCF Done:  E(RB3LYP) =  -1654.52686789     A.U. after   15 cycles
 SCF Done:  E(RB3LYP) =  -1654.60736864     A.U. after   15 cycles
 SCF Done:  E(RB3LYP) =  -1654.62193019     A.U. after   15 cycles
 SCF Done:  E(RB3LYP) =  -1654.62846627     A.U. after   14 cycles
 SCF Done:  E(RB3LYP) =  -1654.62984416     A.U. after   14 cycles
 SCF Done:  E(RB3LYP) =  -1654.63058931     A.U. after   12 cycles
 SCF Done:  E(RB3LYP) =  -1654.63061336     A.U. after   12 cycles
 SCF Done:  E(RB3LYP) =  -1654.63077669     A.U. after   12 cycles
 SCF Done:  E(RB3LYP) =  -1654.63080423     A.U. after   11 cycles
 SCF Done:  E(RB3LYP) =  -1654.63080533     A.U. after   11 cycles
 SCF Done:  E(RB3LYP) =  -1654.63080711     A.U. after   10 cycles
 SCF Done:  E(RB3LYP) =  -1654.63080728     A.U. after    9 cycles
 SCF Done:  E(RB3LYP) =  -1654.63080729     A.U. after    9 cycles
 Optimization completed.
    -- Stationary point found.

                         Standard orientation:
 ---------------------------------------------------------------------
 Center     Atomic      Atomic             Coordinates (Angstroms)
 Number     Number       Type             X           Y           Z
 ---------------------------------------------------------------------
      1          6           0        3.760789    0.787971   -0.021549
      2          6           0        2.376140    1.113272   -0.065428
      3          6           0        1.556778    0.006457   -0.015994
      4          6           0        4.001103   -0.555417    0.062319
      5         16           0        2.517906   -1.450684    0.096590
      6          1           0        4.953377   -1.058284    0.103579
      7          6           0        0.107391   -0.022797   -0.018555
      8         16           0       -0.778633   -1.555127   -0.081989
      9          6           0       -2.305212   -0.718109   -0.037740
     10          6           0       -2.109426    0.655992    0.016264
     11          6           0       -0.749512    1.054124    0.030556
     12          1           0       -0.411493    2.079248    0.085843
     13         16           0       -3.639602    1.491940    0.060016
     14          6           0       -4.499317   -0.030671    0.003718
     15          6           0       -3.671011   -1.115474   -0.045587
     16          1           0       -5.578498   -0.023406    0.010505
     17          1           0       -4.023789   -2.136581   -0.084668
     18          1           0        2.004614    2.127487   -0.143298
     19          8           0        4.779612    1.699168   -0.060982
     20          1           0        4.417823    2.588043   -0.126010
 ---------------------------------------------------------------------

 The electronic state is 1-A.
 Alpha  occ. eigenvalues --  -88.88809 -88.88799 -88.88614 -19.16598 -10.24694
 Alpha  occ. eigenvalues --  -10.23063 -10.22900 -10.21625 -10.21563 -10.21384
 Alpha  occ. eigenvalues --  -10.19780 -10.19757 -10.19709 -10.19087  -7.97384
 Alpha  occ. eigenvalues --   -7.97383  -7.97218  -5.93708  -5.93696  -5.93526
 Alpha  occ. eigenvalues --   -5.93347  -5.93331  -5.93150  -5.92929  -5.92900
 Alpha  occ. eigenvalues --   -5.92779  -1.07607  -0.92172  -0.89531  -0.85347
 Alpha  occ. eigenvalues --   -0.77828  -0.76388  -0.74648  -0.71786  -0.70648
 Alpha  occ. eigenvalues --   -0.63355  -0.59126  -0.57918  -0.55282  -0.54978
 Alpha  occ. eigenvalues --   -0.53713  -0.50338  -0.48599  -0.44239  -0.43785
 Alpha  occ. eigenvalues --   -0.43310  -0.42026  -0.41471  -0.40514  -0.39499
 Alpha  occ. eigenvalues --   -0.38208  -0.37628  -0.37462  -0.35925  -0.34311
 Alpha  occ. eigenvalues --   -0.33892  -0.29754  -0.27059  -0.24874  -0.23805
 Alpha  occ. eigenvalues --   -0.20564
 Alpha virt. eigenvalues --   -0.07001  -0.02520  -0.01506  -0.00989  -0.00432
 Alpha virt. eigenvalues --    0.00479   0.01473   0.01746   0.01955   0.02633
 Alpha virt. eigenvalues --    0.02839   0.03340   0.03992   0.04222   0.04848

 Mulliken charges:
               1
     1  C   -0.686782
     2  C    0.871742
     3  C    0.045705
     4  C    0.376444
     5  S   -0.524388
     6  H    0.157500
     7  C   -0.216874
     8  S   -0.599014
     9  C    0.292713
    10  C    0.311785
    11  C    0.143075
    12  H    0.124011
    13  S   -0.410783
    14  C   -0.150763
    15  C   -0.129494
    16  H    0.169010
    17  H    0.135858
    18  H    0.109476
    19  O   -0.271512
    20  H    0.252291
 Sum of Mulliken charges =  -0.00000

 Dipole moment (field-independent basis, Debye):
    X=             -1.2643    Y=              1.3666    Z=             -0.0858  Tot=              1.8637
 Quadrupole moment (field-independent basis, Debye-Ang):
   XX=            -98.0795   YY=            -91.2275   ZZ=           -108.8945
   XY=              5.6193   XZ=             -0.1417   YZ=             -0.3966

 Normal termination of Gaussian 16 at Sun Oct 17 20:02:07 2021.
