 Gaussian 16, Revision C.01,
 Gaussian 16:  ES64L-G16RevC.01  3-Jul-2019

 -------------------------------------
 # opt=modredundant b3lyp/6-311+g(d,p)
 -------------------------------------

 ---------------
 pg2T_TT_-35.pdb
 ---------------
 Symbolic Z-matrix:
 Charge =  0 Multiplicity = 1

 SCF Done:  E(RB3LYP) =  -1654.46395272     A.U. after   18 cycles
 SCF Done:  E(RB3LYP) =  -1654.52879689     A.U. after   14 cycles
 SCF Done:  E(RB3LYP) =  -1654.60934174     A.U. after   15 cycles
 SCF Done:  E(RB3LYP) =  -1654.62400473     A.U. after   15 cycles
 SCF Done:  E(RB3LYP) =  -1654.63067190     A.U. after   15 cycles
 SCF Done:  E(RB3LYP) =  -1654.63209414     A.U. after   14 cycles
 SCF Done:  E(RB3LYP) =  -1654.63282096     A.U. after   14 cycles
 SCF Done:  E(RB3LYP) =  -1654.63286983     A.U. after   12 cycles
 SCF Done:  E(RB3LYP) =  -1654.63290323     A.U. after   12 cycles
 SCF Done:  E(RB3LYP) =  -1654.63294313     A.U. after   12 cycles
 SCF Done:  E(RB3LYP) =  -1654.63294465     A.U. after   10 cycles
 SCF Done:  E(RB3LYP) =  -1654.63294478     A.U. after   10 cycles
 SCF Done:  E(RB3LYP) =  -1654.63294500     A.U. after    9 cycles
 Optimization completed.
    -- Stationary point found.

                         Standard orientation:
 ---------------------------------------------------------------------
 Center     Atomic      Atomic             Coordinates (Angstroms)
 Number     Number       Type             X           Y           Z
 ---------------------------------------------------------------------
      1          6           0       -3.823524    0.395713    0.244183
      2          6           0       -2.479345    0.855453    0.357287
      3          6           0       -1.553465   -0.095992   -0.001652
      4          6           0       -3.919780   -0.896512   -0.191360
      5         16           0       -2.351516   -1.570839   -0.495844
      6          1           0       -4.815102   -1.474752   -0.352525
      7          6           0       -0.107174    0.001208    0.004160
      8         16           0        0.670707    1.540377   -0.397852
      9          6           0        2.250475    0.839038   -0.175269
     10          6           0        2.147020   -0.505338    0.159563
     11          6           0        0.815059   -0.983756    0.265446
     12          1           0        0.537311   -1.990448    0.545926
     13         16           0        3.728031   -1.205753    0.382985
     14          6           0        4.484772    0.327935    0.017891
     15          6           0        3.587379    1.320068   -0.256344
     16          1           0        5.561854    0.396065    0.027429
     17          1           0        3.872252    2.333099   -0.503934
     18          1           0       -2.206214    1.838781    0.720686
     19          8           0       -4.931082    1.138005    0.548020
     20          1           0       -4.665490    2.025763    0.806197
 ---------------------------------------------------------------------

 The electronic state is 1-A.
 Alpha  occ. eigenvalues --  -88.88800 -88.88772 -88.88576 -19.16557 -10.24661
 Alpha  occ. eigenvalues --  -10.22900 -10.22749 -10.21578 -10.21522 -10.21370
 Alpha  occ. eigenvalues --  -10.19747 -10.19723 -10.19687 -10.19107  -7.97376
 Alpha  occ. eigenvalues --   -7.97345  -7.97169  -5.93698  -5.93657  -5.93476
 Alpha  occ. eigenvalues --   -5.93337  -5.93292  -5.93100  -5.92897  -5.92894
 Alpha  occ. eigenvalues --   -5.92735  -1.07562  -0.92115  -0.89487  -0.85320
 Alpha  occ. eigenvalues --   -0.77658  -0.76449  -0.74544  -0.71786  -0.70638
 Alpha  occ. eigenvalues --   -0.63269  -0.58855  -0.57991  -0.55694  -0.54731
 Alpha  occ. eigenvalues --   -0.53392  -0.50166  -0.48537  -0.44237  -0.43812
 Alpha  occ. eigenvalues --   -0.43292  -0.42029  -0.41865  -0.40156  -0.39805
 Alpha  occ. eigenvalues --   -0.38089  -0.37578  -0.36859  -0.35591  -0.34578
 Alpha  occ. eigenvalues --   -0.33989  -0.29553  -0.26839  -0.24470  -0.24078
 Alpha  occ. eigenvalues --   -0.20996
 Alpha virt. eigenvalues --   -0.06490  -0.01996  -0.01589  -0.00819  -0.00497
 Alpha virt. eigenvalues --    0.00484   0.00941   0.01538   0.01776   0.02195
 Alpha virt. eigenvalues --    0.03124   0.03449   0.03778   0.04025   0.04344

 Mulliken charges:
               1
     1  C   -0.709411
     2  C    0.419468
     3  C    0.247382
     4  C    0.371908
     5  S   -0.409577
     6  H    0.159792
     7  C    0.257128
     8  S   -0.519553
     9  C    0.382560
    10  C    0.130739
    11  C   -0.076653
    12  H    0.143050
    13  S   -0.404707
    14  C   -0.137873
    15  C   -0.261096
    16  H    0.168563
    17  H    0.136206
    18  H    0.123571
    19  O   -0.273462
    20  H    0.251962
 Sum of Mulliken charges =  -0.00000

 Dipole moment (field-independent basis, Debye):
    X=              1.1038    Y=              1.4381    Z=              0.4858  Tot=              1.8768
 Quadrupole moment (field-independent basis, Debye-Ang):
   XX=            -97.8058   YY=            -92.7983   ZZ=           -107.3763
   XY=             -0.2786   XZ=             -1.5370   YZ=              1.3248

 Normal termination of Gaussian 16 at Sun Oct 17 19:41:45 2021.
