 Gaussian 16, Revision C.01,
 Gaussian 16:  ES64L-G16RevC.01  3-Jul-2019

 --------------------------------------
 # opt=modredundant wb97xd/6-311+g(d,p)
 --------------------------------------

 ----------
 NDI_35.pdb
 ----------
 Symbolic Z-matrix:
 Charge =  0 Multiplicity = 1

 SCF Done:  E(RwB97XD) =  -2358.76431355     A.U. after   19 cycles
 SCF Done:  E(RwB97XD) =  -2358.75816864     A.U. after   19 cycles
 SCF Done:  E(RwB97XD) =  -2358.76835911     A.U. after   16 cycles
 SCF Done:  E(RwB97XD) =  -2358.77139445     A.U. after   16 cycles
 SCF Done:  E(RwB97XD) =  -2358.77173669     A.U. after   18 cycles
 SCF Done:  E(RwB97XD) =  -2358.77245383     A.U. after   14 cycles
 SCF Done:  E(RwB97XD) =  -2358.77290359     A.U. after   17 cycles
 SCF Done:  E(RwB97XD) =  -2358.77309306     A.U. after   15 cycles
 SCF Done:  E(RwB97XD) =  -2358.77329960     A.U. after   16 cycles
 SCF Done:  E(RwB97XD) =  -2358.77352004     A.U. after   16 cycles
 SCF Done:  E(RwB97XD) =  -2358.77382417     A.U. after   13 cycles
 SCF Done:  E(RwB97XD) =  -2358.77382675     A.U. after   13 cycles
 SCF Done:  E(RwB97XD) =  -2358.77382750     A.U. after   13 cycles
 SCF Done:  E(RwB97XD) =  -2358.77382804     A.U. after   13 cycles
 SCF Done:  E(RwB97XD) =  -2358.77382833     A.U. after   13 cycles
 SCF Done:  E(RwB97XD) =  -2358.77382850     A.U. after   11 cycles
 SCF Done:  E(RwB97XD) =  -2358.77382874     A.U. after   13 cycles
 SCF Done:  E(RwB97XD) =  -2358.77382880     A.U. after    9 cycles
 SCF Done:  E(RwB97XD) =  -2358.77382884     A.U. after    9 cycles
 SCF Done:  E(RwB97XD) =  -2358.77382885     A.U. after    9 cycles
 Optimization completed.
    -- Stationary point found.

                         Standard orientation:
 ---------------------------------------------------------------------
 Center     Atomic      Atomic             Coordinates (Angstroms)
 Number     Number       Type             X           Y           Z
 ---------------------------------------------------------------------
      1          6           0       -2.722527   -2.978453    0.373868
      2          6           0       -2.330354   -1.555852    0.189964
      3          6           0       -3.317217   -0.557493    0.058568
      4          6           0       -4.684272   -0.889851    0.113732
      5          6           0       -5.106840   -2.304901    0.301826
      6          6           0       -1.009346   -1.216558    0.191540
      7          6           0       -2.911046    0.780289   -0.131818
      8          6           0       -1.528713    1.116453   -0.189941
      9          6           0       -0.565095    0.126206    0.027217
     10          6           0       -1.183224    2.504302   -0.619893
     11          6           0       -3.563634    3.190385   -0.440366
     12          6           0       -3.919305    1.764228   -0.247162
     13          6           0       -5.252368    1.423898   -0.178178
     14          6           0       -5.642826    0.090398   -0.001648
     15          1           0       -6.688879   -0.185079    0.047174
     16          1           0       -5.990268    2.212130   -0.263445
     17          1           0       -0.282154   -2.003096    0.355345
     18          7           0       -2.209484    3.459542   -0.604260
     19          7           0       -4.088138   -3.255769    0.413753
     20          8           0       -1.910983   -3.869008    0.485210
     21          8           0       -6.273212   -2.621567    0.353797
     22          8           0       -4.398009    4.067861   -0.475733
     23          8           0       -0.085059    2.844382   -0.995266
     24          6           0       -1.814327    4.827892   -0.934854
     25          1           0       -0.968086    5.120786   -0.315034
     26          1           0       -1.514913    4.892103   -1.981974
     27          1           0       -2.666773    5.474854   -0.750188
     28          6           0       -4.456168   -4.659377    0.594715
     29          1           0       -4.043009   -5.255445   -0.219049
     30          1           0       -4.049733   -5.028464    1.536566
     31          1           0       -5.540042   -4.724114    0.599476
     32          6           0        0.871232    0.351854    0.199568
     33          6           0        1.513612    1.394476    0.809519
     34         16           0        2.005322   -0.830883   -0.368952
     35          6           0        2.915334    1.240872    0.819049
     36          1           0        0.995854    2.238740    1.237167
     37          6           0        3.359749    0.082641    0.208991
     38          8           0        3.810191    2.100805    1.357419
     39          6           0        4.727513   -0.349522    0.032833
     40          6           0        3.327387    3.362889    1.772846
     41          6           0        5.162824   -1.520627   -0.551766
     42         16           0        6.097470    0.594816    0.549251
     43          1           0        4.201458    3.936976    2.075041
     44          1           0        2.815423    3.876823    0.952336
     45          1           0        2.648504    3.264667    2.627221
     46          6           0        6.577630   -1.657973   -0.585165
     47          8           0        4.259094   -2.406240   -1.028228
     48          6           0        7.199627   -0.584365   -0.023148
     49          1           0        7.105392   -2.503983   -1.001125
     50          6           0        4.748057   -3.602052   -1.600535
     51          1           0        8.261653   -0.425898    0.087648
     52          1           0        5.320948   -4.183732   -0.870417
     53          1           0        3.872034   -4.170715   -1.906879
     54          1           0        5.370873   -3.394296   -2.477247
 ---------------------------------------------------------------------

 The electronic state is 1-A.
 Alpha  occ. eigenvalues --  -89.05032 -89.04703 -19.29140 -19.28925 -19.24990
 Alpha  occ. eigenvalues --  -19.24952 -19.24557 -19.24536 -14.50547 -14.50197
 Alpha  occ. eigenvalues --  -10.42772 -10.42565 -10.42550 -10.42286 -10.35499
 Alpha  occ. eigenvalues --  -10.35395 -10.35347 -10.34579 -10.34391 -10.34347
 Alpha  occ. eigenvalues --  -10.34097 -10.33910 -10.33731 -10.33694 -10.33534
 Alpha  occ. eigenvalues --  -10.33140 -10.32975 -10.32795 -10.32659 -10.32586
 Alpha  occ. eigenvalues --  -10.32446 -10.32194 -10.32117 -10.31861 -10.29964
 Alpha  occ. eigenvalues --  -10.29722  -8.09060  -8.08724  -6.03908  -6.03567
 Alpha  occ. eigenvalues --   -6.03511  -6.03171  -6.03134  -6.02812  -1.19458
 Alpha  occ. eigenvalues --   -1.19234  -1.18856  -1.18656  -1.17548  -1.17246
 Alpha  occ. eigenvalues --   -1.06709  -1.06312  -1.03122  -1.00710  -0.99039
 Alpha  occ. eigenvalues --   -0.97107  -0.94642  -0.90547  -0.88625  -0.87454
 Alpha  occ. eigenvalues --   -0.86071  -0.85242  -0.84857  -0.82832  -0.82273
 Alpha  occ. eigenvalues --   -0.81517  -0.79635  -0.78361  -0.76872  -0.75499
 Alpha  occ. eigenvalues --   -0.75184  -0.74227  -0.70281  -0.68933  -0.67928
 Alpha  occ. eigenvalues --   -0.66595  -0.65783  -0.65190  -0.64579  -0.63679
 Alpha  occ. eigenvalues --   -0.62468  -0.60690  -0.59735  -0.59221  -0.58798
 Alpha  occ. eigenvalues --   -0.58289  -0.57689  -0.57443  -0.57309  -0.57056
 Alpha  occ. eigenvalues --   -0.56622  -0.55831  -0.55455  -0.55177  -0.54419
 Alpha  occ. eigenvalues --   -0.53959  -0.53555  -0.53407  -0.53195  -0.52156
 Alpha  occ. eigenvalues --   -0.51619  -0.51119  -0.50970  -0.50599  -0.50332
 Alpha  occ. eigenvalues --   -0.50120  -0.49521  -0.49456  -0.48888  -0.48403
 Alpha  occ. eigenvalues --   -0.48054  -0.47689  -0.46964  -0.45787  -0.45565
 Alpha  occ. eigenvalues --   -0.44375  -0.44114  -0.42476  -0.41884  -0.41355
 Alpha  occ. eigenvalues --   -0.41176  -0.40167  -0.39631  -0.38571  -0.37709
 Alpha  occ. eigenvalues --   -0.37314  -0.37043  -0.36882  -0.36312  -0.34606
 Alpha  occ. eigenvalues --   -0.33139  -0.31793  -0.31613  -0.25638
 Alpha virt. eigenvalues --   -0.07197  -0.00765   0.00499   0.02402   0.03451
 Alpha virt. eigenvalues --    0.05142   0.05734   0.06025   0.06759   0.06997
 Alpha virt. eigenvalues --    0.07236   0.07463   0.07747   0.07861   0.07992

 Mulliken charges:
               1
     1  C    0.412608
     2  C   -0.141148
     3  C    0.114202
     4  C    0.188540
     5  C    0.358713
     6  C   -0.400737
     7  C    0.135059
     8  C    0.434790
     9  C    0.361170
    10  C   -0.583887
    11  C    0.299361
    12  C    0.091379
    13  C   -0.530106
    14  C   -0.674798
    15  H    0.187326
    16  H    0.188038
    17  H    0.202425
    18  N    0.008705
    19  N   -0.090821
    20  O   -0.266762
    21  O   -0.266359
    22  O   -0.276097
    23  O   -0.192806
    24  C   -0.258659
    25  H    0.183286
    26  H    0.200531
    27  H    0.200694
    28  C   -0.283889
    29  H    0.192766
    30  H    0.193878
    31  H    0.199975
    32  C    0.161738
    33  C   -0.500606
    34  S   -0.672800
    35  C   -0.147079
    36  H    0.153745
    37  C    0.670116
    38  O   -0.108319
    39  C    0.887111
    40  C   -0.314129
    41  C    0.008748
    42  S   -0.283384
    43  H    0.182072
    44  H    0.177754
    45  H    0.156077
    46  C   -0.642233
    47  O   -0.110765
    48  C   -0.341412
    49  H    0.156823
    50  C   -0.307257
    51  H    0.187051
    52  H    0.158764
    53  H    0.182947
    54  H    0.157661
 Sum of Mulliken charges =  -0.00000

 Dipole moment (field-independent basis, Debye):
    X=              2.8912    Y=             -0.2687    Z=              0.2459  Tot=              2.9140
 Quadrupole moment (field-independent basis, Debye-Ang):
   XX=           -214.8863   YY=           -208.5288   ZZ=           -218.1947
   XY=             -4.0480   XZ=             -2.8573   YZ=             12.5814

 Normal termination of Gaussian 16 at Fri Nov 27 05:45:58 2020.
