 Gaussian 16, Revision C.01,
 Gaussian 16:  ES64L-G16RevC.01  3-Jul-2019

 --------------------------------------
 # opt=modredundant wb97xd/6-311+g(d,p)
 --------------------------------------

 ----------
 NDI_65.pdb
 ----------
 Symbolic Z-matrix:
 Charge =  0 Multiplicity = 1

 SCF Done:  E(RwB97XD) =  -2358.76521843     A.U. after   19 cycles
 SCF Done:  E(RwB97XD) =  -2358.77178108     A.U. after   16 cycles
 SCF Done:  E(RwB97XD) =  -2358.77280399     A.U. after   17 cycles
 SCF Done:  E(RwB97XD) =  -2358.77330939     A.U. after   15 cycles
 SCF Done:  E(RwB97XD) =  -2358.77343918     A.U. after   15 cycles
 SCF Done:  E(RwB97XD) =  -2358.77354942     A.U. after   14 cycles
 SCF Done:  E(RwB97XD) =  -2358.77362534     A.U. after   14 cycles
 SCF Done:  E(RwB97XD) =  -2358.77377811     A.U. after   17 cycles
 SCF Done:  E(RwB97XD) =  -2358.77384915     A.U. after   15 cycles
 SCF Done:  E(RwB97XD) =  -2358.77387990     A.U. after   15 cycles
 SCF Done:  E(RwB97XD) =  -2358.77396507     A.U. after   12 cycles
 SCF Done:  E(RwB97XD) =  -2358.77396536     A.U. after   12 cycles
 SCF Done:  E(RwB97XD) =  -2358.77396564     A.U. after   12 cycles
 SCF Done:  E(RwB97XD) =  -2358.77396586     A.U. after   11 cycles
 SCF Done:  E(RwB97XD) =  -2358.77396598     A.U. after   11 cycles
 SCF Done:  E(RwB97XD) =  -2358.77396604     A.U. after   11 cycles
 SCF Done:  E(RwB97XD) =  -2358.77396606     A.U. after   11 cycles
 SCF Done:  E(RwB97XD) =  -2358.77396609     A.U. after   12 cycles
 SCF Done:  E(RwB97XD) =  -2358.77396608     A.U. after    8 cycles
 SCF Done:  E(RwB97XD) =  -2358.77396608     A.U. after   10 cycles
 Optimization completed.
    -- Stationary point found.

                         Standard orientation:
 ---------------------------------------------------------------------
 Center     Atomic      Atomic             Coordinates (Angstroms)
 Number     Number       Type             X           Y           Z
 ---------------------------------------------------------------------
      1          6           0       -2.985445   -2.876325    0.585420
      2          6           0       -2.470258   -1.503255    0.339177
      3          6           0       -3.363454   -0.452857    0.046762
      4          6           0       -4.752758   -0.685418   -0.009527
      5          6           0       -5.296706   -2.049734    0.234356
      6          6           0       -1.127136   -1.258142    0.421611
      7          6           0       -2.849616    0.839079   -0.193056
      8          6           0       -1.449690    1.073242   -0.140119
      9          6           0       -0.589864    0.036941    0.207089
     10          6           0       -0.945519    2.422900   -0.539639
     11          6           0       -3.278115    3.261149   -0.726488
     12          6           0       -3.762356    1.880117   -0.475246
     13          6           0       -5.115981    1.636025   -0.518959
     14          6           0       -5.617558    0.346570   -0.288094
     15          1           0       -6.681359    0.147048   -0.324558
     16          1           0       -5.783563    2.461335   -0.734166
     17          1           0       -0.459901   -2.072037    0.679919
     18          7           0       -1.898059    3.434999   -0.723182
     19          7           0       -4.366816   -3.055400    0.511688
     20          8           0       -2.257994   -3.808776    0.839318
     21          8           0       -6.483535   -2.280306    0.193935
     22          8           0       -4.037187    4.181746   -0.932915
     23          8           0        0.220686    2.677518   -0.721177
     24          6           0       -1.366471    4.758363   -1.047417
     25          1           0       -0.611375    5.035026   -0.313042
     26          1           0       -0.901366    4.745517   -2.034130
     27          1           0       -2.192322    5.463253   -1.033297
     28          6           0       -4.854161   -4.412561    0.755567
     29          1           0       -4.408269   -5.097790    0.034669
     30          1           0       -4.570770   -4.731351    1.758861
     31          1           0       -5.935074   -4.404454    0.652860
     32          6           0        0.862126    0.191258    0.403424
     33          6           0        1.496171    0.917874    1.366526
     34         16           0        1.974214   -0.708739   -0.559811
     35          6           0        2.904562    0.765842    1.311688
     36          1           0        0.970188    1.544681    2.072421
     37          6           0        3.340371   -0.082001    0.316533
     38          8           0        3.803480    1.357527    2.133366
     39          6           0        4.706871   -0.420783   -0.019159
     40          6           0        3.330386    2.380372    2.984824
     41          6           0        5.134376   -1.300149   -0.990066
     42         16           0        6.083328    0.281938    0.783988
     43          1           0        4.206335    2.784820    3.489075
     44          1           0        2.839263    3.174176    2.411663
     45          1           0        2.636191    1.983494    3.733992
     46          6           0        6.549106   -1.408563   -1.089970
     47          8           0        4.223375   -1.962728   -1.741972
     48          6           0        7.179783   -0.605712   -0.188712
     49          1           0        7.070700   -2.046273   -1.789063
     50          6           0        4.707965   -2.851669   -2.726082
     51          1           0        8.243067   -0.492692   -0.041136
     52          1           0        5.297035   -3.658109   -2.275756
     53          1           0        3.829946   -3.275124   -3.210621
     54          1           0        5.314371   -2.325126   -3.471171
 ---------------------------------------------------------------------

 The electronic state is 1-A.
 Alpha  occ. eigenvalues --  -89.04647 -89.04230 -19.28663 -19.28591 -19.25182
 Alpha  occ. eigenvalues --  -19.25117 -19.24850 -19.24785 -14.50725 -14.50423
 Alpha  occ. eigenvalues --  -10.42978 -10.42744 -10.42709 -10.42609 -10.35221
 Alpha  occ. eigenvalues --  -10.34982 -10.34905 -10.34603 -10.34518 -10.34333
 Alpha  occ. eigenvalues --  -10.34271 -10.34226 -10.34043 -10.33980 -10.33942
 Alpha  occ. eigenvalues --  -10.33048 -10.33032 -10.32988 -10.32758 -10.32326
 Alpha  occ. eigenvalues --  -10.32316 -10.32173 -10.31979 -10.31336 -10.29552
 Alpha  occ. eigenvalues --  -10.29285  -8.08660  -8.08253  -6.03514  -6.03116
 Alpha  occ. eigenvalues --   -6.03096  -6.02728  -6.02700  -6.02342  -1.19640
 Alpha  occ. eigenvalues --   -1.19457  -1.18373  -1.18284  -1.17734  -1.17512
 Alpha  occ. eigenvalues --   -1.06899  -1.06539  -1.03432  -1.00353  -0.98721
 Alpha  occ. eigenvalues --   -0.97204  -0.94934  -0.90541  -0.88881  -0.87162
 Alpha  occ. eigenvalues --   -0.85773  -0.85414  -0.84406  -0.82733  -0.82199
 Alpha  occ. eigenvalues --   -0.81493  -0.79390  -0.78234  -0.77033  -0.75737
 Alpha  occ. eigenvalues --   -0.75302  -0.74376  -0.70187  -0.68706  -0.67815
 Alpha  occ. eigenvalues --   -0.66790  -0.65595  -0.64859  -0.64617  -0.63233
 Alpha  occ. eigenvalues --   -0.62698  -0.60868  -0.59890  -0.59323  -0.59012
 Alpha  occ. eigenvalues --   -0.58071  -0.57795  -0.57424  -0.57113  -0.56766
 Alpha  occ. eigenvalues --   -0.56395  -0.56121  -0.55550  -0.55364  -0.54242
 Alpha  occ. eigenvalues --   -0.54081  -0.53567  -0.53472  -0.53173  -0.52424
 Alpha  occ. eigenvalues --   -0.51663  -0.51236  -0.51173  -0.50380  -0.50283
 Alpha  occ. eigenvalues --   -0.49771  -0.49616  -0.49265  -0.48991  -0.48439
 Alpha  occ. eigenvalues --   -0.48309  -0.47218  -0.46875  -0.45855  -0.45191
 Alpha  occ. eigenvalues --   -0.44161  -0.43705  -0.42219  -0.41531  -0.41150
 Alpha  occ. eigenvalues --   -0.40792  -0.40439  -0.39774  -0.38666  -0.37647
 Alpha  occ. eigenvalues --   -0.37481  -0.37097  -0.37027  -0.36170  -0.34780
 Alpha  occ. eigenvalues --   -0.33387  -0.31550  -0.31299  -0.25428
 Alpha virt. eigenvalues --   -0.07273  -0.00153   0.00522   0.02212   0.02933
 Alpha virt. eigenvalues --    0.04971   0.05914   0.06065   0.06762   0.06880
 Alpha virt. eigenvalues --    0.07320   0.07482   0.07601   0.07728   0.07826

 Mulliken charges:
               1
     1  C    0.468449
     2  C   -0.075266
     3  C    0.088187
     4  C    0.164641
     5  C    0.356865
     6  C   -0.820991
     7  C    0.139855
     8  C    0.181044
     9  C    0.572185
    10  C   -0.403808
    11  C    0.382097
    12  C    0.109073
    13  C   -0.568669
    14  C   -0.723063
    15  H    0.188422
    16  H    0.189280
    17  H    0.206556
    18  N   -0.066869
    19  N   -0.096711
    20  O   -0.258983
    21  O   -0.267748
    22  O   -0.273321
    23  O   -0.109611
    24  C   -0.270720
    25  H    0.189666
    26  H    0.201996
    27  H    0.201205
    28  C   -0.282497
    29  H    0.193331
    30  H    0.194820
    31  H    0.200857
    32  C    0.230050
    33  C   -0.390149
    34  S   -0.418128
    35  C   -0.327032
    36  H    0.145728
    37  C    0.445757
    38  O   -0.106107
    39  C    0.909632
    40  C   -0.303452
    41  C    0.036683
    42  S   -0.283172
    43  H    0.181414
    44  H    0.173497
    45  H    0.154819
    46  C   -0.511853
    47  O   -0.116789
    48  C   -0.360251
    49  H    0.154885
    50  C   -0.304456
    51  H    0.184944
    52  H    0.155832
    53  H    0.179256
    54  H    0.158620
 Sum of Mulliken charges =  -0.00000

 Dipole moment (field-independent basis, Debye):
    X=              1.5621    Y=              0.0691    Z=              0.0907  Tot=              1.5663
 Quadrupole moment (field-independent basis, Debye-Ang):
   XX=           -217.3539   YY=           -217.9590   ZZ=           -208.2495
   XY=             -1.8701   XZ=             -7.0639   YZ=             16.3489

 Normal termination of Gaussian 16 at Fri Nov 27 06:16:19 2020.
