 Gaussian 16, Revision C.01,
 Gaussian 16:  ES64L-G16RevC.01  3-Jul-2019

 --------------------------------------
 # opt=modredundant wb97xd/6-311+g(d,p)
 --------------------------------------

 ------------
 NDI_-110.pdb
 ------------
 Symbolic Z-matrix:
 Charge =  0 Multiplicity = 1

 SCF Done:  E(RwB97XD) =  -2358.76359888     A.U. after   20 cycles
 SCF Done:  E(RwB97XD) =  -2358.77204349     A.U. after   17 cycles
 SCF Done:  E(RwB97XD) =  -2358.77311946     A.U. after   17 cycles
 SCF Done:  E(RwB97XD) =  -2358.77323077     A.U. after   17 cycles
 SCF Done:  E(RwB97XD) =  -2358.77353966     A.U. after   16 cycles
 SCF Done:  E(RwB97XD) =  -2358.77361661     A.U. after   15 cycles
 SCF Done:  E(RwB97XD) =  -2358.77368324     A.U. after   13 cycles
 SCF Done:  E(RwB97XD) =  -2358.77370000     A.U. after   14 cycles
 SCF Done:  E(RwB97XD) =  -2358.77370857     A.U. after   13 cycles
 SCF Done:  E(RwB97XD) =  -2358.77371973     A.U. after   13 cycles
 SCF Done:  E(RwB97XD) =  -2358.77371350     A.U. after   13 cycles
 SCF Done:  E(RwB97XD) =  -2358.77371367     A.U. after   11 cycles
 SCF Done:  E(RwB97XD) =  -2358.77375438     A.U. after   16 cycles
 SCF Done:  E(RwB97XD) =  -2358.77375702     A.U. after   13 cycles
 SCF Done:  E(RwB97XD) =  -2358.77371426     A.U. after   13 cycles
 SCF Done:  E(RwB97XD) =  -2358.77371447     A.U. after   10 cycles
 SCF Done:  E(RwB97XD) =  -2358.77371398     A.U. after   11 cycles
 SCF Done:  E(RwB97XD) =  -2358.77371439     A.U. after   11 cycles
 SCF Done:  E(RwB97XD) =  -2358.77371446     A.U. after    9 cycles
 SCF Done:  E(RwB97XD) =  -2358.77371447     A.U. after    8 cycles
 Optimization completed.
    -- Stationary point found.

                         Standard orientation:
 ---------------------------------------------------------------------
 Center     Atomic      Atomic             Coordinates (Angstroms)
 Number     Number       Type             X           Y           Z
 ---------------------------------------------------------------------
      1          6           0       -3.449769   -2.746362    0.322105
      2          6           0       -2.720980   -1.473044    0.081688
      3          6           0       -3.414702   -0.246626    0.097689
      4          6           0       -4.800523   -0.206026    0.355341
      5          6           0       -5.554136   -1.464968    0.607063
      6          6           0       -1.369245   -1.492881   -0.135362
      7          6           0       -2.705929    0.947839   -0.148356
      8          6           0       -1.312836    0.907891   -0.413264
      9          6           0       -0.636663   -0.304151   -0.374054
     10          6           0       -0.629657    2.178542   -0.803479
     11          6           0       -2.706883    3.457721   -0.342074
     12          6           0       -3.413007    2.170542   -0.110885
     13          6           0       -4.763687    2.191025    0.149416
     14          6           0       -5.464937    0.997233    0.380345
     15          1           0       -6.528857    1.006499    0.582722
     16          1           0       -5.271896    3.147156    0.175358
     17          1           0       -0.843023   -2.439732   -0.112812
     18          7           0       -1.351944    3.368412   -0.643343
     19          7           0       -4.819274   -2.653446    0.570567
     20          8           0       -2.899917   -3.823822    0.306962
     21          8           0       -6.743013   -1.463747    0.830202
     22          8           0       -3.277771    4.523653   -0.280839
     23          8           0        0.489976    2.221452   -1.251867
     24          6           0       -0.628769    4.602025   -0.950657
     25          1           0        0.334043    4.588497   -0.442865
     26          1           0       -0.454403    4.680952   -2.025009
     27          1           0       -1.233084    5.438260   -0.611685
     28          6           0       -5.517514   -3.916370    0.808302
     29          1           0       -5.412490   -4.564513   -0.061873
     30          1           0       -5.082095   -4.420370    1.671222
     31          1           0       -6.564432   -3.692325    0.989175
     32          6           0        0.822737   -0.453879   -0.542239
     33          6           0        1.473926   -1.008528   -1.602253
     34         16           0        1.906898    0.011407    0.713139
     35          6           0        2.881731   -1.028325   -1.411672
     36          1           0        0.965119   -1.355597   -2.490523
     37          6           0        3.291887   -0.513565   -0.202424
     38          8           0        3.798936   -1.502083   -2.287844
     39          6           0        4.645878   -0.411985    0.301118
     40          6           0        3.330621   -1.971312   -3.534263
     41          6           0        5.049801    0.096424    1.516142
     42         16           0        6.036349   -0.938717   -0.605724
     43          1           0        4.212456   -2.282720   -4.091392
     44          1           0        2.661007   -2.829545   -3.409087
     45          1           0        2.813838   -1.178736   -4.086440
     46          6           0        6.457600    0.065726    1.717360
     47          8           0        4.124528    0.563069    2.389483
     48          6           0        7.107361   -0.469040    0.646746
     49          1           0        6.961217    0.419917    2.605317
     50          6           0        4.588962    1.100278    3.609269
     51          1           0        8.170513   -0.612867    0.528036
     52          1           0        5.244502    1.961442    3.439116
     53          1           0        3.704062    1.423736    4.154748
     54          1           0        5.120594    0.344853    4.198392
 ---------------------------------------------------------------------

 The electronic state is 1-A.
 Alpha  occ. eigenvalues --  -89.04392 -89.04105 -19.28555 -19.28528 -19.25246
 Alpha  occ. eigenvalues --  -19.25194 -19.24872 -19.24858 -14.50793 -14.50409
 Alpha  occ. eigenvalues --  -10.43046 -10.42822 -10.42679 -10.42638 -10.35155
 Alpha  occ. eigenvalues --  -10.34881 -10.34746 -10.34650 -10.34598 -10.34441
 Alpha  occ. eigenvalues --  -10.34240 -10.34177 -10.34116 -10.34051 -10.34047
 Alpha  occ. eigenvalues --  -10.33170 -10.33120 -10.33080 -10.32736 -10.32384
 Alpha  occ. eigenvalues --  -10.32097 -10.32073 -10.31862 -10.31190 -10.29487
 Alpha  occ. eigenvalues --  -10.29172  -8.08408  -8.08129  -6.03267  -6.02971
 Alpha  occ. eigenvalues --   -6.02868  -6.02575  -6.02467  -6.02218  -1.19704
 Alpha  occ. eigenvalues --   -1.19474  -1.18276  -1.18195  -1.17802  -1.17540
 Alpha  occ. eigenvalues --   -1.06963  -1.06573  -1.03515  -1.00223  -0.98643
 Alpha  occ. eigenvalues --   -0.97207  -0.95005  -0.90545  -0.88942  -0.87082
 Alpha  occ. eigenvalues --   -0.85707  -0.85426  -0.84267  -0.82695  -0.82303
 Alpha  occ. eigenvalues --   -0.81285  -0.79416  -0.78184  -0.77047  -0.75788
 Alpha  occ. eigenvalues --   -0.75290  -0.74452  -0.70114  -0.68682  -0.67765
 Alpha  occ. eigenvalues --   -0.66846  -0.65690  -0.64608  -0.64477  -0.63150
 Alpha  occ. eigenvalues --   -0.62902  -0.60905  -0.59925  -0.59320  -0.59067
 Alpha  occ. eigenvalues --   -0.57939  -0.57843  -0.57441  -0.57043  -0.56704
 Alpha  occ. eigenvalues --   -0.56341  -0.56217  -0.55620  -0.55401  -0.54202
 Alpha  occ. eigenvalues --   -0.53998  -0.53778  -0.53414  -0.53133  -0.52494
 Alpha  occ. eigenvalues --   -0.51712  -0.51297  -0.51137  -0.50401  -0.50105
 Alpha  occ. eigenvalues --   -0.49742  -0.49611  -0.49267  -0.48923  -0.48467
 Alpha  occ. eigenvalues --   -0.48352  -0.47082  -0.46667  -0.45852  -0.45094
 Alpha  occ. eigenvalues --   -0.44197  -0.43616  -0.42037  -0.41309  -0.41070
 Alpha  occ. eigenvalues --   -0.40901  -0.40486  -0.39803  -0.38676  -0.37620
 Alpha  occ. eigenvalues --   -0.37526  -0.37058  -0.36921  -0.36009  -0.35025
 Alpha  occ. eigenvalues --   -0.33478  -0.31494  -0.31165  -0.25350
 Alpha virt. eigenvalues --   -0.07272  -0.00049   0.00565   0.02230   0.02787
 Alpha virt. eigenvalues --    0.05043   0.05927   0.06228   0.06590   0.06893
 Alpha virt. eigenvalues --    0.07234   0.07442   0.07558   0.07719   0.07978

 Mulliken charges:
               1
     1  C    0.480182
     2  C    0.022520
     3  C    0.155985
     4  C    0.165383
     5  C    0.376416
     6  C   -0.619688
     7  C    0.122814
     8  C   -0.051687
     9  C    0.228653
    10  C   -0.331541
    11  C    0.318170
    12  C    0.140703
    13  C   -0.524046
    14  C   -0.711008
    15  H    0.188776
    16  H    0.189408
    17  H    0.195394
    18  N   -0.032941
    19  N   -0.094722
    20  O   -0.258785
    21  O   -0.269232
    22  O   -0.272869
    23  O   -0.134064
    24  C   -0.275869
    25  H    0.195615
    26  H    0.200169
    27  H    0.199333
    28  C   -0.284670
    29  H    0.193635
    30  H    0.194553
    31  H    0.200838
    32  C    0.365684
    33  C   -0.407186
    34  S   -0.319150
    35  C   -0.121452
    36  H    0.146275
    37  C    0.265596
    38  O   -0.111555
    39  C    0.862469
    40  C   -0.290099
    41  C    0.053484
    42  S   -0.301883
    43  H    0.181742
    44  H    0.158680
    45  H    0.166080
    46  C   -0.577142
    47  O   -0.124093
    48  C   -0.382002
    49  H    0.154190
    50  C   -0.301462
    51  H    0.183966
    52  H    0.157568
    53  H    0.177703
    54  H    0.155160
 Sum of Mulliken charges =  -0.00000

 Dipole moment (field-independent basis, Debye):
    X=              1.2566    Y=              0.1180    Z=              0.1609  Tot=              1.2724
 Quadrupole moment (field-independent basis, Debye-Ang):
   XX=           -216.6039   YY=           -228.1929   ZZ=           -199.6533
   XY=              6.2427   XZ=              9.9541   YZ=             10.2031

 Normal termination of Gaussian 16 at Thu Nov 26 19:16:11 2020.
