 Gaussian 16, Revision C.01,
 Gaussian 16:  ES64L-G16RevC.01  3-Jul-2019

 --------------------------------------
 # opt=modredundant wb97xd/6-311+g(d,p)
 --------------------------------------

 ---------
 NDI_0.pdb
 ---------
 Symbolic Z-matrix:
 Charge =  0 Multiplicity = 1

 SCF Done:  E(RwB97XD) =  -2358.75137492     A.U. after   19 cycles
 SCF Done:  E(RwB97XD) =  -2358.74589917     A.U. after   19 cycles
 SCF Done:  E(RwB97XD) =  -2358.76453779     A.U. after   17 cycles
 SCF Done:  E(RwB97XD) =  -2358.76724512     A.U. after   17 cycles
 SCF Done:  E(RwB97XD) =  -2358.76761345     A.U. after   14 cycles
 SCF Done:  E(RwB97XD) =  -2358.76859263     A.U. after   17 cycles
 SCF Done:  E(RwB97XD) =  -2358.76880139     A.U. after   15 cycles
 SCF Done:  E(RwB97XD) =  -2358.76887796     A.U. after   16 cycles
 SCF Done:  E(RwB97XD) =  -2358.76903442     A.U. after   14 cycles
 SCF Done:  E(RwB97XD) =  -2358.76911361     A.U. after   14 cycles
 SCF Done:  E(RwB97XD) =  -2358.76919521     A.U. after   10 cycles
 SCF Done:  E(RwB97XD) =  -2358.76919541     A.U. after   10 cycles
 SCF Done:  E(RwB97XD) =  -2358.76919551     A.U. after    9 cycles
 SCF Done:  E(RwB97XD) =  -2358.76919554     A.U. after    9 cycles
 SCF Done:  E(RwB97XD) =  -2358.76919556     A.U. after    8 cycles
 SCF Done:  E(RwB97XD) =  -2358.76919559     A.U. after    8 cycles
 SCF Done:  E(RwB97XD) =  -2358.76919560     A.U. after    8 cycles
 SCF Done:  E(RwB97XD) =  -2358.76919561     A.U. after    8 cycles
 SCF Done:  E(RwB97XD) =  -2358.76919562     A.U. after    8 cycles
 SCF Done:  E(RwB97XD) =  -2358.76919563     A.U. after    8 cycles
 Optimization completed.
    -- Stationary point found.

                         Standard orientation:
 ---------------------------------------------------------------------
 Center     Atomic      Atomic             Coordinates (Angstroms)
 Number     Number       Type             X           Y           Z
 ---------------------------------------------------------------------
      1          6           0       -2.426314   -3.026463    0.168521
      2          6           0       -2.177173   -1.560736    0.151461
      3          6           0       -3.246669   -0.657777   -0.009191
      4          6           0       -4.558771   -1.127918   -0.192735
      5          6           0       -4.838967   -2.589840   -0.193176
      6          6           0       -0.902112   -1.099545    0.251644
      7          6           0       -2.965276    0.723092    0.020573
      8          6           0       -1.631887    1.198855    0.214682
      9          6           0       -0.556604    0.288877    0.245863
     10          6           0       -1.501907    2.653700    0.496548
     11          6           0       -3.840176    3.071745   -0.201760
     12          6           0       -4.050872    1.607156   -0.180981
     13          6           0       -5.330016    1.132275   -0.381182
     14          6           0       -5.595249   -0.240868   -0.377806
     15          1           0       -6.598881   -0.619943   -0.523458
     16          1           0       -6.123436    1.851515   -0.543396
     17          1           0       -0.129384   -1.853543    0.332037
     18          7           0       -2.558009    3.494339    0.126525
     19          7           0       -3.745420   -3.441062   -0.003028
     20          8           0       -1.540873   -3.837915    0.319457
     21          8           0       -5.956700   -3.026296   -0.346305
     22          8           0       -4.725745    3.857525   -0.458807
     23          8           0       -0.545856    3.152797    1.051013
     24          6           0       -2.328940    4.928819    0.291155
     25          1           0       -2.287972    5.188677    1.350167
     26          1           0       -1.379909    5.198195   -0.169526
     27          1           0       -3.150200    5.453566   -0.188119
     28          6           0       -3.975536   -4.884904    0.012235
     29          1           0       -3.407153   -5.357168   -0.789309
     30          1           0       -3.644092   -5.299846    0.964199
     31          1           0       -5.038700   -5.056599   -0.126406
     32          6           0        0.881604    0.568742    0.149114
     33          6           0        1.587804    1.742125    0.005775
     34         16           0        1.992868   -0.782993    0.156769
     35          6           0        2.976624    1.552443   -0.108055
     36          1           0        1.126624    2.711878    0.004932
     37          6           0        3.376318    0.230754   -0.039996
     38          8           0        3.904217    2.524698   -0.259101
     39          6           0        4.721993   -0.286818   -0.107149
     40          6           0        3.451867    3.864776   -0.254731
     41          6           0        5.111149   -1.609393   -0.032863
     42         16           0        6.124002    0.730180   -0.299220
     43          1           0        4.342643    4.483383   -0.346907
     44          1           0        2.785807    4.058480   -1.102487
     45          1           0        2.933867    4.103912    0.679790
     46          6           0        6.516146   -1.802590   -0.128292
     47          8           0        4.177354   -2.572718    0.116764
     48          6           0        7.176376   -0.619823   -0.274704
     49          1           0        7.010572   -2.762426   -0.090642
     50          6           0        4.617027   -3.914248    0.192892
     51          1           0        8.241481   -0.472121   -0.370496
     52          1           0        5.273731   -4.065354    1.056169
     53          1           0        3.719918   -4.518951    0.310927
     54          1           0        5.137361   -4.210950   -0.723938
 ---------------------------------------------------------------------

 The electronic state is 1-A.
 Alpha  occ. eigenvalues --  -89.05141 -89.05044 -19.29446 -19.29089 -19.24881
 Alpha  occ. eigenvalues --  -19.24873 -19.24733 -19.24374 -14.50449 -14.50140
 Alpha  occ. eigenvalues --  -10.42653 -10.42628 -10.42471 -10.42067 -10.35938
 Alpha  occ. eigenvalues --  -10.35862 -10.35524 -10.34754 -10.34399 -10.34221
 Alpha  occ. eigenvalues --  -10.34009 -10.33638 -10.33590 -10.33542 -10.33515
 Alpha  occ. eigenvalues --  -10.33441 -10.33274 -10.32769 -10.32705 -10.32392
 Alpha  occ. eigenvalues --  -10.32296 -10.32257 -10.32159 -10.32130 -10.30033
 Alpha  occ. eigenvalues --  -10.29806  -8.09190  -8.09064  -6.04040  -6.03906
 Alpha  occ. eigenvalues --   -6.03635  -6.03510  -6.03259  -6.03153  -1.19359
 Alpha  occ. eigenvalues --   -1.19294  -1.19191  -1.18814  -1.17446  -1.17204
 Alpha  occ. eigenvalues --   -1.06614  -1.06312  -1.02935  -1.00898  -0.99240
 Alpha  occ. eigenvalues --   -0.97009  -0.94474  -0.90570  -0.88494  -0.87661
 Alpha  occ. eigenvalues --   -0.86237  -0.85190  -0.85050  -0.82997  -0.82266
 Alpha  occ. eigenvalues --   -0.81548  -0.79788  -0.78400  -0.76852  -0.75391
 Alpha  occ. eigenvalues --   -0.75189  -0.74130  -0.70365  -0.69099  -0.68054
 Alpha  occ. eigenvalues --   -0.66513  -0.65878  -0.65490  -0.64573  -0.63933
 Alpha  occ. eigenvalues --   -0.62325  -0.60608  -0.59747  -0.59273  -0.58763
 Alpha  occ. eigenvalues --   -0.58437  -0.57666  -0.57634  -0.57287  -0.57160
 Alpha  occ. eigenvalues --   -0.56776  -0.55918  -0.55366  -0.55057  -0.54595
 Alpha  occ. eigenvalues --   -0.53788  -0.53770  -0.53468  -0.53073  -0.51901
 Alpha  occ. eigenvalues --   -0.51494  -0.51204  -0.50962  -0.50714  -0.50475
 Alpha  occ. eigenvalues --   -0.50169  -0.49558  -0.49494  -0.48924  -0.48391
 Alpha  occ. eigenvalues --   -0.47942  -0.47865  -0.46810  -0.46066  -0.45221
 Alpha  occ. eigenvalues --   -0.44923  -0.44167  -0.42600  -0.41885  -0.41704
 Alpha  occ. eigenvalues --   -0.40972  -0.40036  -0.39572  -0.38497  -0.37924
 Alpha  occ. eigenvalues --   -0.37198  -0.37099  -0.36668  -0.36433  -0.34578
 Alpha  occ. eigenvalues --   -0.33182  -0.32034  -0.31804  -0.25773
 Alpha virt. eigenvalues --   -0.07093  -0.01461   0.00583   0.02587   0.03708
 Alpha virt. eigenvalues --    0.05280   0.05699   0.06058   0.06738   0.07036
 Alpha virt. eigenvalues --    0.07129   0.07277   0.07856   0.08117   0.08263

 Mulliken charges:
               1
     1  C    0.419746
     2  C   -0.048497
     3  C    0.029435
     4  C    0.276184
     5  C    0.413756
     6  C   -0.052671
     7  C    0.048076
     8  C    0.410065
     9  C    0.132598
    10  C   -0.694387
    11  C    0.367219
    12  C    0.173030
    13  C   -0.576426
    14  C   -0.755437
    15  H    0.187087
    16  H    0.188542
    17  H    0.191330
    18  N    0.041770
    19  N   -0.089024
    20  O   -0.269670
    21  O   -0.266400
    22  O   -0.279670
    23  O   -0.255471
    24  C   -0.247525
    25  H    0.202093
    26  H    0.181512
    27  H    0.201281
    28  C   -0.281417
    29  H    0.193277
    30  H    0.192438
    31  H    0.200010
    32  C    0.081074
    33  C    0.044012
    34  S   -0.733699
    35  C   -0.611052
    36  H    0.180498
    37  C    0.484381
    38  O   -0.113897
    39  C    1.010731
    40  C   -0.312870
    41  C    0.027986
    42  S   -0.242980
    43  H    0.183637
    44  H    0.157777
    45  H    0.175599
    46  C   -0.600966
    47  O   -0.108088
    48  C   -0.394765
    49  H    0.157917
    50  C   -0.312620
    51  H    0.189107
    52  H    0.158839
    53  H    0.188062
    54  H    0.158464
 Sum of Mulliken charges =  -0.00000

 Dipole moment (field-independent basis, Debye):
    X=              3.8019    Y=             -0.5013    Z=             -0.4561  Tot=              3.8619
 Quadrupole moment (field-independent basis, Debye-Ang):
   XX=           -213.3132   YY=           -202.6038   ZZ=           -224.5103
   XY=             -5.2992   XZ=             -4.0584   YZ=             -1.8184

 Normal termination of Gaussian 16 at Fri Nov 27 02:27:10 2020.
