 Gaussian 16, Revision C.01,
 Gaussian 16:  ES64L-G16RevC.01  3-Jul-2019

 --------------------------------------
 # opt=modredundant wb97xd/6-311+g(d,p)
 --------------------------------------

 ------------
 NDI_-155.pdb
 ------------
 Symbolic Z-matrix:
 Charge =  0 Multiplicity = 1

 SCF Done:  E(RwB97XD) =  -2358.74015065     A.U. after   19 cycles
 SCF Done:  E(RwB97XD) =  -2358.75606990     A.U. after   21 cycles
 SCF Done:  E(RwB97XD) =  -2358.76638726     A.U. after   17 cycles
 SCF Done:  E(RwB97XD) =  -2358.76874442     A.U. after   16 cycles
 SCF Done:  E(RwB97XD) =  -2358.76950676     A.U. after   17 cycles
 SCF Done:  E(RwB97XD) =  -2358.76960442     A.U. after   15 cycles
 SCF Done:  E(RwB97XD) =  -2358.76977880     A.U. after   14 cycles
 SCF Done:  E(RwB97XD) =  -2358.76985577     A.U. after   14 cycles
 SCF Done:  E(RwB97XD) =  -2358.76992284     A.U. after   16 cycles
 SCF Done:  E(RwB97XD) =  -2358.76997081     A.U. after   13 cycles
 SCF Done:  E(RwB97XD) =  -2358.77200923     A.U. after   13 cycles
 SCF Done:  E(RwB97XD) =  -2358.77200866     A.U. after   14 cycles
 SCF Done:  E(RwB97XD) =  -2358.77201432     A.U. after   13 cycles
 SCF Done:  E(RwB97XD) =  -2358.77201473     A.U. after   12 cycles
 SCF Done:  E(RwB97XD) =  -2358.77201450     A.U. after   10 cycles
 SCF Done:  E(RwB97XD) =  -2358.77201484     A.U. after   12 cycles
 SCF Done:  E(RwB97XD) =  -2358.77201487     A.U. after    9 cycles
 SCF Done:  E(RwB97XD) =  -2358.77201488     A.U. after    9 cycles
 SCF Done:  E(RwB97XD) =  -2358.77201488     A.U. after    7 cycles
 SCF Done:  E(RwB97XD) =  -2358.77201489     A.U. after    7 cycles
 Optimization completed.
    -- Stationary point found.

                         Standard orientation:
 ---------------------------------------------------------------------
 Center     Atomic      Atomic             Coordinates (Angstroms)
 Number     Number       Type             X           Y           Z
 ---------------------------------------------------------------------
      1          6           0       -3.544614   -2.664925    0.318019
      2          6           0       -2.771303   -1.427804    0.034392
      3          6           0       -3.403614   -0.168843    0.093196
      4          6           0       -4.763855   -0.059579    0.438960
      5          6           0       -5.561640   -1.281146    0.732292
      6          6           0       -1.434565   -1.512838   -0.231245
      7          6           0       -2.647465    0.984325   -0.198720
      8          6           0       -1.275946    0.874434   -0.550003
      9          6           0       -0.639855   -0.366479   -0.510127
     10          6           0       -0.619671    2.091337   -1.108489
     11          6           0       -2.531555    3.490298   -0.386788
     12          6           0       -3.286373    2.241623   -0.110446
     13          6           0       -4.613999    2.331795    0.244004
     14          6           0       -5.362344    1.177383    0.514683
     15          1           0       -6.408460    1.241494    0.787100
     16          1           0       -5.065272    3.314189    0.311083
     17          1           0       -0.967109   -2.488477   -0.188378
     18          7           0       -1.228550    3.325282   -0.842981
     19          7           0       -4.890780   -2.505925    0.643620
     20          8           0       -3.049244   -3.768628    0.271984
     21          8           0       -6.732502   -1.224650    1.030594
     22          8           0       -3.023317    4.588570   -0.248556
     23          8           0        0.378040    2.055890   -1.788658
     24          6           0       -0.496309    4.514891   -1.274064
     25          1           0        0.552381    4.401719   -1.006648
     26          1           0       -0.569147    4.637941   -2.356389
     27          1           0       -0.933228    5.376789   -0.777754
     28          6           0       -5.636640   -3.733501    0.917957
     29          1           0       -5.600279   -4.387903    0.046982
     30          1           0       -5.189038   -4.255774    1.763795
     31          1           0       -6.662732   -3.459194    1.143457
     32          6           0        0.806781   -0.597313   -0.590799
     33          6           0        1.407979   -1.752481   -1.029285
     34         16           0        1.948563    0.429825    0.198624
     35          6           0        2.796371   -1.777762   -0.776289
     36          1           0        0.872037   -2.537610   -1.544254
     37          6           0        3.258271   -0.667980   -0.095193
     38          8           0        3.661019   -2.758093   -1.127306
     39          6           0        4.614704   -0.396807    0.324550
     40          6           0        3.134892   -3.882440   -1.800970
     41          6           0        5.068372    0.703486    1.021755
     42         16           0        5.945414   -1.471185   -0.008161
     43          1           0        3.977826   -4.545069   -1.988195
     44          1           0        2.394803   -4.403658   -1.183669
     45          1           0        2.681131   -3.594885   -2.755764
     46          6           0        6.466086    0.686074    1.282209
     47          8           0        4.196018    1.668316    1.392288
     48          6           0        7.056975   -0.433279    0.779078
     49          1           0        7.003996    1.458118    1.813148
     50          6           0        4.715098    2.804828    2.051336
     51          1           0        8.100337   -0.704829    0.833160
     52          1           0        5.444273    3.327337    1.422892
     53          1           0        3.866101    3.459537    2.239583
     54          1           0        5.179254    2.531529    3.005131
 ---------------------------------------------------------------------

 The electronic state is 1-A.
 Alpha  occ. eigenvalues --  -89.04830 -89.04717 -19.29184 -19.29035 -19.25023
 Alpha  occ. eigenvalues --  -19.25022 -19.24504 -19.24475 -14.50588 -14.50028
 Alpha  occ. eigenvalues --  -10.42803 -10.42635 -10.42331 -10.42209 -10.35514
 Alpha  occ. eigenvalues --  -10.35437 -10.35236 -10.34697 -10.34559 -10.34240
 Alpha  occ. eigenvalues --  -10.33926 -10.33903 -10.33727 -10.33704 -10.33552
 Alpha  occ. eigenvalues --  -10.33212 -10.33090 -10.32925 -10.32685 -10.32631
 Alpha  occ. eigenvalues --  -10.32462 -10.32230 -10.31960 -10.31874 -10.30263
 Alpha  occ. eigenvalues --  -10.29742  -8.08856  -8.08739  -6.03709  -6.03581
 Alpha  occ. eigenvalues --   -6.03307  -6.03185  -6.02920  -6.02827  -1.19487
 Alpha  occ. eigenvalues --   -1.19114  -1.18904  -1.18754  -1.17586  -1.17148
 Alpha  occ. eigenvalues --   -1.06730  -1.06254  -1.03151  -1.00718  -0.99062
 Alpha  occ. eigenvalues --   -0.97132  -0.94644  -0.90608  -0.88618  -0.87428
 Alpha  occ. eigenvalues --   -0.86160  -0.85207  -0.84879  -0.82900  -0.82398
 Alpha  occ. eigenvalues --   -0.81120  -0.79899  -0.78415  -0.76798  -0.75490
 Alpha  occ. eigenvalues --   -0.75078  -0.74359  -0.70152  -0.69045  -0.67979
 Alpha  occ. eigenvalues --   -0.66629  -0.65892  -0.65177  -0.64165  -0.63733
 Alpha  occ. eigenvalues --   -0.62875  -0.60641  -0.59676  -0.59064  -0.58901
 Alpha  occ. eigenvalues --   -0.58270  -0.57666  -0.57534  -0.57288  -0.57163
 Alpha  occ. eigenvalues --   -0.56665  -0.55887  -0.55412  -0.55281  -0.54268
 Alpha  occ. eigenvalues --   -0.53834  -0.53810  -0.53556  -0.53090  -0.52431
 Alpha  occ. eigenvalues --   -0.51568  -0.51172  -0.50781  -0.50470  -0.50371
 Alpha  occ. eigenvalues --   -0.50107  -0.49694  -0.49431  -0.48946  -0.48427
 Alpha  occ. eigenvalues --   -0.48066  -0.47669  -0.46661  -0.45850  -0.45482
 Alpha  occ. eigenvalues --   -0.44578  -0.44199  -0.42426  -0.41820  -0.41477
 Alpha  occ. eigenvalues --   -0.41294  -0.40064  -0.39592  -0.38470  -0.37686
 Alpha  occ. eigenvalues --   -0.37313  -0.37091  -0.36619  -0.36353  -0.34733
 Alpha  occ. eigenvalues --   -0.33107  -0.31912  -0.31498  -0.25666
 Alpha virt. eigenvalues --   -0.07113  -0.00771   0.00556   0.02382   0.03459
 Alpha virt. eigenvalues --    0.05146   0.05740   0.05963   0.06663   0.06821
 Alpha virt. eigenvalues --    0.07087   0.07495   0.07712   0.07745   0.08001

 Mulliken charges:
               1
     1  C    0.459592
     2  C   -0.081295
     3  C    0.090273
     4  C    0.231132
     5  C    0.356564
     6  C   -0.173999
     7  C    0.059086
     8  C    0.254623
     9  C    0.280098
    10  C   -0.627838
    11  C    0.381605
    12  C    0.043753
    13  C   -0.542918
    14  C   -0.658516
    15  H    0.187348
    16  H    0.187959
    17  H    0.184518
    18  N    0.089861
    19  N   -0.096355
    20  O   -0.268379
    21  O   -0.267051
    22  O   -0.279180
    23  O   -0.195038
    24  C   -0.281556
    25  H    0.193823
    26  H    0.201609
    27  H    0.198093
    28  C   -0.278619
    29  H    0.191979
    30  H    0.194075
    31  H    0.200533
    32  C    0.227335
    33  C   -0.744939
    34  S   -0.740219
    35  C   -0.080778
    36  H    0.161560
    37  C    0.675447
    38  O   -0.116084
    39  C    0.978234
    40  C   -0.295632
    41  C    0.011830
    42  S   -0.265430
    43  H    0.184454
    44  H    0.164739
    45  H    0.161857
    46  C   -0.628236
    47  O   -0.113807
    48  C   -0.346639
    49  H    0.156185
    50  C   -0.310541
    51  H    0.187216
    52  H    0.160896
    53  H    0.180266
    54  H    0.156507
 Sum of Mulliken charges =  -0.00000

 Dipole moment (field-independent basis, Debye):
    X=              2.8743    Y=             -0.3126    Z=              0.6506  Tot=              2.9635
 Quadrupole moment (field-independent basis, Debye-Ang):
   XX=           -211.4615   YY=           -212.9977   ZZ=           -217.9315
   XY=              9.8711   XZ=             10.2541   YZ=             11.8121

 Normal termination of Gaussian 16 at Fri Nov 27 07:58:45 2020.
