 Gaussian 16, Revision C.01,
 Gaussian 16:  ES64L-G16RevC.01  3-Jul-2019

 --------------------------------------
 # opt=modredundant wb97xd/6-311+g(d,p)
 --------------------------------------

 ----------
 NDI_55.pdb
 ----------
 Symbolic Z-matrix:
 Charge =  0 Multiplicity = 1

 SCF Done:  E(RwB97XD) =  -2358.76618614     A.U. after   19 cycles
 SCF Done:  E(RwB97XD) =  -2358.77243468     A.U. after   17 cycles
 SCF Done:  E(RwB97XD) =  -2358.77331422     A.U. after   16 cycles
 SCF Done:  E(RwB97XD) =  -2358.77346040     A.U. after   16 cycles
 SCF Done:  E(RwB97XD) =  -2358.77367007     A.U. after   14 cycles
 SCF Done:  E(RwB97XD) =  -2358.77378564     A.U. after   15 cycles
 SCF Done:  E(RwB97XD) =  -2358.77389498     A.U. after   14 cycles
 SCF Done:  E(RwB97XD) =  -2358.77394409     A.U. after   14 cycles
 SCF Done:  E(RwB97XD) =  -2358.77407835     A.U. after   16 cycles
 SCF Done:  E(RwB97XD) =  -2358.77414012     A.U. after   15 cycles
 SCF Done:  E(RwB97XD) =  -2358.77426314     A.U. after   14 cycles
 SCF Done:  E(RwB97XD) =  -2358.77426452     A.U. after   13 cycles
 SCF Done:  E(RwB97XD) =  -2358.77426545     A.U. after   13 cycles
 SCF Done:  E(RwB97XD) =  -2358.77426578     A.U. after   13 cycles
 SCF Done:  E(RwB97XD) =  -2358.77426596     A.U. after   12 cycles
 SCF Done:  E(RwB97XD) =  -2358.77426603     A.U. after   12 cycles
 SCF Done:  E(RwB97XD) =  -2358.77426610     A.U. after   11 cycles
 SCF Done:  E(RwB97XD) =  -2358.77426611     A.U. after   11 cycles
 SCF Done:  E(RwB97XD) =  -2358.77426612     A.U. after   11 cycles
 SCF Done:  E(RwB97XD) =  -2358.77426612     A.U. after   10 cycles
 Optimization completed.
    -- Stationary point found.

                         Standard orientation:
 ---------------------------------------------------------------------
 Center     Atomic      Atomic             Coordinates (Angstroms)
 Number     Number       Type             X           Y           Z
 ---------------------------------------------------------------------
      1          6           0       -2.865381   -2.917094    0.544148
      2          6           0       -2.405783   -1.523292    0.304095
      3          6           0       -3.343023   -0.499020    0.059946
      4          6           0       -4.724305   -0.777780    0.049428
      5          6           0       -5.213490   -2.163161    0.290549
      6          6           0       -1.071115   -1.234191    0.350495
      7          6           0       -2.878694    0.811971   -0.178157
      8          6           0       -1.485172    1.093091   -0.170925
      9          6           0       -0.578941    0.081470    0.140384
     10          6           0       -1.046405    2.457815   -0.594396
     11          6           0       -3.410417    3.223500   -0.662507
     12          6           0       -3.836548    1.824246   -0.412242
     13          6           0       -5.182596    1.535617   -0.410087
     14          6           0       -5.633373    0.227966   -0.181557
     15          1           0       -6.690532   -0.006754   -0.182956
     16          1           0       -5.883740    2.341703   -0.588224
     17          1           0       -0.373889   -2.030831    0.581837
     18          7           0       -2.038141    3.440322   -0.725474
     19          7           0       -4.241565   -3.141409    0.518016
     20          8           0       -2.098337   -3.828708    0.753895
     21          8           0       -6.392691   -2.433079    0.288649
     22          8           0       -4.207041    4.122450   -0.817505
     23          8           0        0.099067    2.752030   -0.840742
     24          6           0       -1.564975    4.780693   -1.069258
     25          1           0       -0.797564    5.088294   -0.360097
     26          1           0       -1.131171    4.780741   -2.070063
     27          1           0       -2.415178    5.455038   -1.029772
     28          6           0       -4.674370   -4.517960    0.755721
     29          1           0       -4.240405   -5.174963    0.001900
     30          1           0       -4.335662   -4.846040    1.738604
     31          1           0       -5.758499   -4.543337    0.701464
     32          6           0        0.867362    0.274593    0.314006
     33          6           0        1.502295    1.141294    1.155282
     34         16           0        1.987574   -0.761110   -0.496861
     35          6           0        2.907995    0.983652    1.130716
     36          1           0        0.976338    1.868694    1.756386
     37          6           0        3.348370   -0.006870    0.276969
     38          8           0        3.804025    1.694475    1.854655
     39          6           0        4.715842   -0.390602    0.002343
     40          6           0        3.328802    2.841174    2.529681
     41          6           0        5.147591   -1.405921   -0.824012
     42         16           0        6.088945    0.422893    0.700279
     43          1           0        4.203857    3.322652    2.962714
     44          1           0        2.836974    3.530630    1.835124
     45          1           0        2.634598    2.569055    3.332583
     46          6           0        6.562521   -1.529197   -0.897610
     47          8           0        4.240470   -2.171702   -1.474287
     48          6           0        7.188849   -0.601244   -0.122113
     49          1           0        7.087304   -2.264505   -1.490336
     50          6           0        4.728429   -3.203955   -2.305507
     51          1           0        8.251478   -0.468355    0.013289
     52          1           0        5.310813   -3.932526   -1.731080
     53          1           0        3.851988   -3.694374   -2.725287
     54          1           0        5.342178   -2.800534   -3.118243
 ---------------------------------------------------------------------

 The electronic state is 1-A.
 Alpha  occ. eigenvalues --  -89.04801 -89.04400 -19.28837 -19.28706 -19.25111
 Alpha  occ. eigenvalues --  -19.25057 -19.24741 -19.24668 -14.50660 -14.50337
 Alpha  occ. eigenvalues --  -10.42903 -10.42678 -10.42645 -10.42492 -10.35255
 Alpha  occ. eigenvalues --  -10.35134 -10.35119 -10.34510 -10.34385 -10.34365
 Alpha  occ. eigenvalues --  -10.34283 -10.34182 -10.33931 -10.33881 -10.33792
 Alpha  occ. eigenvalues --  -10.32934 -10.32901 -10.32847 -10.32819 -10.32617
 Alpha  occ. eigenvalues --  -10.32279 -10.32150 -10.32138 -10.31524 -10.29710
 Alpha  occ. eigenvalues --  -10.29441  -8.08820  -8.08422  -6.03671  -6.03274
 Alpha  occ. eigenvalues --   -6.03264  -6.02891  -6.02869  -6.02510  -1.19574
 Alpha  occ. eigenvalues --   -1.19365  -1.18542  -1.18417  -1.17667  -1.17407
 Alpha  occ. eigenvalues --   -1.06829  -1.06445  -1.03317  -1.00484  -0.98832
 Alpha  occ. eigenvalues --   -0.97177  -0.94826  -0.90539  -0.88784  -0.87266
 Alpha  occ. eigenvalues --   -0.85881  -0.85350  -0.84574  -0.82739  -0.82240
 Alpha  occ. eigenvalues --   -0.81508  -0.79474  -0.78285  -0.76972  -0.75648
 Alpha  occ. eigenvalues --   -0.75253  -0.74322  -0.70217  -0.68780  -0.67863
 Alpha  occ. eigenvalues --   -0.66714  -0.65657  -0.64946  -0.64639  -0.63390
 Alpha  occ. eigenvalues --   -0.62605  -0.60798  -0.59826  -0.59273  -0.58932
 Alpha  occ. eigenvalues --   -0.58171  -0.57751  -0.57376  -0.57226  -0.56871
 Alpha  occ. eigenvalues --   -0.56464  -0.56018  -0.55498  -0.55298  -0.54294
 Alpha  occ. eigenvalues --   -0.54044  -0.53512  -0.53423  -0.53249  -0.52359
 Alpha  occ. eigenvalues --   -0.51627  -0.51170  -0.51100  -0.50416  -0.50334
 Alpha  occ. eigenvalues --   -0.49905  -0.49580  -0.49354  -0.48946  -0.48398
 Alpha  occ. eigenvalues --   -0.48215  -0.47430  -0.46894  -0.45792  -0.45372
 Alpha  occ. eigenvalues --   -0.44220  -0.43844  -0.42328  -0.41670  -0.41249
 Alpha  occ. eigenvalues --   -0.40914  -0.40338  -0.39720  -0.38627  -0.37664
 Alpha  occ. eigenvalues --   -0.37418  -0.37042  -0.37016  -0.36227  -0.34716
 Alpha  occ. eigenvalues --   -0.33272  -0.31633  -0.31425  -0.25510
 Alpha virt. eigenvalues --   -0.07246  -0.00317   0.00463   0.02254   0.03168
 Alpha virt. eigenvalues --    0.05025   0.05842   0.06045   0.06799   0.06895
 Alpha virt. eigenvalues --    0.07288   0.07531   0.07647   0.07732   0.07811

 Mulliken charges:
               1
     1  C    0.458053
     2  C   -0.112560
     3  C    0.060450
     4  C    0.203185
     5  C    0.345990
     6  C   -0.810230
     7  C    0.128930
     8  C    0.237152
     9  C    0.534044
    10  C   -0.400599
    11  C    0.419340
    12  C    0.114219
    13  C   -0.587678
    14  C   -0.730771
    15  H    0.188140
    16  H    0.189253
    17  H    0.210543
    18  N   -0.048820
    19  N   -0.094718
    20  O   -0.261251
    21  O   -0.267228
    22  O   -0.274432
    23  O   -0.140400
    24  C   -0.260865
    25  H    0.187941
    26  H    0.200943
    27  H    0.201580
    28  C   -0.282527
    29  H    0.193362
    30  H    0.194336
    31  H    0.200759
    32  C    0.201786
    33  C   -0.232166
    34  S   -0.528266
    35  C   -0.357475
    36  H    0.148829
    37  C    0.465039
    38  O   -0.101542
    39  C    0.905638
    40  C   -0.308513
    41  C    0.024149
    42  S   -0.275098
    43  H    0.181749
    44  H    0.175140
    45  H    0.155306
    46  C   -0.515132
    47  O   -0.114152
    48  C   -0.352327
    49  H    0.155533
    50  C   -0.306317
    51  H    0.185730
    52  H    0.157162
    53  H    0.180411
    54  H    0.158379
 Sum of Mulliken charges =  -0.00000

 Dipole moment (field-independent basis, Debye):
    X=              2.0334    Y=             -0.0684    Z=              0.1290  Tot=              2.0386
 Quadrupole moment (field-independent basis, Debye-Ang):
   XX=           -216.5742   YY=           -213.8231   ZZ=           -212.4753
   XY=             -2.8613   XZ=             -5.6786   YZ=             15.7827

 Normal termination of Gaussian 16 at Fri Nov 27 04:35:22 2020.
