 Gaussian 16, Revision C.01,
 Gaussian 16:  ES64L-G16RevC.01  3-Jul-2019

 --------------------------------------
 # opt=modredundant wb97xd/6-311+g(d,p)
 --------------------------------------

 ----------
 NDI_95.pdb
 ----------
 Symbolic Z-matrix:
 Charge =  0 Multiplicity = 1

 SCF Done:  E(RwB97XD) =  -2358.76491647     A.U. after   19 cycles
 SCF Done:  E(RwB97XD) =  -2358.77198636     A.U. after   17 cycles
 SCF Done:  E(RwB97XD) =  -2358.77294600     A.U. after   16 cycles
 SCF Done:  E(RwB97XD) =  -2358.77315130     A.U. after   15 cycles
 SCF Done:  E(RwB97XD) =  -2358.77328215     A.U. after   14 cycles
 SCF Done:  E(RwB97XD) =  -2358.77331545     A.U. after   13 cycles
 SCF Done:  E(RwB97XD) =  -2358.77333981     A.U. after   13 cycles
 SCF Done:  E(RwB97XD) =  -2358.77335281     A.U. after   13 cycles
 SCF Done:  E(RwB97XD) =  -2358.77336238     A.U. after   13 cycles
 SCF Done:  E(RwB97XD) =  -2358.77337306     A.U. after   12 cycles
 SCF Done:  E(RwB97XD) =  -2358.77340108     A.U. after   11 cycles
 SCF Done:  E(RwB97XD) =  -2358.77340119     A.U. after    9 cycles
 SCF Done:  E(RwB97XD) =  -2358.77340129     A.U. after    9 cycles
 SCF Done:  E(RwB97XD) =  -2358.77340136     A.U. after    9 cycles
 SCF Done:  E(RwB97XD) =  -2358.77340142     A.U. after    8 cycles
 SCF Done:  E(RwB97XD) =  -2358.77340153     A.U. after    9 cycles
 SCF Done:  E(RwB97XD) =  -2358.77340162     A.U. after    9 cycles
 SCF Done:  E(RwB97XD) =  -2358.77340172     A.U. after    9 cycles
 SCF Done:  E(RwB97XD) =  -2358.77340177     A.U. after    9 cycles
 SCF Done:  E(RwB97XD) =  -2358.77340181     A.U. after    8 cycles
 Optimization completed.
    -- Stationary point found.

                         Standard orientation:
 ---------------------------------------------------------------------
 Center     Atomic      Atomic             Coordinates (Angstroms)
 Number     Number       Type             X           Y           Z
 ---------------------------------------------------------------------
      1          6           0        3.314758   -2.820345   -0.117696
      2          6           0        2.648754   -1.491100   -0.141244
      3          6           0        3.403655   -0.316887    0.048264
      4          6           0        4.795031   -0.384315    0.270114
      5          6           0        5.487600   -1.701881    0.302878
      6          6           0        1.296770   -1.410823   -0.342894
      7          6           0        2.751978    0.934110    0.015237
      8          6           0        1.352489    1.003025   -0.210334
      9          6           0        0.623182   -0.165778   -0.379736
     10          6           0        0.706036    2.349885   -0.279923
     11          6           0        2.886141    3.441578    0.205305
     12          6           0        3.524530    2.099828    0.217628
     13          6           0        4.880023    2.014089    0.435112
     14          6           0        5.522228    0.766294    0.460327
     15          1           0        6.589279    0.692241    0.630346
     16          1           0        5.438747    2.929239    0.588133
     17          1           0        0.725817   -2.321915   -0.476675
     18          7           0        1.515002    3.465548   -0.026930
     19          7           0        4.691691   -2.833442    0.105816
     20          8           0        2.709371   -3.854390   -0.282797
     21          8           0        6.679310   -1.791897    0.489907
     22          8           0        3.522051    4.455931    0.385525
     23          8           0       -0.460169    2.517236   -0.541520
     24          6           0        0.838653    4.761968   -0.069566
     25          1           0        0.465033    4.954902   -1.075819
     26          1           0       -0.006544    4.754250    0.617692
     27          1           0        1.557646    5.523775    0.216134
     28          6           0        5.328053   -4.150111    0.128385
     29          1           0        4.881296   -4.760799    0.913012
     30          1           0        5.176190   -4.649010   -0.828906
     31          1           0        6.387825   -4.007015    0.316646
     32          6           0       -0.839840   -0.216358   -0.597363
     33          6           0       -1.494420   -0.281670   -1.788375
     34         16           0       -1.919491   -0.285604    0.742863
     35          6           0       -2.903661   -0.361261   -1.617177
     36          1           0       -0.988335   -0.244465   -2.742541
     37          6           0       -3.310341   -0.374715   -0.302907
     38          8           0       -3.823798   -0.432340   -2.608456
     39          6           0       -4.665113   -0.452972    0.203849
     40          6           0       -3.366314   -0.284148   -3.935750
     41          6           0       -5.063933   -0.485304    1.521835
     42         16           0       -6.062828   -0.509666   -0.833423
     43          1           0       -4.252356   -0.318366   -4.567331
     44          1           0       -2.858162    0.676486   -4.073717
     45          1           0       -2.692107   -1.100906   -4.216950
     46          6           0       -6.473858   -0.553243    1.698763
     47          8           0       -4.132389   -0.452675    2.506011
     48          6           0       -7.130424   -0.571999    0.505903
     49          1           0       -6.974232   -0.586807    2.655866
     50          6           0       -4.590358   -0.470133    3.840791
     51          1           0       -8.196290   -0.621620    0.343033
     52          1           0       -5.145792   -1.389314    4.057694
     53          1           0       -3.700806   -0.431754    4.467271
     54          1           0       -5.221689    0.399338    4.054927
 ---------------------------------------------------------------------

 The electronic state is 1-A.
 Alpha  occ. eigenvalues --  -89.04330 -89.03996 -19.28432 -19.28409 -19.25291
 Alpha  occ. eigenvalues --  -19.25228 -19.24961 -19.24910 -14.50833 -14.50516
 Alpha  occ. eigenvalues --  -10.43094 -10.42857 -10.42771 -10.42739 -10.35211
 Alpha  occ. eigenvalues --  -10.34791 -10.34746 -10.34726 -10.34612 -10.34542
 Alpha  occ. eigenvalues --  -10.34191 -10.34138 -10.34137 -10.34113 -10.34092
 Alpha  occ. eigenvalues --  -10.33252 -10.33155 -10.33149 -10.32647 -10.32412
 Alpha  occ. eigenvalues --  -10.32138 -10.31893 -10.31752 -10.31072 -10.29316
 Alpha  occ. eigenvalues --  -10.29069  -8.08341  -8.08019  -6.03199  -6.02862
 Alpha  occ. eigenvalues --   -6.02799  -6.02466  -6.02401  -6.02108  -1.19750
 Alpha  occ. eigenvalues --   -1.19562  -1.18150  -1.18069  -1.17846  -1.17631
 Alpha  occ. eigenvalues --   -1.07012  -1.06640  -1.03583  -1.00134  -0.98577
 Alpha  occ. eigenvalues --   -0.97201  -0.95074  -0.90540  -0.89009  -0.87013
 Alpha  occ. eigenvalues --   -0.85637  -0.85452  -0.84146  -0.82734  -0.82201
 Alpha  occ. eigenvalues --   -0.81345  -0.79299  -0.78145  -0.77103  -0.75855
 Alpha  occ. eigenvalues --   -0.75357  -0.74460  -0.70135  -0.68608  -0.67721
 Alpha  occ. eigenvalues --   -0.66891  -0.65597  -0.64644  -0.64483  -0.63021
 Alpha  occ. eigenvalues --   -0.62875  -0.60957  -0.59981  -0.59386  -0.59120
 Alpha  occ. eigenvalues --   -0.57906  -0.57814  -0.57473  -0.56957  -0.56630
 Alpha  occ. eigenvalues --   -0.56393  -0.56155  -0.55670  -0.55404  -0.54221
 Alpha  occ. eigenvalues --   -0.53998  -0.53755  -0.53481  -0.53079  -0.52463
 Alpha  occ. eigenvalues --   -0.51744  -0.51344  -0.51250  -0.50441  -0.50060
 Alpha  occ. eigenvalues --   -0.49680  -0.49563  -0.49174  -0.48932  -0.48475
 Alpha  occ. eigenvalues --   -0.48434  -0.46931  -0.46712  -0.45888  -0.44963
 Alpha  occ. eigenvalues --   -0.44135  -0.43501  -0.41967  -0.41242  -0.41015
 Alpha  occ. eigenvalues --   -0.40753  -0.40548  -0.39834  -0.38702  -0.37634
 Alpha  occ. eigenvalues --   -0.37586  -0.37170  -0.36981  -0.35978  -0.34944
 Alpha  occ. eigenvalues --   -0.33595  -0.31384  -0.31089  -0.25280
 Alpha virt. eigenvalues --   -0.07324  -0.00051   0.00656   0.02347   0.02488
 Alpha virt. eigenvalues --    0.04976   0.05995   0.06248   0.06589   0.06890
 Alpha virt. eigenvalues --    0.07340   0.07405   0.07576   0.07722   0.08032

 Mulliken charges:
               1
     1  C    0.472428
     2  C    0.093008
     3  C    0.206372
     4  C    0.179195
     5  C    0.372491
     6  C   -0.719213
     7  C    0.140010
     8  C   -0.050164
     9  C    0.377990
    10  C   -0.316407
    11  C    0.270042
    12  C    0.196651
    13  C   -0.591303
    14  C   -0.722053
    15  H    0.188933
    16  H    0.189727
    17  H    0.196817
    18  N   -0.099018
    19  N   -0.096756
    20  O   -0.256545
    21  O   -0.267905
    22  O   -0.268330
    23  O   -0.095721
    24  C   -0.299603
    25  H    0.196514
    26  H    0.196382
    27  H    0.201482
    28  C   -0.286164
    29  H    0.194284
    30  H    0.194235
    31  H    0.200415
    32  C    0.200494
    33  C   -0.428409
    34  S   -0.127362
    35  C   -0.090478
    36  H    0.141432
    37  C    0.166286
    38  O   -0.119195
    39  C    0.837896
    40  C   -0.294008
    41  C    0.076135
    42  S   -0.306726
    43  H    0.181158
    44  H    0.169156
    45  H    0.155102
    46  C   -0.562231
    47  O   -0.127982
    48  C   -0.396686
    49  H    0.153900
    50  C   -0.299859
    51  H    0.183507
    52  H    0.154887
    53  H    0.177626
    54  H    0.157561
 Sum of Mulliken charges =  -0.00000

 Dipole moment (field-independent basis, Debye):
    X=             -0.9305    Y=              0.2241    Z=              0.0737  Tot=              0.9599
 Quadrupole moment (field-independent basis, Debye-Ang):
   XX=           -217.9458   YY=           -231.7964   ZZ=           -194.9997
   XY=             -3.2041   XZ=            -10.0402   YZ=             -2.0078

 Normal termination of Gaussian 16 at Fri Nov 27 02:57:20 2020.
