 Gaussian 16, Revision C.01,
 Gaussian 16:  ES64L-G16RevC.01  3-Jul-2019

 --------------------------------------
 # opt=modredundant wb97xd/6-311+g(d,p)
 --------------------------------------

 ----------
 NDI_-5.pdb
 ----------
 Symbolic Z-matrix:
 Charge =  0 Multiplicity = 1

 SCF Done:  E(RwB97XD) =  -2358.75418052     A.U. after   19 cycles
 SCF Done:  E(RwB97XD) =  -2358.74559839     A.U. after   19 cycles
 SCF Done:  E(RwB97XD) =  -2358.76438623     A.U. after   16 cycles
 SCF Done:  E(RwB97XD) =  -2358.76761542     A.U. after   17 cycles
 SCF Done:  E(RwB97XD) =  -2358.76839019     A.U. after   17 cycles
 SCF Done:  E(RwB97XD) =  -2358.76916078     A.U. after   16 cycles
 SCF Done:  E(RwB97XD) =  -2358.76949187     A.U. after   16 cycles
 SCF Done:  E(RwB97XD) =  -2358.76960843     A.U. after   16 cycles
 SCF Done:  E(RwB97XD) =  -2358.76967481     A.U. after   14 cycles
 SCF Done:  E(RwB97XD) =  -2358.76971037     A.U. after   14 cycles
 SCF Done:  E(RwB97XD) =  -2358.76973060     A.U. after   13 cycles
 SCF Done:  E(RwB97XD) =  -2358.76974718     A.U. after   14 cycles
 SCF Done:  E(RwB97XD) =  -2358.76975945     A.U. after   13 cycles
 SCF Done:  E(RwB97XD) =  -2358.76976798     A.U. after   13 cycles
 SCF Done:  E(RwB97XD) =  -2358.76978479     A.U. after   14 cycles
 SCF Done:  E(RwB97XD) =  -2358.76978922     A.U. after   14 cycles
 SCF Done:  E(RwB97XD) =  -2358.76979129     A.U. after   12 cycles
 SCF Done:  E(RwB97XD) =  -2358.76979220     A.U. after   11 cycles
 SCF Done:  E(RwB97XD) =  -2358.76979243     A.U. after   10 cycles
 Optimization completed.
    -- Stationary point found.

                         Standard orientation:
 ---------------------------------------------------------------------
 Center     Atomic      Atomic             Coordinates (Angstroms)
 Number     Number       Type             X           Y           Z
 ---------------------------------------------------------------------
      1          6           0       -2.483070   -3.030192    0.023632
      2          6           0       -2.207230   -1.569605    0.061565
      3          6           0       -3.265076   -0.642609   -0.025346
      4          6           0       -4.592014   -1.082319   -0.177353
      5          6           0       -4.899367   -2.537921   -0.226260
      6          6           0       -0.920185   -1.134314    0.130695
      7          6           0       -2.959030    0.731783    0.044396
      8          6           0       -1.611858    1.176667    0.203223
      9          6           0       -0.555632    0.247298    0.174760
     10          6           0       -1.439184    2.616121    0.543517
     11          6           0       -3.796421    3.102623   -0.042898
     12          6           0       -4.034421    1.642005   -0.078351
     13          6           0       -5.328476    1.197215   -0.247517
     14          6           0       -5.617702   -0.170855   -0.288942
     15          1           0       -6.632770   -0.526999   -0.411564
     16          1           0       -6.114798    1.935156   -0.348894
     17          1           0       -0.154250   -1.899902    0.135550
     18          7           0       -2.495616    3.489270    0.256457
     19          7           0       -3.815306   -3.414651   -0.114416
     20          8           0       -1.607869   -3.862321    0.105516
     21          8           0       -6.030094   -2.948506   -0.353467
     22          8           0       -4.676391    3.913519   -0.232283
     23          8           0       -0.450357    3.072124    1.075576
     24          6           0       -2.235348    4.910591    0.478322
     25          1           0       -2.143744    5.118279    1.545629
     26          1           0       -1.302521    5.187817   -0.010136
     27          1           0       -3.067472    5.470077    0.061109
     28          6           0       -4.071470   -4.853747   -0.150328
     29          1           0       -3.542943   -5.301398   -0.992225
     30          1           0       -3.711871   -5.314124    0.770014
     31          1           0       -5.142181   -5.001174   -0.254569
     32          6           0        0.877969    0.518263    0.028508
     33          6           0        1.565865    1.686027   -0.205187
     34         16           0        2.004346   -0.807538    0.189868
     35          6           0        2.958876    1.509189   -0.281567
     36          1           0        1.090409    2.643360   -0.314856
     37          6           0        3.376225    0.205889   -0.081316
     38          8           0        3.874767    2.476063   -0.514994
     39          6           0        4.730646   -0.293103   -0.082764
     40          6           0        3.406793    3.807045   -0.613749
     41          6           0        5.138983   -1.596850    0.115366
     42         16           0        6.119570    0.726072   -0.345178
     43          1           0        4.290866    4.428335   -0.744374
     44          1           0        2.746885    3.929380   -1.479551
     45          1           0        2.877508    4.107556    0.296509
     46          6           0        6.548141   -1.774231    0.057192
     47          8           0        4.217884   -2.558380    0.338999
     48          6           0        7.192183   -0.598392   -0.185195
     49          1           0        7.056775   -2.718415    0.187425
     50          6           0        4.677058   -3.881701    0.530471
     51          1           0        8.256216   -0.442010   -0.279033
     52          1           0        5.325239   -3.950386    1.410537
     53          1           0        3.788059   -4.489386    0.687942
     54          1           0        5.213345   -4.244299   -0.352861
 ---------------------------------------------------------------------

 The electronic state is 1-A.
 Alpha  occ. eigenvalues --  -89.05169 -89.05020 -19.29430 -19.29117 -19.24880
 Alpha  occ. eigenvalues --  -19.24867 -19.24629 -19.24390 -14.50446 -14.50119
 Alpha  occ. eigenvalues --  -10.42652 -10.42565 -10.42468 -10.42085 -10.35903
 Alpha  occ. eigenvalues --  -10.35727 -10.35567 -10.34748 -10.34443 -10.34206
 Alpha  occ. eigenvalues --  -10.33949 -10.33621 -10.33611 -10.33526 -10.33465
 Alpha  occ. eigenvalues --  -10.33428 -10.33285 -10.32748 -10.32711 -10.32412
 Alpha  occ. eigenvalues --  -10.32315 -10.32222 -10.32151 -10.32123 -10.30010
 Alpha  occ. eigenvalues --  -10.29946  -8.09213  -8.09040  -6.04062  -6.03882
 Alpha  occ. eigenvalues --   -6.03659  -6.03486  -6.03285  -6.03128  -1.19354
 Alpha  occ. eigenvalues --   -1.19237  -1.19170  -1.18850  -1.17443  -1.17177
 Alpha  occ. eigenvalues --   -1.06608  -1.06281  -1.02942  -1.00904  -0.99236
 Alpha  occ. eigenvalues --   -0.97015  -0.94476  -0.90568  -0.88494  -0.87648
 Alpha  occ. eigenvalues --   -0.86239  -0.85177  -0.85068  -0.82992  -0.82264
 Alpha  occ. eigenvalues --   -0.81540  -0.79788  -0.78407  -0.76827  -0.75384
 Alpha  occ. eigenvalues --   -0.75177  -0.74128  -0.70363  -0.69095  -0.68029
 Alpha  occ. eigenvalues --   -0.66506  -0.65879  -0.65468  -0.64549  -0.63940
 Alpha  occ. eigenvalues --   -0.62344  -0.60612  -0.59719  -0.59240  -0.58717
 Alpha  occ. eigenvalues --   -0.58402  -0.57676  -0.57624  -0.57288  -0.57187
 Alpha  occ. eigenvalues --   -0.56765  -0.55831  -0.55385  -0.55083  -0.54568
 Alpha  occ. eigenvalues --   -0.53806  -0.53754  -0.53437  -0.53069  -0.51828
 Alpha  occ. eigenvalues --   -0.51624  -0.51193  -0.50953  -0.50719  -0.50476
 Alpha  occ. eigenvalues --   -0.50174  -0.49531  -0.49478  -0.48905  -0.48437
 Alpha  occ. eigenvalues --   -0.47936  -0.47846  -0.46882  -0.46044  -0.45317
 Alpha  occ. eigenvalues --   -0.44816  -0.44217  -0.42592  -0.41941  -0.41621
 Alpha  occ. eigenvalues --   -0.41109  -0.40025  -0.39565  -0.38517  -0.37864
 Alpha  occ. eigenvalues --   -0.37205  -0.37074  -0.36697  -0.36410  -0.34557
 Alpha  occ. eigenvalues --   -0.33154  -0.31998  -0.31779  -0.25752
 Alpha virt. eigenvalues --   -0.07117  -0.01382   0.00594   0.02582   0.03672
 Alpha virt. eigenvalues --    0.05264   0.05681   0.06046   0.06723   0.07064
 Alpha virt. eigenvalues --    0.07129   0.07312   0.07865   0.08102   0.08229

 Mulliken charges:
               1
     1  C    0.392677
     2  C   -0.057014
     3  C    0.122566
     4  C    0.211784
     5  C    0.393141
     6  C    0.067462
     7  C    0.100411
     8  C    0.469870
     9  C    0.162681
    10  C   -0.888268
    11  C    0.340132
    12  C    0.128651
    13  C   -0.571620
    14  C   -0.687030
    15  H    0.186594
    16  H    0.188164
    17  H    0.189173
    18  N    0.057040
    19  N   -0.088846
    20  O   -0.270983
    21  O   -0.265501
    22  O   -0.279419
    23  O   -0.248749
    24  C   -0.245853
    25  H    0.202107
    26  H    0.180434
    27  H    0.201411
    28  C   -0.283062
    29  H    0.193421
    30  H    0.192388
    31  H    0.199862
    32  C    0.014388
    33  C   -0.040930
    34  S   -0.718323
    35  C   -0.688336
    36  H    0.170124
    37  C    0.554260
    38  O   -0.106159
    39  C    1.069636
    40  C   -0.317306
    41  C    0.047111
    42  S   -0.237056
    43  H    0.183900
    44  H    0.156878
    45  H    0.177680
    46  C   -0.601719
    47  O   -0.109061
    48  C   -0.388106
    49  H    0.157871
    50  C   -0.312012
    51  H    0.189124
    52  H    0.158217
    53  H    0.187191
    54  H    0.159005
 Sum of Mulliken charges =  -0.00000

 Dipole moment (field-independent basis, Debye):
    X=              3.7610    Y=             -0.4563    Z=             -0.4202  Tot=              3.8118
 Quadrupole moment (field-independent basis, Debye-Ang):
   XX=           -213.2776   YY=           -203.3607   ZZ=           -223.7049
   XY=             -5.1767   XZ=             -2.4248   YZ=             -4.6435

 Normal termination of Gaussian 16 at Fri Nov 27 00:02:38 2020.
