 Gaussian 16, Revision C.01,
 Gaussian 16:  ES64L-G16RevC.01  3-Jul-2019

 --------------------------------------
 # opt=modredundant wb97xd/6-311+g(d,p)
 --------------------------------------

 ----------
 NDI_50.pdb
 ----------
 Symbolic Z-matrix:
 Charge =  0 Multiplicity = 1

 SCF Done:  E(RwB97XD) =  -2358.76641519     A.U. after   19 cycles
 SCF Done:  E(RwB97XD) =  -2358.77239241     A.U. after   17 cycles
 SCF Done:  E(RwB97XD) =  -2358.77301902     A.U. after   17 cycles
 SCF Done:  E(RwB97XD) =  -2358.77331720     A.U. after   16 cycles
 SCF Done:  E(RwB97XD) =  -2358.77362542     A.U. after   14 cycles
 SCF Done:  E(RwB97XD) =  -2358.77379089     A.U. after   16 cycles
 SCF Done:  E(RwB97XD) =  -2358.77392093     A.U. after   16 cycles
 SCF Done:  E(RwB97XD) =  -2358.77399206     A.U. after   13 cycles
 SCF Done:  E(RwB97XD) =  -2358.77410314     A.U. after   15 cycles
 SCF Done:  E(RwB97XD) =  -2358.77414621     A.U. after   15 cycles
 SCF Done:  E(RwB97XD) =  -2358.77426708     A.U. after   14 cycles
 SCF Done:  E(RwB97XD) =  -2358.77426954     A.U. after   13 cycles
 SCF Done:  E(RwB97XD) =  -2358.77427202     A.U. after   13 cycles
 SCF Done:  E(RwB97XD) =  -2358.77427251     A.U. after   13 cycles
 SCF Done:  E(RwB97XD) =  -2358.77427290     A.U. after   13 cycles
 SCF Done:  E(RwB97XD) =  -2358.77427311     A.U. after   12 cycles
 SCF Done:  E(RwB97XD) =  -2358.77427319     A.U. after   11 cycles
 SCF Done:  E(RwB97XD) =  -2358.77427325     A.U. after    9 cycles
 SCF Done:  E(RwB97XD) =  -2358.77427330     A.U. after   10 cycles
 SCF Done:  E(RwB97XD) =  -2358.77427331     A.U. after    8 cycles
 Optimization completed.
    -- Stationary point found.

                         Standard orientation:
 ---------------------------------------------------------------------
 Center     Atomic      Atomic             Coordinates (Angstroms)
 Number     Number       Type             X           Y           Z
 ---------------------------------------------------------------------
      1          6           0       -2.818959   -2.934855    0.509281
      2          6           0       -2.381144   -1.532278    0.279636
      3          6           0       -3.334838   -0.517186    0.061942
      4          6           0       -4.712135   -0.813709    0.069143
      5          6           0       -5.179803   -2.208066    0.300781
      6          6           0       -1.050496   -1.226619    0.312592
      7          6           0       -2.889526    0.802015   -0.167310
      8          6           0       -1.499146    1.101302   -0.177573
      9          6           0       -0.574719    0.097449    0.111203
     10          6           0       -1.087749    2.473423   -0.603657
     11          6           0       -3.461284    3.211314   -0.614951
     12          6           0       -3.864384    1.804019   -0.374512
     13          6           0       -5.206728    1.498181   -0.354942
     14          6           0       -5.637807    0.182727   -0.135622
     15          1           0       -6.691778   -0.065524   -0.123720
     16          1           0       -5.920361    2.297590   -0.512325
     17          1           0       -0.342678   -2.018252    0.528318
     18          7           0       -2.093407    3.445489   -0.702963
     19          7           0       -4.192297   -3.176343    0.502728
     20          8           0       -2.037070   -3.839163    0.694802
     21          8           0       -6.355303   -2.493458    0.312849
     22          8           0       -4.271490    4.102396   -0.743365
     23          8           0        0.047216    2.783792   -0.878829
     24          6           0       -1.644349    4.794323   -1.045628
     25          1           0       -0.858414    5.101472   -0.356924
     26          1           0       -1.241810    4.810653   -2.059339
     27          1           0       -2.499713    5.459284   -0.972107
     28          6           0       -4.604362   -4.560868    0.730494
     29          1           0       -4.183629   -5.202256   -0.044096
     30          1           0       -4.236679   -4.899500    1.699208
     31          1           0       -5.689247   -4.596780    0.703550
     32          6           0        0.868942    0.302415    0.278763
     33          6           0        1.505932    1.223421    1.060074
     34         16           0        1.992327   -0.782612   -0.464232
     35          6           0        2.910346    1.064927    1.046535
     36          1           0        0.981627    1.988715    1.613085
     37          6           0        3.351472    0.020592    0.258615
     38          8           0        3.806567    1.821876    1.721416
     39          6           0        4.719096   -0.378535    0.010043
     40          6           0        3.330657    3.009053    2.322354
     41          6           0        5.152052   -1.444710   -0.749286
     42         16           0        6.091111    0.479522    0.654928
     43          1           0        4.205960    3.519200    2.720637
     44          1           0        2.835151    3.650881    1.586061
     45          1           0        2.639437    2.787759    3.143222
     46          6           0        6.567074   -1.571139   -0.814079
     47          8           0        4.246039   -2.250974   -1.349399
     48          6           0        7.192062   -0.594541   -0.099535
     49          1           0        7.092990   -2.342440   -1.358001
     50          6           0        4.734532   -3.336397   -2.109851
     51          1           0        8.254530   -0.452324    0.027492
     52          1           0        5.315641   -4.025489   -1.487496
     53          1           0        3.858285   -3.853020   -2.497291
     54          1           0        5.349528   -2.987847   -2.946627
 ---------------------------------------------------------------------

 The electronic state is 1-A.
 Alpha  occ. eigenvalues --  -89.04866 -89.04479 -19.28919 -19.28763 -19.25078
 Alpha  occ. eigenvalues --  -19.25028 -19.24688 -19.24620 -14.50629 -14.50297
 Alpha  occ. eigenvalues --  -10.42867 -10.42648 -10.42617 -10.42433 -10.35278
 Alpha  occ. eigenvalues --  -10.35222 -10.35204 -10.34468 -10.34438 -10.34310
 Alpha  occ. eigenvalues --  -10.34293 -10.34108 -10.33877 -10.33832 -10.33720
 Alpha  occ. eigenvalues --  -10.32889 -10.32851 -10.32832 -10.32776 -10.32760
 Alpha  occ. eigenvalues --  -10.32255 -10.32229 -10.32126 -10.31615 -10.29784
 Alpha  occ. eigenvalues --  -10.29517  -8.08887  -8.08500  -6.03737  -6.03343
 Alpha  occ. eigenvalues --   -6.03341  -6.02959  -6.02947  -6.02589  -1.19543
 Alpha  occ. eigenvalues --   -1.19325  -1.18626  -1.18482  -1.17635  -1.17359
 Alpha  occ. eigenvalues --   -1.06797  -1.06405  -1.03262  -1.00546  -0.98885
 Alpha  occ. eigenvalues --   -0.97160  -0.94774  -0.90540  -0.88738  -0.87316
 Alpha  occ. eigenvalues --   -0.85934  -0.85320  -0.84652  -0.82754  -0.82255
 Alpha  occ. eigenvalues --   -0.81511  -0.79515  -0.78306  -0.76945  -0.75606
 Alpha  occ. eigenvalues --   -0.75232  -0.74297  -0.70234  -0.68818  -0.67883
 Alpha  occ. eigenvalues --   -0.66679  -0.65692  -0.65005  -0.64627  -0.63465
 Alpha  occ. eigenvalues --   -0.62565  -0.60767  -0.59799  -0.59255  -0.58895
 Alpha  occ. eigenvalues --   -0.58210  -0.57731  -0.57356  -0.57282  -0.56921
 Alpha  occ. eigenvalues --   -0.56505  -0.55962  -0.55483  -0.55262  -0.54327
 Alpha  occ. eigenvalues --   -0.54024  -0.53499  -0.53405  -0.53268  -0.52314
 Alpha  occ. eigenvalues --   -0.51617  -0.51146  -0.51063  -0.50472  -0.50322
 Alpha  occ. eigenvalues --   -0.49969  -0.49560  -0.49387  -0.48926  -0.48389
 Alpha  occ. eigenvalues --   -0.48168  -0.47514  -0.46909  -0.45765  -0.45453
 Alpha  occ. eigenvalues --   -0.44254  -0.43916  -0.42371  -0.41731  -0.41288
 Alpha  occ. eigenvalues --   -0.40982  -0.40290  -0.39696  -0.38613  -0.37674
 Alpha  occ. eigenvalues --   -0.37389  -0.37042  -0.36981  -0.36253  -0.34684
 Alpha  occ. eigenvalues --   -0.33228  -0.31672  -0.31478  -0.25545
 Alpha virt. eigenvalues --   -0.07235  -0.00426   0.00458   0.02288   0.03264
 Alpha virt. eigenvalues --    0.05080   0.05814   0.06038   0.06798   0.06921
 Alpha virt. eigenvalues --    0.07288   0.07539   0.07674   0.07746   0.07892

 Mulliken charges:
               1
     1  C    0.454854
     2  C   -0.135814
     3  C    0.086421
     4  C    0.188482
     5  C    0.354637
     6  C   -0.619744
     7  C    0.140653
     8  C    0.245953
     9  C    0.450780
    10  C   -0.413462
    11  C    0.281357
    12  C    0.116078
    13  C   -0.512279
    14  C   -0.679844
    15  H    0.187858
    16  H    0.188288
    17  H    0.208519
    18  N   -0.038044
    19  N   -0.093494
    20  O   -0.263084
    21  O   -0.266751
    22  O   -0.273705
    23  O   -0.157762
    24  C   -0.269788
    25  H    0.186240
    26  H    0.200219
    27  H    0.200745
    28  C   -0.283389
    29  H    0.193421
    30  H    0.193864
    31  H    0.200126
    32  C    0.169793
    33  C   -0.400593
    34  S   -0.582005
    35  C   -0.091830
    36  H    0.151071
    37  C    0.631066
    38  O   -0.113903
    39  C    0.812527
    40  C   -0.309507
    41  C   -0.012512
    42  S   -0.295694
    43  H    0.181351
    44  H    0.175732
    45  H    0.154796
    46  C   -0.616624
    47  O   -0.113098
    48  C   -0.344351
    49  H    0.155935
    50  C   -0.305837
    51  H    0.185861
    52  H    0.157459
    53  H    0.181024
    54  H    0.158003
 Sum of Mulliken charges =  -0.00000

 Dipole moment (field-independent basis, Debye):
    X=              2.2647    Y=             -0.1268    Z=              0.1605  Tot=              2.2739
 Quadrupole moment (field-independent basis, Debye-Ang):
   XX=           -216.1600   YY=           -212.1826   ZZ=           -214.1930
   XY=             -3.2313   XZ=             -5.0217   YZ=             15.1402

 Normal termination of Gaussian 16 at Fri Nov 27 04:39:16 2020.
