 Gaussian 16, Revision C.01,
 Gaussian 16:  ES64L-G16RevC.01  3-Jul-2019

 --------------------------------------
 # opt=modredundant wb97xd/6-311+g(d,p)
 --------------------------------------

 -----------
 NDI_100.pdb
 -----------
 Symbolic Z-matrix:
 Charge =  0 Multiplicity = 1

 SCF Done:  E(RwB97XD) =  -2358.76515797     A.U. after   19 cycles
 SCF Done:  E(RwB97XD) =  -2358.77204677     A.U. after   16 cycles
 SCF Done:  E(RwB97XD) =  -2358.77293264     A.U. after   17 cycles
 SCF Done:  E(RwB97XD) =  -2358.77322559     A.U. after   15 cycles
 SCF Done:  E(RwB97XD) =  -2358.77336689     A.U. after   14 cycles
 SCF Done:  E(RwB97XD) =  -2358.77340452     A.U. after   13 cycles
 SCF Done:  E(RwB97XD) =  -2358.77342901     A.U. after   13 cycles
 SCF Done:  E(RwB97XD) =  -2358.77344160     A.U. after   13 cycles
 SCF Done:  E(RwB97XD) =  -2358.77345026     A.U. after   13 cycles
 SCF Done:  E(RwB97XD) =  -2358.77346135     A.U. after   13 cycles
 SCF Done:  E(RwB97XD) =  -2358.77349573     A.U. after   11 cycles
 SCF Done:  E(RwB97XD) =  -2358.77349608     A.U. after   11 cycles
 SCF Done:  E(RwB97XD) =  -2358.77349633     A.U. after   11 cycles
 SCF Done:  E(RwB97XD) =  -2358.77349643     A.U. after    9 cycles
 SCF Done:  E(RwB97XD) =  -2358.77349651     A.U. after    8 cycles
 SCF Done:  E(RwB97XD) =  -2358.77349663     A.U. after    9 cycles
 SCF Done:  E(RwB97XD) =  -2358.77349674     A.U. after    9 cycles
 SCF Done:  E(RwB97XD) =  -2358.77349679     A.U. after    9 cycles
 SCF Done:  E(RwB97XD) =  -2358.77349681     A.U. after    9 cycles
 SCF Done:  E(RwB97XD) =  -2358.77349681     A.U. after    9 cycles
 Optimization completed.
    -- Stationary point found.

                         Standard orientation:
 ---------------------------------------------------------------------
 Center     Atomic      Atomic             Coordinates (Angstroms)
 Number     Number       Type             X           Y           Z
 ---------------------------------------------------------------------
      1          6           0        3.371946   -2.799711    0.063726
      2          6           0        2.679574   -1.488780   -0.049362
      3          6           0        3.409415   -0.289708    0.070131
      4          6           0        4.799463   -0.313996    0.308228
      5          6           0        5.517894   -1.612231    0.430667
      6          6           0        1.327082   -1.449260   -0.259994
      7          6           0        2.733743    0.942927   -0.050258
      8          6           0        1.336052    0.968373   -0.294002
      9          6           0        0.629038   -0.223028   -0.380380
     10          6           0        0.671345    2.293088   -0.491780
     11          6           0        2.812971    3.459337   -0.013995
     12          6           0        3.479733    2.135135    0.086772
     13          6           0        4.834130    2.091554    0.323066
     14          6           0        5.501142    0.861332    0.432276
     15          1           0        6.567597    0.820363    0.616656
     16          1           0        5.372373    3.025850    0.425401
     17          1           0        0.774427   -2.378436   -0.331676
     18          7           0        1.446502    3.439448   -0.272672
     19          7           0        4.746796   -2.770211    0.298339
     20          8           0        2.789013   -3.854457   -0.040402
     21          8           0        6.709196   -1.665742    0.633607
     22          8           0        3.423123    4.496684    0.118025
     23          8           0       -0.480496    2.416860   -0.829972
     24          6           0        0.748807    4.716641   -0.419878
     25          1           0        0.457718    4.867918   -1.460299
     26          1           0       -0.150730    4.709440    0.193899
     27          1           0        1.424595    5.505490   -0.103478
     28          6           0        5.409077   -4.069543    0.409100
     29          1           0        4.969548   -4.637444    1.229172
     30          1           0        5.273109   -4.631910   -0.514801
     31          1           0        6.464611   -3.893595    0.593185
     32          6           0       -0.833114   -0.315948   -0.584532
     33          6           0       -1.487360   -0.567093   -1.751153
     34         16           0       -1.913121   -0.178960    0.750104
     35          6           0       -2.896358   -0.622124   -1.569643
     36          1           0       -0.981052   -0.675894   -2.699744
     37          6           0       -3.303180   -0.433063   -0.268821
     38          8           0       -3.816545   -0.847299   -2.537420
     39          6           0       -4.657559   -0.441795    0.244626
     40          6           0       -3.357315   -0.925341   -3.870072
     41          6           0       -5.057671   -0.262910    1.550490
     42         16           0       -6.053262   -0.683373   -0.768560
     43          1           0       -4.242848   -1.063102   -4.488107
     44          1           0       -2.846844   -0.002656   -4.166987
     45          1           0       -2.684728   -1.779156   -4.009047
     46          6           0       -6.466929   -0.317470    1.736938
     47          8           0       -4.127870   -0.059572    2.515622
     48          6           0       -7.121613   -0.538610    0.563532
     49          1           0       -6.968203   -0.199629    2.686864
     50          6           0       -4.587601    0.137092    3.835368
     51          1           0       -8.186677   -0.625799    0.411546
     52          1           0       -5.133679   -0.739987    4.200024
     53          1           0       -3.699445    0.287097    4.446869
     54          1           0       -5.228391    1.023122    3.904168
 ---------------------------------------------------------------------

 The electronic state is 1-A.
 Alpha  occ. eigenvalues --  -89.04336 -89.04019 -19.28460 -19.28435 -19.25281
 Alpha  occ. eigenvalues --  -19.25222 -19.24939 -19.24902 -14.50826 -14.50486
 Alpha  occ. eigenvalues --  -10.43084 -10.42851 -10.42747 -10.42712 -10.35193
 Alpha  occ. eigenvalues --  -10.34775 -10.34754 -10.34699 -10.34640 -10.34520
 Alpha  occ. eigenvalues --  -10.34175 -10.34163 -10.34118 -10.34110 -10.34099
 Alpha  occ. eigenvalues --  -10.33236 -10.33144 -10.33141 -10.32664 -10.32408
 Alpha  occ. eigenvalues --  -10.32125 -10.31928 -10.31775 -10.31094 -10.29356
 Alpha  occ. eigenvalues --  -10.29091  -8.08349  -8.08042  -6.03207  -6.02885
 Alpha  occ. eigenvalues --   -6.02807  -6.02489  -6.02408  -6.02131  -1.19740
 Alpha  occ. eigenvalues --   -1.19541  -1.18178  -1.18097  -1.17836  -1.17608
 Alpha  occ. eigenvalues --   -1.07002  -1.06624  -1.03569  -1.00152  -0.98590
 Alpha  occ. eigenvalues --   -0.97203  -0.95059  -0.90541  -0.88994  -0.87027
 Alpha  occ. eigenvalues --   -0.85650  -0.85449  -0.84171  -0.82722  -0.82229
 Alpha  occ. eigenvalues --   -0.81323  -0.79329  -0.78152  -0.77090  -0.75839
 Alpha  occ. eigenvalues --   -0.75339  -0.74460  -0.70126  -0.68625  -0.67730
 Alpha  occ. eigenvalues --   -0.66881  -0.65627  -0.64592  -0.64507  -0.63051
 Alpha  occ. eigenvalues --   -0.62887  -0.60946  -0.59968  -0.59370  -0.59107
 Alpha  occ. eigenvalues --   -0.57895  -0.57837  -0.57465  -0.56974  -0.56643
 Alpha  occ. eigenvalues --   -0.56381  -0.56172  -0.55661  -0.55405  -0.54216
 Alpha  occ. eigenvalues --   -0.53999  -0.53764  -0.53461  -0.53092  -0.52471
 Alpha  occ. eigenvalues --   -0.51739  -0.51334  -0.51220  -0.50431  -0.50067
 Alpha  occ. eigenvalues --   -0.49684  -0.49587  -0.49201  -0.48922  -0.48476
 Alpha  occ. eigenvalues --   -0.48412  -0.46969  -0.46691  -0.45875  -0.44993
 Alpha  occ. eigenvalues --   -0.44151  -0.43529  -0.41978  -0.41246  -0.41031
 Alpha  occ. eigenvalues --   -0.40791  -0.40535  -0.39829  -0.38700  -0.37632
 Alpha  occ. eigenvalues --   -0.37570  -0.37132  -0.36964  -0.35970  -0.34981
 Alpha  occ. eigenvalues --   -0.33568  -0.31409  -0.31104  -0.25295
 Alpha virt. eigenvalues --   -0.07311  -0.00045   0.00635   0.02291   0.02586
 Alpha virt. eigenvalues --    0.04997   0.05977   0.06256   0.06580   0.06894
 Alpha virt. eigenvalues --    0.07305   0.07413   0.07572   0.07722   0.08018

 Mulliken charges:
               1
     1  C    0.474719
     2  C    0.084807
     3  C    0.191524
     4  C    0.176032
     5  C    0.378495
     6  C   -0.694185
     7  C    0.133805
     8  C   -0.065560
     9  C    0.314147
    10  C   -0.310587
    11  C    0.285804
    12  C    0.181578
    13  C   -0.573948
    14  C   -0.716218
    15  H    0.188943
    16  H    0.189713
    17  H    0.195903
    18  N   -0.079165
    19  N   -0.096087
    20  O   -0.257062
    21  O   -0.268381
    22  O   -0.270057
    23  O   -0.107527
    24  C   -0.292792
    25  H    0.198172
    26  H    0.195766
    27  H    0.200608
    28  C   -0.285867
    29  H    0.194490
    30  H    0.193961
    31  H    0.200525
    32  C    0.250800
    33  C   -0.397033
    34  S   -0.185773
    35  C   -0.103106
    36  H    0.142458
    37  C    0.184758
    38  O   -0.116210
    39  C    0.843434
    40  C   -0.292598
    41  C    0.068903
    42  S   -0.305330
    43  H    0.181288
    44  H    0.168345
    45  H    0.156066
    46  C   -0.564371
    47  O   -0.127231
    48  C   -0.393479
    49  H    0.153928
    50  C   -0.299938
    51  H    0.183590
    52  H    0.155002
    53  H    0.177556
    54  H    0.157384
 Sum of Mulliken charges =  -0.00000

 Dipole moment (field-independent basis, Debye):
    X=             -1.0064    Y=              0.2095    Z=              0.0933  Tot=              1.0322
 Quadrupole moment (field-independent basis, Debye-Ang):
   XX=           -217.5331   YY=           -231.6426   ZZ=           -195.5317
   XY=             -4.4420   XZ=            -10.0706   YZ=              3.0175

 Normal termination of Gaussian 16 at Fri Nov 27 03:01:18 2020.
