 Gaussian 16, Revision C.01,
 Gaussian 16:  ES64L-G16RevC.01  3-Jul-2019

 --------------------------------------
 # opt=modredundant wb97xd/6-311+g(d,p)
 --------------------------------------

 ----------
 NDI_85.pdb
 ----------
 Symbolic Z-matrix:
 Charge =  0 Multiplicity = 1

 SCF Done:  E(RwB97XD) =  -2358.76448721     A.U. after   19 cycles
 SCF Done:  E(RwB97XD) =  -2358.77177525     A.U. after   16 cycles
 SCF Done:  E(RwB97XD) =  -2358.77284255     A.U. after   15 cycles
 SCF Done:  E(RwB97XD) =  -2358.77312465     A.U. after   15 cycles
 SCF Done:  E(RwB97XD) =  -2358.77323248     A.U. after   15 cycles
 SCF Done:  E(RwB97XD) =  -2358.77329713     A.U. after   13 cycles
 SCF Done:  E(RwB97XD) =  -2358.77332484     A.U. after   13 cycles
 SCF Done:  E(RwB97XD) =  -2358.77334279     A.U. after   12 cycles
 SCF Done:  E(RwB97XD) =  -2358.77335382     A.U. after   12 cycles
 SCF Done:  E(RwB97XD) =  -2358.77336678     A.U. after   13 cycles
 SCF Done:  E(RwB97XD) =  -2358.77337934     A.U. after   13 cycles
 SCF Done:  E(RwB97XD) =  -2358.77338596     A.U. after   12 cycles
 SCF Done:  E(RwB97XD) =  -2358.77339241     A.U. after   12 cycles
 SCF Done:  E(RwB97XD) =  -2358.77339638     A.U. after   11 cycles
 SCF Done:  E(RwB97XD) =  -2358.77339912     A.U. after   11 cycles
 SCF Done:  E(RwB97XD) =  -2358.77340006     A.U. after   11 cycles
 SCF Done:  E(RwB97XD) =  -2358.77340014     A.U. after   10 cycles
 SCF Done:  E(RwB97XD) =  -2358.77340017     A.U. after   10 cycles
 Optimization completed.
    -- Stationary point found.

                         Standard orientation:
 ---------------------------------------------------------------------
 Center     Atomic      Atomic             Coordinates (Angstroms)
 Number     Number       Type             X           Y           Z
 ---------------------------------------------------------------------
      1          6           0       -3.193166   -2.836740    0.413562
      2          6           0       -2.583167   -1.486955    0.282444
      3          6           0       -3.390899   -0.368901   -0.004462
      4          6           0       -4.783937   -0.512713   -0.172595
      5          6           0       -5.421464   -1.852511   -0.049214
      6          6           0       -1.232988   -1.332012    0.447634
      7          6           0       -2.790509    0.902266   -0.124402
      8          6           0       -1.388477    1.047522    0.044432
      9          6           0       -0.611234   -0.063974    0.340543
     10          6           0       -0.786264    2.406446   -0.121857
     11          6           0       -3.037480    3.371419   -0.552133
     12          6           0       -3.617796    2.010867   -0.413035
     13          6           0       -4.974857    1.851353   -0.572344
     14          6           0       -5.564400    0.583470   -0.452291
     15          1           0       -6.631990    0.451180   -0.577591
     16          1           0       -5.576530    2.724580   -0.792559
     17          1           0       -0.624496   -2.199644    0.673661
     18          7           0       -1.658638    3.468018   -0.396313
     19          7           0       -4.573735   -2.926443    0.234408
     20          8           0       -2.540751   -3.823978    0.663634
     21          8           0       -6.613248   -2.007060   -0.187250
     22          8           0       -3.723517    4.340171   -0.790198
     23          8           0        0.397036    2.627831   -0.035344
     24          6           0       -1.031484    4.781237   -0.544566
     25          1           0       -0.493983    5.037685    0.368241
     26          1           0       -0.320076    4.759582   -1.370206
     27          1           0       -1.816437    5.505727   -0.739273
     28          6           0       -5.154958   -4.262235    0.364387
     29          1           0       -4.700037   -4.933186   -0.364264
     30          1           0       -4.962110   -4.652559    1.363839
     31          1           0       -6.223624   -4.181171    0.189932
     32          6           0        0.850743   -0.027359    0.565290
     33          6           0        1.499482    0.250674    1.728532
     34         16           0        1.937818   -0.472535   -0.694437
     35          6           0        2.909109    0.128473    1.594418
     36          1           0        0.987923    0.551422    2.631733
     37          6           0        3.323239   -0.255711    0.339746
     38          8           0        3.823719    0.342691    2.570118
     39          6           0        4.681553   -0.457161   -0.121023
     40          6           0        3.362663    0.888728    3.787688
     41          6           0        5.087850   -0.870043   -1.370703
     42         16           0        6.074471   -0.179446    0.886766
     43          1           0        4.246246    1.042813    4.404706
     44          1           0        2.860074    1.848376    3.624965
     45          1           0        2.682380    0.199078    4.299861
     46          6           0        6.499692   -0.961105   -1.519671
     47          8           0        4.161124   -1.146399   -2.320362
     48          6           0        7.150041   -0.614575   -0.374600
     49          1           0        7.005754   -1.266949   -2.424043
     50          6           0        4.626205   -1.547021   -3.591250
     51          1           0        8.215687   -0.595741   -0.204008
     52          1           0        5.199568   -2.478520   -3.528241
     53          1           0        3.739307   -1.711639   -4.200780
     54          1           0        5.242476   -0.767033   -4.051883
 ---------------------------------------------------------------------

 The electronic state is 1-A.
 Alpha  occ. eigenvalues --  -89.04375 -89.04005 -19.28435 -19.28416 -19.25283
 Alpha  occ. eigenvalues --  -19.25216 -19.24971 -19.24900 -14.50824 -14.50530
 Alpha  occ. eigenvalues --  -10.43085 -10.42846 -10.42782 -10.42749 -10.35225
 Alpha  occ. eigenvalues --  -10.34786 -10.34755 -10.34726 -10.34626 -10.34531
 Alpha  occ. eigenvalues --  -10.34185 -10.34131 -10.34128 -10.34105 -10.34104
 Alpha  occ. eigenvalues --  -10.33238 -10.33150 -10.33139 -10.32651 -10.32403
 Alpha  occ. eigenvalues --  -10.32157 -10.31919 -10.31760 -10.31084 -10.29315
 Alpha  occ. eigenvalues --  -10.29076  -8.08385  -8.08028  -6.03243  -6.02871
 Alpha  occ. eigenvalues --   -6.02842  -6.02475  -6.02447  -6.02117  -1.19742
 Alpha  occ. eigenvalues --   -1.19569  -1.18158  -1.18075  -1.17838  -1.17637
 Alpha  occ. eigenvalues --   -1.07006  -1.06642  -1.03577  -1.00155  -0.98583
 Alpha  occ. eigenvalues --   -0.97205  -0.95069  -0.90542  -0.89005  -0.87022
 Alpha  occ. eigenvalues --   -0.85639  -0.85461  -0.84162  -0.82744  -0.82168
 Alpha  occ. eigenvalues --   -0.81401  -0.79282  -0.78152  -0.77108  -0.75854
 Alpha  occ. eigenvalues --   -0.75368  -0.74448  -0.70151  -0.68608  -0.67729
 Alpha  occ. eigenvalues --   -0.66887  -0.65558  -0.64744  -0.64479  -0.63020
 Alpha  occ. eigenvalues --   -0.62839  -0.60956  -0.59981  -0.59393  -0.59117
 Alpha  occ. eigenvalues --   -0.57926  -0.57810  -0.57476  -0.56964  -0.56632
 Alpha  occ. eigenvalues --   -0.56398  -0.56144  -0.55657  -0.55400  -0.54223
 Alpha  occ. eigenvalues --   -0.54027  -0.53707  -0.53505  -0.53077  -0.52454
 Alpha  occ. eigenvalues --   -0.51735  -0.51339  -0.51269  -0.50445  -0.50083
 Alpha  occ. eigenvalues --   -0.49680  -0.49559  -0.49150  -0.48969  -0.48476
 Alpha  occ. eigenvalues --   -0.48433  -0.46898  -0.46803  -0.45904  -0.44961
 Alpha  occ. eigenvalues --   -0.44119  -0.43507  -0.41997  -0.41297  -0.41003
 Alpha  occ. eigenvalues --   -0.40712  -0.40556  -0.39830  -0.38702  -0.37638
 Alpha  occ. eigenvalues --   -0.37585  -0.37197  -0.37007  -0.36031  -0.34874
 Alpha  occ. eigenvalues --   -0.33589  -0.31387  -0.31105  -0.25287
 Alpha virt. eigenvalues --   -0.07329  -0.00064   0.00657   0.02329   0.02507
 Alpha virt. eigenvalues --    0.04959   0.06003   0.06196   0.06645   0.06888
 Alpha virt. eigenvalues --    0.07376   0.07416   0.07578   0.07725   0.08009

 Mulliken charges:
               1
     1  C    0.470683
     2  C    0.041586
     3  C    0.199077
     4  C    0.176507
     5  C    0.353503
     6  C   -0.699783
     7  C    0.147961
     8  C    0.022658
     9  C    0.446663
    10  C   -0.347239
    11  C    0.256977
    12  C    0.194734
    13  C   -0.579739
    14  C   -0.727343
    15  H    0.188832
    16  H    0.189456
    17  H    0.199537
    18  N   -0.111092
    19  N   -0.097663
    20  O   -0.256529
    21  O   -0.267472
    22  O   -0.267663
    23  O   -0.087779
    24  C   -0.301678
    25  H    0.193693
    26  H    0.198236
    27  H    0.202090
    28  C   -0.285470
    29  H    0.193755
    30  H    0.194664
    31  H    0.200248
    32  C    0.184449
    33  C   -0.485111
    34  S   -0.143121
    35  C   -0.089360
    36  H    0.141531
    37  C    0.228175
    38  O   -0.122039
    39  C    0.831078
    40  C   -0.295718
    41  C    0.062226
    42  S   -0.307430
    43  H    0.181038
    44  H    0.170436
    45  H    0.153802
    46  C   -0.561235
    47  O   -0.125657
    48  C   -0.391971
    49  H    0.153999
    50  C   -0.300637
    51  H    0.183589
    52  H    0.154581
    53  H    0.177939
    54  H    0.158025
 Sum of Mulliken charges =  -0.00000

 Dipole moment (field-independent basis, Debye):
    X=              0.9435    Y=              0.2141    Z=             -0.0251  Tot=              0.9678
 Quadrupole moment (field-independent basis, Debye-Ang):
   XX=           -218.2839   YY=           -228.3631   ZZ=           -197.8949
   XY=              0.9619   XZ=             -9.4056   YZ=             10.4579

 Normal termination of Gaussian 16 at Fri Nov 27 06:07:19 2020.
