 Gaussian 16, Revision C.01,
 Gaussian 16:  ES64L-G16RevC.01  3-Jul-2019

 --------------------------------------
 # opt=modredundant wb97xd/6-311+g(d,p)
 --------------------------------------

 ----------
 NDI_10.pdb
 ----------
 Symbolic Z-matrix:
 Charge =  0 Multiplicity = 1

 SCF Done:  E(RwB97XD) =  -2358.75053083     A.U. after   19 cycles
 SCF Done:  E(RwB97XD) =  -2358.74779516     A.U. after   20 cycles
 SCF Done:  E(RwB97XD) =  -2358.76554164     A.U. after   17 cycles
 SCF Done:  E(RwB97XD) =  -2358.76783124     A.U. after   17 cycles
 SCF Done:  E(RwB97XD) =  -2358.76806612     A.U. after   14 cycles
 SCF Done:  E(RwB97XD) =  -2358.76849215     A.U. after   15 cycles
 SCF Done:  E(RwB97XD) =  -2358.76870237     A.U. after   15 cycles
 SCF Done:  E(RwB97XD) =  -2358.76878564     A.U. after   17 cycles
 SCF Done:  E(RwB97XD) =  -2358.76895769     A.U. after   15 cycles
 SCF Done:  E(RwB97XD) =  -2358.76907802     A.U. after   15 cycles
 SCF Done:  E(RwB97XD) =  -2358.76923528     A.U. after   13 cycles
 SCF Done:  E(RwB97XD) =  -2358.76923791     A.U. after   13 cycles
 SCF Done:  E(RwB97XD) =  -2358.76923863     A.U. after   11 cycles
 SCF Done:  E(RwB97XD) =  -2358.76923896     A.U. after   10 cycles
 SCF Done:  E(RwB97XD) =  -2358.76923905     A.U. after   11 cycles
 SCF Done:  E(RwB97XD) =  -2358.76923908     A.U. after    8 cycles
 SCF Done:  E(RwB97XD) =  -2358.76923910     A.U. after    8 cycles
 SCF Done:  E(RwB97XD) =  -2358.76923911     A.U. after    8 cycles
 SCF Done:  E(RwB97XD) =  -2358.76923912     A.U. after    8 cycles
 SCF Done:  E(RwB97XD) =  -2358.76923913     A.U. after    8 cycles
 Optimization completed.
    -- Stationary point found.

                         Standard orientation:
 ---------------------------------------------------------------------
 Center     Atomic      Atomic             Coordinates (Angstroms)
 Number     Number       Type             X           Y           Z
 ---------------------------------------------------------------------
      1          6           0       -2.406148   -2.988556    0.436438
      2          6           0       -2.162673   -1.527175    0.310710
      3          6           0       -3.227829   -0.647343    0.035068
      4          6           0       -4.526621   -1.141933   -0.175805
      5          6           0       -4.799828   -2.601814   -0.075062
      6          6           0       -0.898630   -1.047129    0.445167
      7          6           0       -2.954760    0.734235   -0.023446
      8          6           0       -1.636173    1.237201    0.213239
      9          6           0       -0.556956    0.340679    0.346728
     10          6           0       -1.528678    2.712935    0.350764
     11          6           0       -3.824311    3.045540   -0.507757
     12          6           0       -4.031780    1.588497   -0.357097
     13          6           0       -5.297144    1.088359   -0.583255
     14          6           0       -5.557343   -0.281369   -0.479810
     15          1           0       -6.550715   -0.679440   -0.643884
     16          1           0       -6.082580    1.785385   -0.848490
     17          1           0       -0.129013   -1.779994    0.650868
     18          7           0       -2.556976    3.504039   -0.172785
     19          7           0       -3.713356   -3.426527    0.234225
     20          8           0       -1.525837   -3.777815    0.695570
     21          8           0       -5.907034   -3.057634   -0.247106
     22          8           0       -4.699078    3.798330   -0.876336
     23          8           0       -0.613224    3.277581    0.911873
     24          6           0       -2.334319    4.948929   -0.154323
     25          1           0       -2.372176    5.328349    0.868230
     26          1           0       -1.352473    5.166557   -0.570877
     27          1           0       -3.115831    5.412408   -0.749355
     28          6           0       -3.937275   -4.866483    0.353776
     29          1           0       -3.322488   -5.396217   -0.374171
     30          1           0       -3.657566   -5.200476    1.353061
     31          1           0       -4.990087   -5.059231    0.171134
     32          6           0        0.888930    0.610163    0.356877
     33          6           0        1.639760    1.764043    0.420492
     34         16           0        1.948332   -0.753548    0.052789
     35          6           0        3.019964    1.547861    0.252290
     36          1           0        1.207438    2.725306    0.624658
     37          6           0        3.368489    0.227925    0.039754
     38          8           0        3.983832    2.495788    0.292559
     39          6           0        4.692884   -0.313373   -0.153359
     40          6           0        3.578612    3.829868    0.530889
     41          6           0        5.033845   -1.638095   -0.340051
     42         16           0        6.128649    0.673861   -0.177840
     43          1           0        4.489720    4.425338    0.530897
     44          1           0        2.909544    4.186133   -0.259450
     45          1           0        3.079515    3.924306    1.500772
     46          6           0        6.429439   -1.856685   -0.498650
     47          8           0        4.067051   -2.580287   -0.360492
     48          6           0        7.130765   -0.690563   -0.431726
     49          1           0        6.888580   -2.822243   -0.653812
     50          6           0        4.461742   -3.929436   -0.510787
     51          1           0        8.199228   -0.563324   -0.519189
     52          1           0        5.118769   -4.241321    0.307960
     53          1           0        3.545633   -4.516271   -0.482430
     54          1           0        4.965680   -4.088237   -1.470117
 ---------------------------------------------------------------------

 The electronic state is 1-A.
 Alpha  occ. eigenvalues --  -89.05038 -89.04999 -19.29401 -19.28974 -19.24996
 Alpha  occ. eigenvalues --  -19.24904 -19.24889 -19.24373 -14.50472 -14.50184
 Alpha  occ. eigenvalues --  -10.42784 -10.42678 -10.42490 -10.42070 -10.35987
 Alpha  occ. eigenvalues --  -10.35890 -10.35389 -10.34727 -10.34297 -10.34274
 Alpha  occ. eigenvalues --  -10.34192 -10.33632 -10.33600 -10.33547 -10.33531
 Alpha  occ. eigenvalues --  -10.33443 -10.33317 -10.32718 -10.32688 -10.32412
 Alpha  occ. eigenvalues --  -10.32326 -10.32210 -10.32165 -10.32154 -10.29993
 Alpha  occ. eigenvalues --  -10.29524  -8.09087  -8.09019  -6.03938  -6.03861
 Alpha  occ. eigenvalues --   -6.03532  -6.03464  -6.03155  -6.03108  -1.19442
 Alpha  occ. eigenvalues --   -1.19376  -1.19144  -1.18689  -1.17467  -1.17283
 Alpha  occ. eigenvalues --   -1.06645  -1.06383  -1.02966  -1.00821  -0.99192
 Alpha  occ. eigenvalues --   -0.97009  -0.94515  -0.90567  -0.88518  -0.87629
 Alpha  occ. eigenvalues --   -0.86175  -0.85227  -0.84949  -0.82948  -0.82272
 Alpha  occ. eigenvalues --   -0.81559  -0.79735  -0.78361  -0.76905  -0.75427
 Alpha  occ. eigenvalues --   -0.75192  -0.74151  -0.70324  -0.69051  -0.68054
 Alpha  occ. eigenvalues --   -0.66552  -0.65859  -0.65450  -0.64626  -0.63841
 Alpha  occ. eigenvalues --   -0.62307  -0.60600  -0.59786  -0.59340  -0.58924
 Alpha  occ. eigenvalues --   -0.58470  -0.57651  -0.57603  -0.57290  -0.57051
 Alpha  occ. eigenvalues --   -0.56747  -0.56073  -0.55374  -0.55021  -0.54585
 Alpha  occ. eigenvalues --   -0.53901  -0.53740  -0.53460  -0.53089  -0.52011
 Alpha  occ. eigenvalues --   -0.51395  -0.51130  -0.50926  -0.50567  -0.50435
 Alpha  occ. eigenvalues --   -0.50174  -0.49609  -0.49525  -0.48935  -0.48246
 Alpha  occ. eigenvalues --   -0.47970  -0.47867  -0.46732  -0.46032  -0.45140
 Alpha  occ. eigenvalues --   -0.44876  -0.44076  -0.42566  -0.41783  -0.41714
 Alpha  occ. eigenvalues --   -0.40885  -0.40075  -0.39594  -0.38458  -0.38015
 Alpha  occ. eigenvalues --   -0.37215  -0.37136  -0.36663  -0.36479  -0.34596
 Alpha  occ. eigenvalues --   -0.33180  -0.32071  -0.31798  -0.25804
 Alpha virt. eigenvalues --   -0.07033  -0.01382   0.00524   0.02564   0.03651
 Alpha virt. eigenvalues --    0.05300   0.05740   0.06085   0.06789   0.06890
 Alpha virt. eigenvalues --    0.07111   0.07285   0.07859   0.08081   0.08234

 Mulliken charges:
               1
     1  C    0.457797
     2  C   -0.055437
     3  C   -0.011683
     4  C    0.308307
     5  C    0.418748
     6  C   -0.198702
     7  C   -0.004653
     8  C    0.386540
     9  C    0.221188
    10  C   -0.369343
    11  C    0.273982
    12  C    0.182454
    13  C   -0.542648
    14  C   -0.749477
    15  H    0.186844
    16  H    0.188032
    17  H    0.195238
    18  N    0.017711
    19  N   -0.087761
    20  O   -0.266674
    21  O   -0.269103
    22  O   -0.283414
    23  O   -0.263032
    24  C   -0.249520
    25  H    0.199376
    26  H    0.184688
    27  H    0.199891
    28  C   -0.282054
    29  H    0.192690
    30  H    0.192896
    31  H    0.200177
    32  C   -0.195665
    33  C   -0.228815
    34  S   -0.845718
    35  C   -0.224637
    36  H    0.202738
    37  C    0.737816
    38  O   -0.120727
    39  C    0.823683
    40  C   -0.301223
    41  C    0.051447
    42  S   -0.251531
    43  H    0.182614
    44  H    0.162188
    45  H    0.169756
    46  C   -0.601397
    47  O   -0.105244
    48  C   -0.368249
    49  H    0.157567
    50  C   -0.310843
    51  H    0.188592
    52  H    0.160216
    53  H    0.187455
    54  H    0.156920
 Sum of Mulliken charges =  -0.00000

 Dipole moment (field-independent basis, Debye):
    X=              3.6637    Y=             -0.5479    Z=             -0.4583  Tot=              3.7326
 Quadrupole moment (field-independent basis, Debye-Ang):
   XX=           -214.0689   YY=           -202.6831   ZZ=           -224.3184
   XY=             -4.9178   XZ=             -6.4430   YZ=              4.1244

 Normal termination of Gaussian 16 at Fri Nov 27 01:15:26 2020.
