 Gaussian 16, Revision C.01,
 Gaussian 16:  ES64L-G16RevC.01  3-Jul-2019

 --------------------------------------
 # opt=modredundant wb97xd/6-311+g(d,p)
 --------------------------------------

 -----------
 NDI_-85.pdb
 -----------
 Symbolic Z-matrix:
 Charge =  0 Multiplicity = 1

 SCF Done:  E(RwB97XD) =  -2358.76492322     A.U. after   19 cycles
 SCF Done:  E(RwB97XD) =  -2358.77252967     A.U. after   16 cycles
 SCF Done:  E(RwB97XD) =  -2358.77321836     A.U. after   15 cycles
 SCF Done:  E(RwB97XD) =  -2358.77329412     A.U. after   15 cycles
 SCF Done:  E(RwB97XD) =  -2358.77338109     A.U. after   14 cycles
 SCF Done:  E(RwB97XD) =  -2358.77338952     A.U. after   13 cycles
 SCF Done:  E(RwB97XD) =  -2358.77339666     A.U. after   12 cycles
 SCF Done:  E(RwB97XD) =  -2358.77339758     A.U. after   11 cycles
 SCF Done:  E(RwB97XD) =  -2358.77339808     A.U. after   10 cycles
 SCF Done:  E(RwB97XD) =  -2358.77339833     A.U. after    9 cycles
 SCF Done:  E(RwB97XD) =  -2358.77339855     A.U. after   10 cycles
 SCF Done:  E(RwB97XD) =  -2358.77339899     A.U. after   10 cycles
 SCF Done:  E(RwB97XD) =  -2358.77339920     A.U. after   10 cycles
 SCF Done:  E(RwB97XD) =  -2358.77339942     A.U. after    9 cycles
 SCF Done:  E(RwB97XD) =  -2358.77339963     A.U. after   10 cycles
 SCF Done:  E(RwB97XD) =  -2358.77339972     A.U. after    9 cycles
 SCF Done:  E(RwB97XD) =  -2358.77339977     A.U. after    8 cycles
 Optimization completed.
    -- Stationary point found.

                         Standard orientation:
 ---------------------------------------------------------------------
 Center     Atomic      Atomic             Coordinates (Angstroms)
 Number     Number       Type             X           Y           Z
 ---------------------------------------------------------------------
      1          6           0        3.193774   -2.836673    0.413404
      2          6           0        2.583500   -1.486995    0.282457
      3          6           0        3.390942   -0.368778   -0.004619
      4          6           0        4.783936   -0.512389   -0.173434
      5          6           0        5.421684   -1.852157   -0.050744
      6          6           0        1.233319   -1.332328    0.447951
      7          6           0        2.790350    0.902320   -0.124191
      8          6           0        1.388316    1.047293    0.044901
      9          6           0        0.611336   -0.064382    0.340969
     10          6           0        0.785818    2.406136   -0.121055
     11          6           0        3.036952    3.371708   -0.550740
     12          6           0        3.617430    2.011115   -0.412688
     13          6           0        4.974429    1.851815   -0.572626
     14          6           0        5.564142    0.583908   -0.453346
     15          1           0        6.631668    0.451765   -0.579332
     16          1           0        5.575978    2.725161   -0.792699
     17          1           0        0.624984   -2.200062    0.673981
     18          7           0        1.658053    3.467960   -0.395042
     19          7           0        4.574464   -2.925956    0.234902
     20          8           0        2.541531   -3.824152    0.662987
     21          8           0        6.613250   -2.006734   -0.190620
     22          8           0        3.722878    4.340781   -0.787811
     23          8           0       -0.397536    2.627234   -0.034660
     24          6           0        1.030685    4.781155   -0.542677
     25          1           0        0.318581    4.759453   -1.367706
     26          1           0        0.493962    5.037582    0.370607
     27          1           0        1.815428    5.505720   -0.737970
     28          6           0        5.156020   -4.261576    0.365128
     29          1           0        4.952917   -4.656035    1.360832
     30          1           0        4.709943   -4.930351   -0.371076
     31          1           0        6.226302   -4.178399    0.201889
     32          6           0       -0.850678   -0.028080    0.565738
     33          6           0       -1.499529    0.249318    1.729045
     34         16           0       -1.937583   -0.472433   -0.694458
     35          6           0       -2.909214    0.127339    1.594588
     36          1           0       -0.988168    0.549610    2.632498
     37          6           0       -3.323165   -0.256093    0.339657
     38          8           0       -3.823899    0.340711    2.570399
     39          6           0       -4.681456   -0.457504   -0.121267
     40          6           0       -3.363426    0.888244    3.787493
     41          6           0       -5.087672   -0.868723   -1.371530
     42         16           0       -6.074366   -0.182066    0.887102
     43          1           0       -4.247186    1.042317    4.404270
     44          1           0       -2.682738    0.199575    4.300468
     45          1           0       -2.861452    1.848078    3.623936
     46          6           0       -6.499493   -0.960366   -1.520441
     47          8           0       -4.160938   -1.143128   -2.321742
     48          6           0       -7.149883   -0.616078   -0.374716
     49          1           0       -7.005511   -1.265073   -2.425223
     50          6           0       -4.625984   -1.542778   -3.592921
     51          1           0       -8.215521   -0.598112   -0.203982
     52          1           0       -5.242872   -0.762751   -4.052683
     53          1           0       -3.739104   -1.706196   -4.202806
     54          1           0       -5.198732   -2.474723   -3.530771
 ---------------------------------------------------------------------

 The electronic state is 1-A.
 Alpha  occ. eigenvalues --  -89.04374 -89.04005 -19.28435 -19.28416 -19.25284
 Alpha  occ. eigenvalues --  -19.25216 -19.24972 -19.24901 -14.50824 -14.50530
 Alpha  occ. eigenvalues --  -10.43085 -10.42846 -10.42782 -10.42749 -10.35225
 Alpha  occ. eigenvalues --  -10.34787 -10.34755 -10.34726 -10.34626 -10.34531
 Alpha  occ. eigenvalues --  -10.34186 -10.34132 -10.34128 -10.34106 -10.34103
 Alpha  occ. eigenvalues --  -10.33238 -10.33150 -10.33140 -10.32651 -10.32403
 Alpha  occ. eigenvalues --  -10.32158 -10.31919 -10.31760 -10.31084 -10.29316
 Alpha  occ. eigenvalues --  -10.29076  -8.08384  -8.08028  -6.03242  -6.02871
 Alpha  occ. eigenvalues --   -6.02842  -6.02475  -6.02446  -6.02117  -1.19742
 Alpha  occ. eigenvalues --   -1.19570  -1.18158  -1.18076  -1.17838  -1.17637
 Alpha  occ. eigenvalues --   -1.07006  -1.06642  -1.03577  -1.00154  -0.98583
 Alpha  occ. eigenvalues --   -0.97204  -0.95069  -0.90542  -0.89006  -0.87022
 Alpha  occ. eigenvalues --   -0.85638  -0.85461  -0.84161  -0.82744  -0.82168
 Alpha  occ. eigenvalues --   -0.81400  -0.79282  -0.78151  -0.77108  -0.75853
 Alpha  occ. eigenvalues --   -0.75368  -0.74448  -0.70151  -0.68608  -0.67729
 Alpha  occ. eigenvalues --   -0.66886  -0.65558  -0.64744  -0.64480  -0.63019
 Alpha  occ. eigenvalues --   -0.62839  -0.60957  -0.59980  -0.59393  -0.59117
 Alpha  occ. eigenvalues --   -0.57926  -0.57810  -0.57476  -0.56964  -0.56632
 Alpha  occ. eigenvalues --   -0.56398  -0.56145  -0.55657  -0.55400  -0.54224
 Alpha  occ. eigenvalues --   -0.54027  -0.53709  -0.53504  -0.53077  -0.52454
 Alpha  occ. eigenvalues --   -0.51735  -0.51341  -0.51269  -0.50445  -0.50083
 Alpha  occ. eigenvalues --   -0.49680  -0.49558  -0.49149  -0.48968  -0.48477
 Alpha  occ. eigenvalues --   -0.48432  -0.46898  -0.46803  -0.45905  -0.44961
 Alpha  occ. eigenvalues --   -0.44119  -0.43507  -0.41998  -0.41297  -0.41004
 Alpha  occ. eigenvalues --   -0.40709  -0.40556  -0.39830  -0.38702  -0.37638
 Alpha  occ. eigenvalues --   -0.37585  -0.37197  -0.37007  -0.36031  -0.34875
 Alpha  occ. eigenvalues --   -0.33589  -0.31387  -0.31105  -0.25287
 Alpha virt. eigenvalues --   -0.07329  -0.00064   0.00657   0.02329   0.02506
 Alpha virt. eigenvalues --    0.04959   0.06003   0.06196   0.06644   0.06888
 Alpha virt. eigenvalues --    0.07376   0.07415   0.07579   0.07725   0.08010

 Mulliken charges:
               1
     1  C    0.470507
     2  C    0.041767
     3  C    0.199098
     4  C    0.176700
     5  C    0.353395
     6  C   -0.699857
     7  C    0.147888
     8  C    0.022512
     9  C    0.446507
    10  C   -0.347056
    11  C    0.256911
    12  C    0.194886
    13  C   -0.579785
    14  C   -0.727384
    15  H    0.188833
    16  H    0.189456
    17  H    0.199506
    18  N   -0.111098
    19  N   -0.097629
    20  O   -0.256527
    21  O   -0.267463
    22  O   -0.267654
    23  O   -0.087767
    24  C   -0.301689
    25  H    0.198209
    26  H    0.193706
    27  H    0.202091
    28  C   -0.285440
    29  H    0.194255
    30  H    0.194158
    31  H    0.200245
    32  C    0.185515
    33  C   -0.485357
    34  S   -0.142295
    35  C   -0.090370
    36  H    0.141513
    37  C    0.227129
    38  O   -0.121973
    39  C    0.831334
    40  C   -0.295842
    41  C    0.062935
    42  S   -0.307405
    43  H    0.181022
    44  H    0.153757
    45  H    0.170479
    46  C   -0.561471
    47  O   -0.125654
    48  C   -0.392106
    49  H    0.154002
    50  C   -0.300603
    51  H    0.183587
    52  H    0.157989
    53  H    0.177940
    54  H    0.154596
 Sum of Mulliken charges =  -0.00000

 Dipole moment (field-independent basis, Debye):
    X=             -0.9429    Y=              0.2180    Z=             -0.0230  Tot=              0.9680
 Quadrupole moment (field-independent basis, Debye-Ang):
   XX=           -218.2732   YY=           -228.3840   ZZ=           -197.8845
   XY=             -0.9766   XZ=              9.4298   YZ=             10.4235

 Normal termination of Gaussian 16 at Thu Nov 26 18:55:36 2020.
