 Gaussian 16, Revision C.01,
 Gaussian 16:  ES64L-G16RevC.01  3-Jul-2019

 --------------------------------------
 # opt=modredundant wb97xd/6-311+g(d,p)
 --------------------------------------

 -----------
 NDI_120.pdb
 -----------
 Symbolic Z-matrix:
 Charge =  0 Multiplicity = 1

 SCF Done:  E(RwB97XD) =  -2358.76475455     A.U. after   21 cycles
 SCF Done:  E(RwB97XD) =  -2358.77207485     A.U. after   18 cycles
 SCF Done:  E(RwB97XD) =  -2358.77236586     A.U. after   16 cycles
 SCF Done:  E(RwB97XD) =  -2358.77357194     A.U. after   16 cycles
 SCF Done:  E(RwB97XD) =  -2358.77367110     A.U. after   13 cycles
 SCF Done:  E(RwB97XD) =  -2358.77371752     A.U. after   14 cycles
 SCF Done:  E(RwB97XD) =  -2358.77374961     A.U. after   13 cycles
 SCF Done:  E(RwB97XD) =  -2358.77378289     A.U. after   14 cycles
 SCF Done:  E(RwB97XD) =  -2358.77380119     A.U. after   13 cycles
 SCF Done:  E(RwB97XD) =  -2358.77381945     A.U. after   13 cycles
 SCF Done:  E(RwB97XD) =  -2358.77386368     A.U. after   13 cycles
 SCF Done:  E(RwB97XD) =  -2358.77387023     A.U. after   12 cycles
 SCF Done:  E(RwB97XD) =  -2358.77387060     A.U. after   11 cycles
 SCF Done:  E(RwB97XD) =  -2358.77387091     A.U. after   11 cycles
 SCF Done:  E(RwB97XD) =  -2358.77387066     A.U. after   13 cycles
 SCF Done:  E(RwB97XD) =  -2358.77387104     A.U. after   13 cycles
 SCF Done:  E(RwB97XD) =  -2358.77387106     A.U. after   10 cycles
 SCF Done:  E(RwB97XD) =  -2358.77387110     A.U. after    8 cycles
 SCF Done:  E(RwB97XD) =  -2358.77387112     A.U. after    8 cycles
 SCF Done:  E(RwB97XD) =  -2358.77387114     A.U. after    8 cycles
 Optimization completed.
    -- Stationary point found.

                         Standard orientation:
 ---------------------------------------------------------------------
 Center     Atomic      Atomic             Coordinates (Angstroms)
 Number     Number       Type             X           Y           Z
 ---------------------------------------------------------------------
      1          6           0        3.501979   -2.701997    0.438930
      2          6           0        2.748475   -1.456883    0.136107
      3          6           0        3.415909   -0.215731    0.106672
      4          6           0        4.796432   -0.132291    0.379626
      5          6           0        5.573905   -1.362001    0.694713
      6          6           0        1.398842   -1.514945   -0.084551
      7          6           0        2.684489    0.949925   -0.201799
      8          6           0        1.296635    0.866891   -0.482703
      9          6           0        0.641603   -0.353772   -0.380324
     10          6           0        0.607560    2.093214   -0.985326
     11          6           0        2.628592    3.447618   -0.502864
     12          6           0        3.362493    2.189445   -0.207302
     13          6           0        4.708386    2.252641    0.071283
     14          6           0        5.433182    1.086366    0.361895
     15          1           0        6.493635    1.128939    0.577709
     16          1           0        5.194119    3.220735    0.064754
     17          1           0        0.892493   -2.470238   -0.013872
     18          7           0        1.284995    3.310705   -0.835030
     19          7           0        4.865306   -2.567283    0.701416
     20          8           0        2.976741   -3.791749    0.461328
     21          8           0        6.759464   -1.325127    0.931970
     22          8           0        3.168275    4.531052   -0.470235
     23          8           0       -0.475206    2.075779   -1.518098
     24          6           0        0.549308    4.512038   -1.227550
     25          1           0        0.514357    4.600491   -2.315116
     26          1           0       -0.468913    4.441644   -0.850740
     27          1           0        1.060967    5.373241   -0.807564
     28          6           0        5.588025   -3.802720    1.001968
     29          1           0        5.141810   -4.286907    1.870574
     30          1           0        5.523209   -4.483830    0.153171
     31          1           0        6.623842   -3.545530    1.201601
     32          6           0       -0.814449   -0.535821   -0.514228
     33          6           0       -1.461185   -1.305926   -1.435527
     34         16           0       -1.904203    0.151684    0.630324
     35          6           0       -2.866817   -1.308508   -1.237624
     36          1           0       -0.948939   -1.819442   -2.237114
     37          6           0       -3.281798   -0.568638   -0.152015
     38          8           0       -3.779401   -1.960045   -1.996170
     39          6           0       -4.635494   -0.392224    0.330004
     40          6           0       -3.305718   -2.678907   -3.115253
     41          6           0       -5.044552    0.341059    1.422543
     42         16           0       -6.019319   -1.113904   -0.443602
     43          1           0       -4.184066   -3.110739   -3.591643
     44          1           0       -2.797261   -2.016622   -3.824471
     45          1           0       -2.627126   -3.483780   -2.811509
     46          6           0       -6.450733    0.326331    1.635845
     47          8           0       -4.125372    0.988367    2.178568
     48          6           0       -7.093986   -0.422739    0.697983
     49          1           0       -6.957928    0.841464    2.438886
     50          6           0       -4.595262    1.753067    3.268132
     51          1           0       -8.154716   -0.606066    0.618215
     52          1           0       -5.111154    1.123282    4.001274
     53          1           0       -3.714401    2.194853    3.730815
     54          1           0       -5.266618    2.550897    2.932050
 ---------------------------------------------------------------------

 The electronic state is 1-A.
 Alpha  occ. eigenvalues --  -89.04493 -89.04229 -19.28689 -19.28644 -19.25198
 Alpha  occ. eigenvalues --  -19.25155 -19.24800 -19.24786 -14.50748 -14.50316
 Alpha  occ. eigenvalues --  -10.42995 -10.42782 -10.42611 -10.42534 -10.35127
 Alpha  occ. eigenvalues --  -10.35020 -10.34901 -10.34548 -10.34446 -10.34343
 Alpha  occ. eigenvalues --  -10.34336 -10.34263 -10.34037 -10.33987 -10.33948
 Alpha  occ. eigenvalues --  -10.33091 -10.33077 -10.32997 -10.32839 -10.32349
 Alpha  occ. eigenvalues --  -10.32286 -10.32075 -10.31989 -10.31326 -10.29662
 Alpha  occ. eigenvalues --  -10.29289  -8.08513  -8.08252  -6.03370  -6.03095
 Alpha  occ. eigenvalues --   -6.02972  -6.02698  -6.02572  -6.02341  -1.19656
 Alpha  occ. eigenvalues --   -1.19393  -1.18406  -1.18324  -1.17754  -1.17453
 Alpha  occ. eigenvalues --   -1.06910  -1.06508  -1.03443  -1.00328  -0.98722
 Alpha  occ. eigenvalues --   -0.97207  -0.94933  -0.90556  -0.88875  -0.87159
 Alpha  occ. eigenvalues --   -0.85802  -0.85384  -0.84400  -0.82678  -0.82382
 Alpha  occ. eigenvalues --   -0.81248  -0.79524  -0.78234  -0.76993  -0.75723
 Alpha  occ. eigenvalues --   -0.75235  -0.74436  -0.70110  -0.68761  -0.67814
 Alpha  occ. eigenvalues --   -0.66801  -0.65755  -0.64729  -0.64383  -0.63280
 Alpha  occ. eigenvalues --   -0.62907  -0.60851  -0.59870  -0.59262  -0.59017
 Alpha  occ. eigenvalues --   -0.58048  -0.57802  -0.57403  -0.57144  -0.56800
 Alpha  occ. eigenvalues --   -0.56365  -0.56190  -0.55563  -0.55396  -0.54200
 Alpha  occ. eigenvalues --   -0.53990  -0.53807  -0.53360  -0.53183  -0.52510
 Alpha  occ. eigenvalues --   -0.51678  -0.51253  -0.51026  -0.50384  -0.50164
 Alpha  occ. eigenvalues --   -0.49871  -0.49596  -0.49349  -0.48931  -0.48462
 Alpha  occ. eigenvalues --   -0.48275  -0.47223  -0.46661  -0.45839  -0.45216
 Alpha  occ. eigenvalues --   -0.44266  -0.43737  -0.42125  -0.41419  -0.41145
 Alpha  occ. eigenvalues --   -0.41018  -0.40401  -0.39770  -0.38651  -0.37602
 Alpha  occ. eigenvalues --   -0.37475  -0.37000  -0.36858  -0.36114  -0.35009
 Alpha  occ. eigenvalues --   -0.33371  -0.31603  -0.31255  -0.25429
 Alpha virt. eigenvalues --   -0.07225  -0.00108   0.00496   0.02227   0.02973
 Alpha virt. eigenvalues --    0.05087   0.05870   0.06175   0.06606   0.06867
 Alpha virt. eigenvalues --    0.07176   0.07489   0.07539   0.07728   0.07930

 Mulliken charges:
               1
     1  C    0.479993
     2  C   -0.051314
     3  C    0.120079
     4  C    0.166858
     5  C    0.370624
     6  C   -0.556634
     7  C    0.106356
     8  C    0.014227
     9  C    0.250605
    10  C   -0.403049
    11  C    0.327933
    12  C    0.101068
    13  C   -0.483411
    14  C   -0.706261
    15  H    0.188538
    16  H    0.189067
    17  H    0.194337
    18  N    0.014132
    19  N   -0.094471
    20  O   -0.260633
    21  O   -0.269564
    22  O   -0.274952
    23  O   -0.155813
    24  C   -0.267084
    25  H    0.201807
    26  H    0.195307
    27  H    0.197355
    28  C   -0.283257
    29  H    0.193932
    30  H    0.193839
    31  H    0.200975
    32  C    0.444107
    33  C   -0.505975
    34  S   -0.421115
    35  C   -0.103132
    36  H    0.151795
    37  C    0.345602
    38  O   -0.110122
    39  C    0.889998
    40  C   -0.290194
    41  C    0.051463
    42  S   -0.296314
    43  H    0.182200
    44  H    0.165119
    45  H    0.160385
    46  C   -0.598834
    47  O   -0.121671
    48  C   -0.371114
    49  H    0.154598
    50  C   -0.303706
    51  H    0.184569
    52  H    0.155501
    53  H    0.178299
    54  H    0.157951
 Sum of Mulliken charges =  -0.00000

 Dipole moment (field-independent basis, Debye):
    X=             -1.6018    Y=              0.0294    Z=              0.2860  Tot=              1.6274
 Quadrupole moment (field-independent basis, Debye-Ang):
   XX=           -215.5012   YY=           -223.7974   ZZ=           -204.8066
   XY=             -7.5312   XZ=             -9.7675   YZ=             13.5449

 Normal termination of Gaussian 16 at Fri Nov 27 06:21:39 2020.
