 Gaussian 16, Revision C.01,
 Gaussian 16:  ES64L-G16RevC.01  3-Jul-2019

 --------------------------------------
 # opt=modredundant wb97xd/6-311+g(d,p)
 --------------------------------------

 ------------
 NDI_-125.pdb
 ------------
 Symbolic Z-matrix:
 Charge =  0 Multiplicity = 1

 SCF Done:  E(RwB97XD) =  -2358.76118384     A.U. after   20 cycles
 SCF Done:  E(RwB97XD) =  -2358.76834123     A.U. after   18 cycles
 SCF Done:  E(RwB97XD) =  -2358.77166992     A.U. after   16 cycles
 SCF Done:  E(RwB97XD) =  -2358.77273202     A.U. after   16 cycles
 SCF Done:  E(RwB97XD) =  -2358.77312382     A.U. after   18 cycles
 SCF Done:  E(RwB97XD) =  -2358.77347855     A.U. after   15 cycles
 SCF Done:  E(RwB97XD) =  -2358.77364790     A.U. after   15 cycles
 SCF Done:  E(RwB97XD) =  -2358.77369064     A.U. after   14 cycles
 SCF Done:  E(RwB97XD) =  -2358.77374084     A.U. after   13 cycles
 SCF Done:  E(RwB97XD) =  -2358.77375984     A.U. after   14 cycles
 SCF Done:  E(RwB97XD) =  -2358.77386541     A.U. after   11 cycles
 SCF Done:  E(RwB97XD) =  -2358.77386681     A.U. after   13 cycles
 SCF Done:  E(RwB97XD) =  -2358.77386485     A.U. after   13 cycles
 SCF Done:  E(RwB97XD) =  -2358.77386813     A.U. after   13 cycles
 SCF Done:  E(RwB97XD) =  -2358.77386869     A.U. after   10 cycles
 SCF Done:  E(RwB97XD) =  -2358.77386875     A.U. after   12 cycles
 SCF Done:  E(RwB97XD) =  -2358.77386907     A.U. after   11 cycles
 SCF Done:  E(RwB97XD) =  -2358.77386931     A.U. after   10 cycles
 SCF Done:  E(RwB97XD) =  -2358.77386939     A.U. after    9 cycles
 SCF Done:  E(RwB97XD) =  -2358.77386942     A.U. after    8 cycles
 Optimization completed.
    -- Stationary point found.

                         Standard orientation:
 ---------------------------------------------------------------------
 Center     Atomic      Atomic             Coordinates (Angstroms)
 Number     Number       Type             X           Y           Z
 ---------------------------------------------------------------------
      1          6           0       -3.513868   -2.689578    0.457796
      2          6           0       -2.754587   -1.451166    0.142514
      3          6           0       -3.414891   -0.206111    0.108690
      4          6           0       -4.792887   -0.112131    0.389582
      5          6           0       -5.575874   -1.334881    0.717483
      6          6           0       -1.406276   -1.518590   -0.081487
      7          6           0       -2.677932    0.952379   -0.212889
      8          6           0       -1.292271    0.858763   -0.501506
      9          6           0       -0.642105   -0.364146   -0.388236
     10          6           0       -0.606031    2.073023   -1.035194
     11          6           0       -2.608067    3.447029   -0.533025
     12          6           0       -3.348083    2.196105   -0.222823
     13          6           0       -4.691676    2.269976    0.064788
     14          6           0       -5.422069    1.110583    0.367967
     15          1           0       -6.480786    1.161449    0.590358
     16          1           0       -5.171070    3.241205    0.055172
     17          1           0       -0.905746   -2.476226   -0.001729
     18          7           0       -1.270243    3.297544   -0.882642
     19          7           0       -4.874806   -2.544727    0.726821
     20          8           0       -2.995206   -3.782487    0.484464
     21          8           0       -6.759607   -1.289301    0.962226
     22          8           0       -3.138504    4.535067   -0.499614
     23          8           0        0.462017    2.039812   -1.596360
     24          6           0       -0.533712    4.489730   -1.300377
     25          1           0        0.493431    4.410758   -0.950551
     26          1           0       -0.527158    4.573470   -2.388892
     27          1           0       -1.025513    5.357842   -0.870851
     28          6           0       -5.603488   -3.773667    1.039292
     29          1           0       -5.543874   -4.462163    0.196125
     30          1           0       -5.158307   -4.252997    1.911158
     31          1           0       -6.637488   -3.509187    1.238836
     32          6           0        0.812327   -0.555221   -0.509644
     33          6           0        1.454424   -1.407108   -1.361261
     34         16           0        1.907487    0.210131    0.579621
     35          6           0        2.858660   -1.408208   -1.159714
     36          1           0        0.938745   -1.981275   -2.118356
     37          6           0        3.278521   -0.586734   -0.135691
     38          8           0        3.766786   -2.127230   -1.860259
     39          6           0        4.632627   -0.385896    0.334844
     40          6           0        3.286936   -2.943661   -2.907579
     41          6           0        5.046314    0.427936    1.367169
     42         16           0        6.011101   -1.180196   -0.374667
     43          1           0        4.161850   -3.423359   -3.342659
     44          1           0        2.603566   -3.712369   -2.529910
     45          1           0        2.781806   -2.346724   -3.674823
     46          6           0        6.451701    0.416441    1.585444
     47          8           0        4.131915    1.141734    2.066539
     48          6           0        7.089632   -0.411084    0.712073
     49          1           0        6.962087    0.988552    2.346783
     50          6           0        4.607111    1.990373    3.089812
     51          1           0        8.148654   -0.610699    0.650757
     52          1           0        5.286093    2.751371    2.689813
     53          1           0        3.729556    2.476787    3.512225
     54          1           0        5.116252    1.419206    3.873881
 ---------------------------------------------------------------------

 The electronic state is 1-A.
 Alpha  occ. eigenvalues --  -89.04544 -89.04295 -19.28758 -19.28705 -19.25174
 Alpha  occ. eigenvalues --  -19.25136 -19.24757 -19.24742 -14.50725 -14.50270
 Alpha  occ. eigenvalues --  -10.42968 -10.42762 -10.42569 -10.42487 -10.35122
 Alpha  occ. eigenvalues --  -10.35090 -10.34983 -10.34501 -10.34393 -10.34366
 Alpha  occ. eigenvalues --  -10.34309 -10.34279 -10.33996 -10.33953 -10.33895
 Alpha  occ. eigenvalues --  -10.33073 -10.33025 -10.32951 -10.32891 -10.32401
 Alpha  occ. eigenvalues --  -10.32332 -10.32057 -10.32055 -10.31400 -10.29752
 Alpha  occ. eigenvalues --  -10.29351  -8.08566  -8.08317  -6.03423  -6.03160
 Alpha  occ. eigenvalues --   -6.03024  -6.02764  -6.02625  -6.02406  -1.19632
 Alpha  occ. eigenvalues --   -1.19348  -1.18473  -1.18391  -1.17730  -1.17406
 Alpha  occ. eigenvalues --   -1.06884  -1.06470  -1.03404  -1.00384  -0.98766
 Alpha  occ. eigenvalues --   -0.97204  -0.94894  -0.90563  -0.88840  -0.87198
 Alpha  occ. eigenvalues --   -0.85853  -0.85358  -0.84470  -0.82681  -0.82413
 Alpha  occ. eigenvalues --   -0.81230  -0.79579  -0.78261  -0.76965  -0.75689
 Alpha  occ. eigenvalues --   -0.75210  -0.74427  -0.70112  -0.68802  -0.67839
 Alpha  occ. eigenvalues --   -0.66775  -0.65782  -0.64792  -0.64340  -0.63348
 Alpha  occ. eigenvalues --   -0.62906  -0.60822  -0.59842  -0.59231  -0.58992
 Alpha  occ. eigenvalues --   -0.58098  -0.57780  -0.57385  -0.57198  -0.56852
 Alpha  occ. eigenvalues --   -0.56404  -0.56147  -0.55533  -0.55388  -0.54204
 Alpha  occ. eigenvalues --   -0.53975  -0.53817  -0.53352  -0.53198  -0.52511
 Alpha  occ. eigenvalues --   -0.51660  -0.51233  -0.50981  -0.50378  -0.50183
 Alpha  occ. eigenvalues --   -0.49936  -0.49592  -0.49384  -0.48934  -0.48451
 Alpha  occ. eigenvalues --   -0.48241  -0.47295  -0.46655  -0.45841  -0.45278
 Alpha  occ. eigenvalues --   -0.44306  -0.43801  -0.42171  -0.41479  -0.41182
 Alpha  occ. eigenvalues --   -0.41077  -0.40354  -0.39746  -0.38626  -0.37597
 Alpha  occ. eigenvalues --   -0.37450  -0.36994  -0.36822  -0.36172  -0.34982
 Alpha  occ. eigenvalues --   -0.33320  -0.31654  -0.31297  -0.25465
 Alpha virt. eigenvalues --   -0.07207  -0.00167   0.00476   0.02237   0.03064
 Alpha virt. eigenvalues --    0.05105   0.05845   0.06144   0.06616   0.06847
 Alpha virt. eigenvalues --    0.07155   0.07515   0.07544   0.07734   0.07908

 Mulliken charges:
               1
     1  C    0.478302
     2  C   -0.080126
     3  C    0.106238
     4  C    0.173003
     5  C    0.369228
     6  C   -0.527061
     7  C    0.099723
     8  C    0.047611
     9  C    0.277448
    10  C   -0.433067
    11  C    0.332767
    12  C    0.085681
    13  C   -0.481738
    14  C   -0.699374
    15  H    0.188394
    16  H    0.188888
    17  H    0.193716
    18  N    0.029047
    19  N   -0.094602
    20  O   -0.261606
    21  O   -0.269334
    22  O   -0.275617
    23  O   -0.165536
    24  C   -0.266250
    25  H    0.195222
    26  H    0.201853
    27  H    0.197369
    28  C   -0.282693
    29  H    0.193517
    30  H    0.194015
    31  H    0.200960
    32  C    0.449019
    33  C   -0.555434
    34  S   -0.471661
    35  C   -0.082840
    36  H    0.154676
    37  C    0.390434
    38  O   -0.110403
    39  C    0.902275
    40  C   -0.290682
    41  C    0.052400
    42  S   -0.292922
    43  H    0.182493
    44  H    0.161462
    45  H    0.164333
    46  C   -0.609289
    47  O   -0.120866
    48  C   -0.366427
    49  H    0.154791
    50  C   -0.304768
    51  H    0.184907
    52  H    0.158284
    53  H    0.178675
    54  H    0.155564
 Sum of Mulliken charges =  -0.00000

 Dipole moment (field-independent basis, Debye):
    X=              1.7770    Y=             -0.0266    Z=              0.3441  Tot=              1.8102
 Quadrupole moment (field-independent basis, Debye-Ang):
   XX=           -214.9486   YY=           -221.7280   ZZ=           -207.1950
   XY=              7.9723   XZ=              9.7981   YZ=             14.1952

 Normal termination of Gaussian 16 at Fri Nov 27 00:40:53 2020.
