 Gaussian 16, Revision C.01,
 Gaussian 16:  ES64L-G16RevC.01  3-Jul-2019

 --------------------------------------
 # opt=modredundant wb97xd/6-311+g(d,p)
 --------------------------------------

 -----------
 NDI_115.pdb
 -----------
 Symbolic Z-matrix:
 Charge =  0 Multiplicity = 1

 SCF Done:  E(RwB97XD) =  -2358.76538608     A.U. after   20 cycles
 SCF Done:  E(RwB97XD) =  -2358.77260975     A.U. after   18 cycles
 SCF Done:  E(RwB97XD) =  -2358.77338182     A.U. after   15 cycles
 SCF Done:  E(RwB97XD) =  -2358.77323344     A.U. after   15 cycles
 SCF Done:  E(RwB97XD) =  -2358.77365713     A.U. after   14 cycles
 SCF Done:  E(RwB97XD) =  -2358.77368847     A.U. after   14 cycles
 SCF Done:  E(RwB97XD) =  -2358.77371724     A.U. after   13 cycles
 SCF Done:  E(RwB97XD) =  -2358.77373935     A.U. after   13 cycles
 SCF Done:  E(RwB97XD) =  -2358.77376079     A.U. after   13 cycles
 SCF Done:  E(RwB97XD) =  -2358.77377803     A.U. after   14 cycles
 SCF Done:  E(RwB97XD) =  -2358.77379602     A.U. after   13 cycles
 SCF Done:  E(RwB97XD) =  -2358.77386065     A.U. after   16 cycles
 SCF Done:  E(RwB97XD) =  -2358.77381097     A.U. after   13 cycles
 SCF Done:  E(RwB97XD) =  -2358.77386747     A.U. after   16 cycles
 SCF Done:  E(RwB97XD) =  -2358.77386867     A.U. after   11 cycles
 SCF Done:  E(RwB97XD) =  -2358.77381338     A.U. after   10 cycles
 SCF Done:  E(RwB97XD) =  -2358.77381355     A.U. after   11 cycles
 Optimization completed.
    -- Stationary point found.

                         Standard orientation:
 ---------------------------------------------------------------------
 Center     Atomic      Atomic             Coordinates (Angstroms)
 Number     Number       Type             X           Y           Z
 ---------------------------------------------------------------------
      1          6           0        3.480190   -2.721747    0.392370
      2          6           0        2.737114   -1.464584    0.114202
      3          6           0        3.415548   -0.229430    0.102904
      4          6           0        4.798590   -0.164080    0.369337
      5          6           0        5.566172   -1.406355    0.658576
      6          6           0        1.386434   -1.506737   -0.105477
      7          6           0        2.693637    0.948668   -0.180331
      8          6           0        1.303417    0.883816   -0.454291
      9          6           0        0.639751   -0.333723   -0.377980
     10          6           0        0.615208    2.130022   -0.907781
     11          6           0        2.662169    3.452345   -0.437975
     12          6           0        3.384066    2.181364   -0.168643
     13          6           0        4.732110    2.226427    0.102311
     14          6           0        5.447099    1.048237    0.368563
     15          1           0        6.509194    1.076793    0.578533
     16          1           0        5.227468    3.189614    0.108858
     17          1           0        0.871649   -2.458784   -0.054979
     18          7           0        1.314015    3.335430   -0.759973
     19          7           0        4.846231   -2.604634    0.649427
     20          8           0        2.944450   -3.806473    0.399806
     21          8           0        6.753436   -1.384458    0.889150
     22          8           0        3.215587    4.528228   -0.391614
     23          8           0       -0.487153    2.139899   -1.399069
     24          6           0        0.581440    4.549081   -1.119790
     25          1           0        0.446794    4.604006   -2.201391
     26          1           0       -0.399468    4.527221   -0.648393
     27          1           0        1.157150    5.403190   -0.775569
     28          6           0        5.558543   -3.851852    0.925203
     29          1           0        5.112114   -4.346332    1.787867
     30          1           0        5.482675   -4.517844    0.065402
     31          1           0        6.597851   -3.608140    1.123576
     32          6           0       -0.818076   -0.502546   -0.527375
     33          6           0       -1.468518   -1.172956   -1.519768
     34         16           0       -1.903053    0.083134    0.676326
     35          6           0       -2.875153   -1.182616   -1.323630
     36          1           0       -0.959478   -1.609948   -2.367371
     37          6           0       -3.286019   -0.545910   -0.173735
     38          8           0       -3.791336   -1.753377   -2.140939
     39          6           0       -4.639258   -0.402741    0.320748
     40          6           0       -3.324220   -2.340921   -3.336745
     41          6           0       -5.044146    0.227629    1.476980
     42         16           0       -6.027991   -1.031994   -0.521459
     43          1           0       -4.205534   -2.714830   -3.854869
     44          1           0       -2.817729   -1.602943   -3.968387
     45          1           0       -2.645757   -3.176103   -3.129950
     46          6           0       -6.451124    0.208266    1.684631
     47          8           0       -4.120340    0.789973    2.293372
     48          6           0       -7.099302   -0.440809    0.678157
     49          1           0       -6.955388    0.650201    2.531940
     50          6           0       -4.585893    1.453461    3.448970
     51          1           0       -8.161645   -0.603962    0.578658
     52          1           0       -5.110052    0.762802    4.118728
     53          1           0       -3.702150    1.841064    3.952922
     54          1           0       -5.248541    2.285994    3.188143
 ---------------------------------------------------------------------

 The electronic state is 1-A.
 Alpha  occ. eigenvalues --  -89.04435 -89.04163 -19.28617 -19.28580 -19.25223
 Alpha  occ. eigenvalues --  -19.25175 -19.24834 -19.24825 -14.50772 -14.50366
 Alpha  occ. eigenvalues --  -10.43021 -10.42803 -10.42639 -10.42598 -10.35140
 Alpha  occ. eigenvalues --  -10.34944 -10.34817 -10.34600 -10.34526 -10.34391
 Alpha  occ. eigenvalues --  -10.34287 -10.34215 -10.34079 -10.34021 -10.34002
 Alpha  occ. eigenvalues --  -10.33127 -10.33106 -10.33042 -10.32785 -10.32367
 Alpha  occ. eigenvalues --  -10.32170 -10.32082 -10.31919 -10.31253 -10.29571
 Alpha  occ. eigenvalues --  -10.29227  -8.08454  -8.08185  -6.03312  -6.03028
 Alpha  occ. eigenvalues --   -6.02913  -6.02632  -6.02512  -6.02274  -1.19681
 Alpha  occ. eigenvalues --   -1.19433  -1.18335  -1.18254  -1.17779  -1.17497
 Alpha  occ. eigenvalues --   -1.06938  -1.06540  -1.03482  -1.00271  -0.98679
 Alpha  occ. eigenvalues --   -0.97207  -0.94971  -0.90549  -0.88910  -0.87119
 Alpha  occ. eigenvalues --   -0.85749  -0.85406  -0.84328  -0.82682  -0.82343
 Alpha  occ. eigenvalues --   -0.81267  -0.79466  -0.78206  -0.77021  -0.75757
 Alpha  occ. eigenvalues --   -0.75264  -0.74445  -0.70111  -0.68720  -0.67788
 Alpha  occ. eigenvalues --   -0.66825  -0.65722  -0.64664  -0.64429  -0.63210
 Alpha  occ. eigenvalues --   -0.62905  -0.60881  -0.59898  -0.59289  -0.59042
 Alpha  occ. eigenvalues --   -0.57987  -0.57824  -0.57426  -0.57088  -0.56746
 Alpha  occ. eigenvalues --   -0.56338  -0.56219  -0.55593  -0.55397  -0.54199
 Alpha  occ. eigenvalues --   -0.53993  -0.53787  -0.53392  -0.53160  -0.52505
 Alpha  occ. eigenvalues --   -0.51695  -0.51275  -0.51094  -0.50387  -0.50125
 Alpha  occ. eigenvalues --   -0.49804  -0.49604  -0.49304  -0.48928  -0.48460
 Alpha  occ. eigenvalues --   -0.48317  -0.47147  -0.46668  -0.45838  -0.45149
 Alpha  occ. eigenvalues --   -0.44230  -0.43673  -0.42078  -0.41366  -0.41101
 Alpha  occ. eigenvalues --   -0.40952  -0.40444  -0.39783  -0.38654  -0.37611
 Alpha  occ. eigenvalues --   -0.37501  -0.37031  -0.36895  -0.36053  -0.35024
 Alpha  occ. eigenvalues --   -0.33426  -0.31545  -0.31207  -0.25388
 Alpha virt. eigenvalues --   -0.07251  -0.00069   0.00528   0.02221   0.02881
 Alpha virt. eigenvalues --    0.05066   0.05900   0.06204   0.06598   0.06883
 Alpha virt. eigenvalues --    0.07203   0.07463   0.07550   0.07724   0.07956

 Mulliken charges:
               1
     1  C    0.479907
     2  C   -0.014962
     3  C    0.139843
     4  C    0.160202
     5  C    0.374016
     6  C   -0.582987
     7  C    0.118254
     8  C   -0.022710
     9  C    0.224119
    10  C   -0.367441
    11  C    0.328842
    12  C    0.119799
    13  C   -0.502644
    14  C   -0.706088
    15  H    0.188641
    16  H    0.189195
    17  H    0.195018
    18  N   -0.009787
    19  N   -0.094386
    20  O   -0.259673
    21  O   -0.269420
    22  O   -0.273773
    23  O   -0.145400
    24  C   -0.269297
    25  H    0.200555
    26  H    0.195647
    27  H    0.199120
    28  C   -0.283883
    29  H    0.193977
    30  H    0.194033
    31  H    0.200950
    32  C    0.407939
    33  C   -0.442962
    34  S   -0.372960
    35  C   -0.118877
    36  H    0.148894
    37  C    0.303419
    38  O   -0.110294
    39  C    0.875632
    40  C   -0.290595
    41  C    0.051067
    42  S   -0.299289
    43  H    0.181886
    44  H    0.166324
    45  H    0.158909
    46  C   -0.586969
    47  O   -0.122667
    48  C   -0.376197
    49  H    0.154393
    50  C   -0.302453
    51  H    0.184231
    52  H    0.155299
    53  H    0.177931
    54  H    0.157672
 Sum of Mulliken charges =  -0.00000

 Dipole moment (field-independent basis, Debye):
    X=             -1.4169    Y=              0.0977    Z=              0.1982  Tot=              1.4341
 Quadrupole moment (field-independent basis, Debye-Ang):
   XX=           -216.0624   YY=           -226.1177   ZZ=           -202.0985
   XY=             -7.0054   XZ=             -9.7908   YZ=             12.1284

 Normal termination of Gaussian 16 at Fri Nov 27 02:12:07 2020.
