 Gaussian 16, Revision C.01,
 Gaussian 16:  ES64L-G16RevC.01  3-Jul-2019

 --------------------------------------
 # opt=modredundant wb97xd/6-311+g(d,p)
 --------------------------------------

 -----------
 NDI_165.pdb
 -----------
 Symbolic Z-matrix:
 Charge =  0 Multiplicity = 1

 SCF Done:  E(RwB97XD) =  -2358.72770691     A.U. after   20 cycles
 SCF Done:  E(RwB97XD) =  -2358.75349658     A.U. after   20 cycles
 SCF Done:  E(RwB97XD) =  -2358.76417718     A.U. after   18 cycles
 SCF Done:  E(RwB97XD) =  -2358.76700348     A.U. after   16 cycles
 SCF Done:  E(RwB97XD) =  -2358.76819871     A.U. after   17 cycles
 SCF Done:  E(RwB97XD) =  -2358.76824554     A.U. after   17 cycles
 SCF Done:  E(RwB97XD) =  -2358.76869103     A.U. after   13 cycles
 SCF Done:  E(RwB97XD) =  -2358.76880825     A.U. after   15 cycles
 SCF Done:  E(RwB97XD) =  -2358.76895044     A.U. after   18 cycles
 SCF Done:  E(RwB97XD) =  -2358.76923134     A.U. after   15 cycles
 SCF Done:  E(RwB97XD) =  -2358.77028729     A.U. after   13 cycles
 SCF Done:  E(RwB97XD) =  -2358.77030638     A.U. after   13 cycles
 SCF Done:  E(RwB97XD) =  -2358.77035692     A.U. after   14 cycles
 SCF Done:  E(RwB97XD) =  -2358.77039149     A.U. after   14 cycles
 SCF Done:  E(RwB97XD) =  -2358.77041409     A.U. after   13 cycles
 SCF Done:  E(RwB97XD) =  -2358.77044598     A.U. after   14 cycles
 SCF Done:  E(RwB97XD) =  -2358.77045159     A.U. after   14 cycles
 SCF Done:  E(RwB97XD) =  -2358.77045458     A.U. after   13 cycles
 SCF Done:  E(RwB97XD) =  -2358.77045521     A.U. after   13 cycles
 SCF Done:  E(RwB97XD) =  -2358.77045529     A.U. after   11 cycles
 Optimization completed.
    -- Stationary point found.

                         Standard orientation:
 ---------------------------------------------------------------------
 Center     Atomic      Atomic             Coordinates (Angstroms)
 Number     Number       Type             X           Y           Z
 ---------------------------------------------------------------------
      1          6           0       -3.570745   -2.650948   -0.219349
      2          6           0       -2.787318   -1.412426    0.027870
      3          6           0       -3.405536   -0.150124   -0.081022
      4          6           0       -4.760737   -0.038715   -0.442895
      5          6           0       -5.569429   -1.261524   -0.698083
      6          6           0       -1.454353   -1.503003    0.304367
      7          6           0       -2.636272    1.002182    0.176140
      8          6           0       -1.268209    0.889001    0.543325
      9          6           0       -0.641071   -0.360001    0.550725
     10          6           0       -0.612161    2.118580    1.070435
     11          6           0       -2.495012    3.512168    0.270502
     12          6           0       -3.260207    2.262406    0.034604
     13          6           0       -4.583700    2.355086   -0.335956
     14          6           0       -5.344328    1.201428   -0.570262
     15          1           0       -6.387088    1.267840   -0.854574
     16          1           0       -5.021318    3.339996   -0.444113
     17          1           0       -1.007807   -2.488388    0.293182
     18          7           0       -1.200863    3.349067    0.751098
     19          7           0       -4.912560   -2.489698   -0.560275
     20          8           0       -3.086820   -3.757506   -0.132346
     21          8           0       -6.737340   -1.203851   -1.007462
     22          8           0       -2.970834    4.610270    0.082979
     23          8           0        0.372158    2.097814    1.771574
     24          6           0       -0.461443    4.544971    1.150895
     25          1           0       -0.553929    4.711074    2.225965
     26          1           0        0.590704    4.408023    0.909482
     27          1           0       -0.877004    5.392361    0.612911
     28          6           0       -5.669567   -3.718186   -0.797197
     29          1           0       -5.222134   -4.274063   -1.621459
     30          1           0       -5.645801   -4.342408    0.096079
     31          1           0       -6.691193   -3.441206   -1.039134
     32          6           0        0.803204   -0.612961    0.623272
     33          6           0        1.381681   -1.827442    0.920960
     34         16           0        1.974213    0.462968   -0.054915
     35          6           0        2.763419   -1.864895    0.648787
     36          1           0        0.836273   -2.654254    1.353178
     37          6           0        3.250426   -0.699226    0.087731
     38          8           0        3.602981   -2.901315    0.879143
     39          6           0        4.610893   -0.419257   -0.310491
     40          6           0        3.051113   -4.078511    1.431075
     41          6           0        5.090578    0.739620   -0.885612
     42         16           0        5.913569   -1.559388   -0.111070
     43          1           0        3.876710   -4.780071    1.535137
     44          1           0        2.613122   -3.885778    2.416607
     45          1           0        2.291878   -4.508515    0.768415
     46          6           0        6.485681    0.713852   -1.158479
     47          8           0        4.243550    1.761857   -1.139757
     48          6           0        7.048074   -0.470187   -0.788027
     49          1           0        7.041778    1.525290   -1.605216
     50          6           0        4.790718    2.953544   -1.665655
     51          1           0        8.083214   -0.761848   -0.881572
     52          1           0        5.244326    2.780841   -2.647572
     53          1           0        3.958693    3.647370   -1.771231
     54          1           0        5.535255    3.380105   -0.985077
 ---------------------------------------------------------------------

 The electronic state is 1-A.
 Alpha  occ. eigenvalues --  -89.04881 -89.04846 -19.29305 -19.29118 -19.24988
 Alpha  occ. eigenvalues --  -19.24975 -19.24461 -19.24399 -14.50545 -14.49976
 Alpha  occ. eigenvalues --  -10.42751 -10.42594 -10.42279 -10.42122 -10.35683
 Alpha  occ. eigenvalues --  -10.35506 -10.35345 -10.34781 -10.34624 -10.34165
 Alpha  occ. eigenvalues --  -10.33813 -10.33770 -10.33637 -10.33607 -10.33442
 Alpha  occ. eigenvalues --  -10.33334 -10.33273 -10.32865 -10.32583 -10.32575
 Alpha  occ. eigenvalues --  -10.32521 -10.32198 -10.32025 -10.31953 -10.30417
 Alpha  occ. eigenvalues --  -10.29862  -8.08905  -8.08867  -6.03757  -6.03710
 Alpha  occ. eigenvalues --   -6.03350  -6.03313  -6.02972  -6.02956  -1.19442
 Alpha  occ. eigenvalues --   -1.19072  -1.19036  -1.18842  -1.17540  -1.17090
 Alpha  occ. eigenvalues --   -1.06683  -1.06209  -1.03068  -1.00800  -0.99146
 Alpha  occ. eigenvalues --   -0.97094  -0.94564  -0.90614  -0.88548  -0.87491
 Alpha  occ. eigenvalues --   -0.86243  -0.85176  -0.84982  -0.82983  -0.82371
 Alpha  occ. eigenvalues --   -0.81093  -0.79987  -0.78453  -0.76756  -0.75441
 Alpha  occ. eigenvalues --   -0.75042  -0.74342  -0.70169  -0.69118  -0.68018
 Alpha  occ. eigenvalues --   -0.66594  -0.65908  -0.65287  -0.64176  -0.63804
 Alpha  occ. eigenvalues --   -0.62863  -0.60585  -0.59629  -0.59033  -0.58904
 Alpha  occ. eigenvalues --   -0.58267  -0.57652  -0.57620  -0.57286  -0.57231
 Alpha  occ. eigenvalues --   -0.56731  -0.55852  -0.55393  -0.55236  -0.54271
 Alpha  occ. eigenvalues --   -0.53847  -0.53756  -0.53616  -0.53051  -0.52383
 Alpha  occ. eigenvalues --   -0.51548  -0.51196  -0.50754  -0.50549  -0.50421
 Alpha  occ. eigenvalues --   -0.50087  -0.49735  -0.49411  -0.48966  -0.48452
 Alpha  occ. eigenvalues --   -0.48028  -0.47745  -0.46681  -0.45831  -0.45457
 Alpha  occ. eigenvalues --   -0.44670  -0.44296  -0.42499  -0.41897  -0.41580
 Alpha  occ. eigenvalues --   -0.41277  -0.39969  -0.39549  -0.38436  -0.37778
 Alpha  occ. eigenvalues --   -0.37273  -0.37113  -0.36556  -0.36368  -0.34650
 Alpha  occ. eigenvalues --   -0.33078  -0.31967  -0.31531  -0.25716
 Alpha virt. eigenvalues --   -0.07087  -0.00999   0.00620   0.02442   0.03529
 Alpha virt. eigenvalues --    0.05138   0.05712   0.05922   0.06656   0.06910
 Alpha virt. eigenvalues --    0.07086   0.07422   0.07723   0.07807   0.08109

 Mulliken charges:
               1
     1  C    0.447497
     2  C   -0.069226
     3  C    0.108512
     4  C    0.232844
     5  C    0.345965
     6  C   -0.002948
     7  C    0.036515
     8  C    0.368565
     9  C    0.275334
    10  C   -0.736674
    11  C    0.381131
    12  C    0.050450
    13  C   -0.541362
    14  C   -0.663187
    15  H    0.186951
    16  H    0.187753
    17  H    0.177143
    18  N    0.112464
    19  N   -0.097103
    20  O   -0.270118
    21  O   -0.266112
    22  O   -0.279654
    23  O   -0.195772
    24  C   -0.281811
    25  H    0.201542
    26  H    0.192762
    27  H    0.198017
    28  C   -0.277661
    29  H    0.193529
    30  H    0.191918
    31  H    0.200266
    32  C    0.129565
    33  C   -0.680137
    34  S   -0.764990
    35  C   -0.274337
    36  H    0.156642
    37  C    0.701880
    38  O   -0.114069
    39  C    0.997676
    40  C   -0.297766
    41  C   -0.004201
    42  S   -0.258340
    43  H    0.185121
    44  H    0.162029
    45  H    0.163969
    46  C   -0.583795
    47  O   -0.108817
    48  C   -0.349964
    49  H    0.156621
    50  C   -0.311388
    51  H    0.187800
    52  H    0.156571
    53  H    0.180486
    54  H    0.161915
 Sum of Mulliken charges =  -0.00000

 Dipole moment (field-independent basis, Debye):
    X=              3.2223    Y=             -0.3883    Z=             -0.7087  Tot=              3.3221
 Quadrupole moment (field-independent basis, Debye-Ang):
   XX=           -210.2080   YY=           -211.0428   ZZ=           -220.6696
   XY=             10.4932   XZ=            -10.1597   YZ=             -9.5628

 Normal termination of Gaussian 16 at Fri Nov 27 06:35:30 2020.
