 Gaussian 16, Revision C.01,
 Gaussian 16:  ES64L-G16RevC.01  3-Jul-2019

 --------------------------------------
 # opt=modredundant wb97xd/6-311+g(d,p)
 --------------------------------------

 -----------
 NDI_-75.pdb
 -----------
 Symbolic Z-matrix:
 Charge =  0 Multiplicity = 1

 SCF Done:  E(RwB97XD) =  -2358.76597242     A.U. after   20 cycles
 SCF Done:  E(RwB97XD) =  -2358.77270617     A.U. after   16 cycles
 SCF Done:  E(RwB97XD) =  -2358.77335936     A.U. after   14 cycles
 SCF Done:  E(RwB97XD) =  -2358.77344633     A.U. after   14 cycles
 SCF Done:  E(RwB97XD) =  -2358.77355562     A.U. after   14 cycles
 SCF Done:  E(RwB97XD) =  -2358.77357377     A.U. after   13 cycles
 SCF Done:  E(RwB97XD) =  -2358.77358429     A.U. after   13 cycles
 SCF Done:  E(RwB97XD) =  -2358.77358819     A.U. after   12 cycles
 SCF Done:  E(RwB97XD) =  -2358.77359136     A.U. after   13 cycles
 SCF Done:  E(RwB97XD) =  -2358.77359403     A.U. after   11 cycles
 SCF Done:  E(RwB97XD) =  -2358.77360395     A.U. after   11 cycles
 SCF Done:  E(RwB97XD) =  -2358.77360517     A.U. after   10 cycles
 SCF Done:  E(RwB97XD) =  -2358.77360549     A.U. after   11 cycles
 SCF Done:  E(RwB97XD) =  -2358.77360560     A.U. after    9 cycles
 SCF Done:  E(RwB97XD) =  -2358.77360564     A.U. after    8 cycles
 SCF Done:  E(RwB97XD) =  -2358.77360568     A.U. after    8 cycles
 SCF Done:  E(RwB97XD) =  -2358.77360572     A.U. after    8 cycles
 SCF Done:  E(RwB97XD) =  -2358.77360578     A.U. after    8 cycles
 SCF Done:  E(RwB97XD) =  -2358.77360582     A.U. after    8 cycles
 SCF Done:  E(RwB97XD) =  -2358.77360584     A.U. after    8 cycles
 Optimization completed.
    -- Stationary point found.

                         Standard orientation:
 ---------------------------------------------------------------------
 Center     Atomic      Atomic             Coordinates (Angstroms)
 Number     Number       Type             X           Y           Z
 ---------------------------------------------------------------------
      1          6           0        3.092377   -2.848475    0.554444
      2          6           0        2.528420   -1.489539    0.338910
      3          6           0        3.379075   -0.410656    0.025921
      4          6           0        4.771963   -0.601832   -0.083885
      5          6           0        5.364191   -1.951568    0.126795
      6          6           0        1.180600   -1.286197    0.461998
      7          6           0        2.820922    0.868723   -0.179882
      8          6           0        1.418331    1.061242   -0.071525
      9          6           0        0.600911   -0.006442    0.276712
     10          6           0        0.859967    2.411602   -0.389854
     11          6           0        3.157706    3.307408   -0.706706
     12          6           0        3.691318    1.938738   -0.486466
     13          6           0        5.048297    1.734101   -0.584980
     14          6           0        5.594854    0.457308   -0.385043
     15          1           0        6.661840    0.289087   -0.463605
     16          1           0        5.683567    2.579488   -0.819111
     17          1           0        0.542554   -2.122170    0.723390
     18          7           0        1.775549    3.444972   -0.631155
     19          7           0        4.475216   -2.985628    0.431732
     20          8           0        2.402025   -3.804049    0.824996
     21          8           0        6.554779   -2.146714    0.038825
     22          8           0        3.881548    4.248307   -0.944933
     23          8           0       -0.321732    2.648810   -0.456076
     24          6           0        1.192724    4.760054   -0.896338
     25          1           0        0.611492    4.731653   -1.818659
     26          1           0        0.528852    5.036262   -0.077914
     27          1           0        2.005850    5.473980   -0.986368
     28          6           0        5.010495   -4.329551    0.647052
     29          1           0        4.754546   -4.670896    1.650154
     30          1           0        4.575022   -5.019314   -0.076074
     31          1           0        6.088572   -4.284849    0.525751
     32          6           0       -0.856797    0.096272    0.491894
     33          6           0       -1.496693    0.632649    1.567347
     34         16           0       -1.956851   -0.615157   -0.627417
     35          6           0       -2.906316    0.490211    1.474996
     36          1           0       -0.976769    1.123425    2.377757
     37          6           0       -3.332396   -0.163171    0.340456
     38          8           0       -3.812194    0.920900    2.384893
     39          6           0       -4.695457   -0.445716   -0.058270
     40          6           0       -3.344287    1.751501    3.426533
     41          6           0       -5.113625   -1.126483   -1.180567
     42         16           0       -6.079387    0.073727    0.862644
     43          1           0       -4.223538    2.049142    3.995308
     44          1           0       -2.655803    1.211449    4.086106
     45          1           0       -2.848629    2.643200    3.027613
     46          6           0       -6.527237   -1.229125   -1.302131
     47          8           0       -4.195584   -1.623238   -2.044494
     48          6           0       -7.166823   -0.621941   -0.264520
     49          1           0       -7.041831   -1.725857   -2.112049
     50          6           0       -4.671657   -2.302874   -3.186422
     51          1           0       -8.231233   -0.550496   -0.100151
     52          1           0       -5.283019   -1.644454   -3.813299
     53          1           0       -3.789712   -2.613427   -3.743978
     54          1           0       -5.253236   -3.188321   -2.907037
 ---------------------------------------------------------------------

 The electronic state is 1-A.
 Alpha  occ. eigenvalues --  -89.04488 -89.04090 -19.28519 -19.28484 -19.25243
 Alpha  occ. eigenvalues --  -19.25175 -19.24930 -19.24862 -14.50785 -14.50495
 Alpha  occ. eigenvalues --  -10.43044 -10.42804 -10.42759 -10.42702 -10.35220
 Alpha  occ. eigenvalues --  -10.34843 -10.34731 -10.34703 -10.34655 -10.34455
 Alpha  occ. eigenvalues --  -10.34178 -10.34157 -10.34131 -10.34061 -10.34057
 Alpha  occ. eigenvalues --  -10.33166 -10.33101 -10.33091 -10.32693 -10.32373
 Alpha  occ. eigenvalues --  -10.32174 -10.32072 -10.31843 -10.31180 -10.29404
 Alpha  occ. eigenvalues --  -10.29154  -8.08499  -8.08112  -6.03355  -6.02955
 Alpha  occ. eigenvalues --   -6.02955  -6.02564  -6.02560  -6.02201  -1.19701
 Alpha  occ. eigenvalues --   -1.19530  -1.18238  -1.18156  -1.17796  -1.17593
 Alpha  occ. eigenvalues --   -1.06963  -1.06606  -1.03522  -1.00231  -0.98632
 Alpha  occ. eigenvalues --   -0.97208  -0.95018  -0.90540  -0.88958  -0.87074
 Alpha  occ. eigenvalues --   -0.85681  -0.85455  -0.84257  -0.82741  -0.82166
 Alpha  occ. eigenvalues --   -0.81454  -0.79318  -0.78184  -0.77080  -0.75810
 Alpha  occ. eigenvalues --   -0.75344  -0.74419  -0.70165  -0.68643  -0.67764
 Alpha  occ. eigenvalues --   -0.66851  -0.65555  -0.64810  -0.64538  -0.63098
 Alpha  occ. eigenvalues --   -0.62777  -0.60924  -0.59946  -0.59368  -0.59076
 Alpha  occ. eigenvalues --   -0.57973  -0.57821  -0.57460  -0.57019  -0.56677
 Alpha  occ. eigenvalues --   -0.56386  -0.56152  -0.55610  -0.55392  -0.54219
 Alpha  occ. eigenvalues --   -0.54070  -0.53634  -0.53505  -0.53108  -0.52447
 Alpha  occ. eigenvalues --   -0.51703  -0.51299  -0.51239  -0.50422  -0.50161
 Alpha  occ. eigenvalues --   -0.49685  -0.49608  -0.49182  -0.48999  -0.48468
 Alpha  occ. eigenvalues --   -0.48384  -0.47008  -0.46857  -0.45893  -0.45042
 Alpha  occ. eigenvalues --   -0.44125  -0.43584  -0.42091  -0.41397  -0.41052
 Alpha  occ. eigenvalues --   -0.40718  -0.40523  -0.39809  -0.38689  -0.37643
 Alpha  occ. eigenvalues --   -0.37541  -0.37163  -0.37022  -0.36099  -0.34826
 Alpha  occ. eigenvalues --   -0.33506  -0.31452  -0.31183  -0.25343
 Alpha virt. eigenvalues --   -0.07306  -0.00083   0.00606   0.02234   0.02705
 Alpha virt. eigenvalues --    0.04972   0.05974   0.06127   0.06712   0.06890
 Alpha virt. eigenvalues --    0.07365   0.07443   0.07585   0.07741   0.07923

 Mulliken charges:
               1
     1  C    0.474355
     2  C   -0.029322
     3  C    0.151445
     4  C    0.175605
     5  C    0.345389
     6  C   -0.655752
     7  C    0.147386
     8  C    0.084455
     9  C    0.448411
    10  C   -0.369898
    11  C    0.259181
    12  C    0.162707
    13  C   -0.536000
    14  C   -0.714568
    15  H    0.188683
    16  H    0.189054
    17  H    0.202836
    18  N   -0.093066
    19  N   -0.097580
    20  O   -0.257409
    21  O   -0.267441
    22  O   -0.270115
    23  O   -0.097236
    24  C   -0.291897
    25  H    0.200133
    26  H    0.191649
    27  H    0.201508
    28  C   -0.284505
    29  H    0.194132
    30  H    0.193972
    31  H    0.200054
    32  C    0.204382
    33  C   -0.467561
    34  S   -0.286804
    35  C   -0.089961
    36  H    0.143667
    37  C    0.358335
    38  O   -0.121262
    39  C    0.821272
    40  C   -0.298372
    41  C    0.030300
    42  S   -0.306569
    43  H    0.180941
    44  H    0.153225
    45  H    0.171974
    46  C   -0.568264
    47  O   -0.120457
    48  C   -0.378976
    49  H    0.154393
    50  C   -0.302159
    51  H    0.184038
    52  H    0.158097
    53  H    0.178488
    54  H    0.155112
 Sum of Mulliken charges =  -0.00000

 Dipole moment (field-independent basis, Debye):
    X=             -1.1746    Y=              0.1740    Z=              0.0324  Tot=              1.1879
 Quadrupole moment (field-independent basis, Debye-Ang):
   XX=           -218.0115   YY=           -223.1340   ZZ=           -202.9922
   XY=              0.6068   XZ=              8.3977   YZ=             14.8477

 Normal termination of Gaussian 16 at Thu Nov 26 20:07:38 2020.
