 Gaussian 16, Revision C.01,
 Gaussian 16:  ES64L-G16RevC.01  3-Jul-2019

 --------------------------------------
 # opt=modredundant wb97xd/6-311+g(d,p)
 --------------------------------------

 ----------
 NDI_80.pdb
 ----------
 Symbolic Z-matrix:
 Charge =  0 Multiplicity = 1

 SCF Done:  E(RwB97XD) =  -2358.76448815     A.U. after   19 cycles
 SCF Done:  E(RwB97XD) =  -2358.77162732     A.U. after   16 cycles
 SCF Done:  E(RwB97XD) =  -2358.77279294     A.U. after   16 cycles
 SCF Done:  E(RwB97XD) =  -2358.77316552     A.U. after   15 cycles
 SCF Done:  E(RwB97XD) =  -2358.77327631     A.U. after   15 cycles
 SCF Done:  E(RwB97XD) =  -2358.77336641     A.U. after   13 cycles
 SCF Done:  E(RwB97XD) =  -2358.77339947     A.U. after   13 cycles
 SCF Done:  E(RwB97XD) =  -2358.77342382     A.U. after   13 cycles
 SCF Done:  E(RwB97XD) =  -2358.77343535     A.U. after   13 cycles
 SCF Done:  E(RwB97XD) =  -2358.77344672     A.U. after   13 cycles
 SCF Done:  E(RwB97XD) =  -2358.77346159     A.U. after   13 cycles
 SCF Done:  E(RwB97XD) =  -2358.77347088     A.U. after   12 cycles
 SCF Done:  E(RwB97XD) =  -2358.77348065     A.U. after   12 cycles
 SCF Done:  E(RwB97XD) =  -2358.77348431     A.U. after   13 cycles
 SCF Done:  E(RwB97XD) =  -2358.77348636     A.U. after   11 cycles
 SCF Done:  E(RwB97XD) =  -2358.77348700     A.U. after   11 cycles
 SCF Done:  E(RwB97XD) =  -2358.77348722     A.U. after   10 cycles
 SCF Done:  E(RwB97XD) =  -2358.77348732     A.U. after   10 cycles
 SCF Done:  E(RwB97XD) =  -2358.77348736     A.U. after    9 cycles
 Optimization completed.
    -- Stationary point found.

                         Standard orientation:
 ---------------------------------------------------------------------
 Center     Atomic      Atomic             Coordinates (Angstroms)
 Number     Number       Type             X           Y           Z
 ---------------------------------------------------------------------
      1          6           0       -3.143832   -2.841759    0.496286
      2          6           0       -2.556507   -1.487476    0.316864
      3          6           0       -3.385673   -0.390045    0.011573
      4          6           0       -4.779046   -0.558637   -0.127212
      5          6           0       -5.394351   -1.903304    0.046238
      6          6           0       -1.207220   -1.307365    0.460938
      7          6           0       -2.806054    0.885266   -0.156924
      8          6           0       -1.403414    1.055324   -0.017991
      9          6           0       -0.606363   -0.033405    0.309740
     10          6           0       -0.821751    2.410535   -0.267130
     11          6           0       -3.097849    3.337868   -0.646012
     12          6           0       -3.654994    1.973364   -0.460047
     13          6           0       -5.012412    1.790192   -0.588835
     14          6           0       -5.580783    0.517908   -0.423067
     15          1           0       -6.648384    0.366759   -0.524740
     16          1           0       -5.631005    2.648540   -0.820374
     17          1           0       -0.583889   -2.158358    0.708900
     18          7           0       -1.716636    3.456185   -0.530848
     19          7           0       -4.525851   -2.956404    0.344728
     20          8           0       -2.472448   -3.812043    0.762028
     21          8           0       -6.586001   -2.078786   -0.065431
     22          8           0       -3.803215    4.291559   -0.888480
     23          8           0        0.362875    2.641710   -0.257880
     24          6           0       -1.110625    4.770239   -0.744492
     25          1           0       -0.510441    5.042418    0.123323
     26          1           0       -0.460395    4.741261   -1.619198
     27          1           0       -1.912191    5.487374   -0.893299
     28          6           0       -5.084533   -4.296158    0.523554
     29          1           0       -4.634085   -4.980892   -0.194998
     30          1           0       -4.866117   -4.655202    1.529450
     31          1           0       -6.157499   -4.235513    0.368355
     32          6           0        0.853750    0.037021    0.531900
     33          6           0        1.497847    0.450977    1.657084
     34         16           0        1.947211   -0.548577   -0.663401
     35          6           0        2.907603    0.317107    1.543741
     36          1           0        0.982122    0.852347    2.517835
     37          6           0        3.327783   -0.208952    0.343328
     38          8           0        3.817872    0.644371    2.491670
     39          6           0        4.688656   -0.454331   -0.087059
     40          6           0        3.354124    1.346329    3.625565
     41          6           0        5.101942   -1.003587   -1.280828
     42         16           0        6.076287   -0.058283    0.888140
     43          1           0        4.235870    1.577306    4.220840
     44          1           0        2.855178    2.277691    3.336462
     45          1           0        2.669795    0.731464    4.220841
     46          6           0        6.514755   -1.104252   -1.413391
     47          8           0        4.180478   -1.389190   -2.196691
     48          6           0        7.158734   -0.627922   -0.312193
     49          1           0        7.025711   -1.507852   -2.275699
     50          6           0        4.652250   -1.932464   -3.410974
     51          1           0        8.223578   -0.585188   -0.140861
     52          1           0        5.227471   -2.848830   -3.238464
     53          1           0        3.768440   -2.168857   -4.001039
     54          1           0        5.268572   -1.208982   -3.955976
 ---------------------------------------------------------------------

 The electronic state is 1-A.
 Alpha  occ. eigenvalues --  -89.04425 -89.04037 -19.28467 -19.28443 -19.25267
 Alpha  occ. eigenvalues --  -19.25198 -19.24957 -19.24885 -14.50808 -14.50519
 Alpha  occ. eigenvalues --  -10.43068 -10.42828 -10.42775 -10.42732 -10.35224
 Alpha  occ. eigenvalues --  -10.34789 -10.34752 -10.34700 -10.34668 -10.34500
 Alpha  occ. eigenvalues --  -10.34164 -10.34146 -10.34125 -10.34104 -10.34085
 Alpha  occ. eigenvalues --  -10.33209 -10.33127 -10.33123 -10.32667 -10.32391
 Alpha  occ. eigenvalues --  -10.32167 -10.31982 -10.31793 -10.31120 -10.29349
 Alpha  occ. eigenvalues --  -10.29105  -8.08435  -8.08060  -6.03293  -6.02903
 Alpha  occ. eigenvalues --   -6.02892  -6.02507  -6.02499  -6.02149  -1.19726
 Alpha  occ. eigenvalues --   -1.19555  -1.18189  -1.18106  -1.17821  -1.17621
 Alpha  occ. eigenvalues --   -1.06989  -1.06629  -1.03555  -1.00187  -0.98601
 Alpha  occ. eigenvalues --   -0.97207  -0.95049  -0.90541  -0.88986  -0.87042
 Alpha  occ. eigenvalues --   -0.85653  -0.85462  -0.84200  -0.82744  -0.82162
 Alpha  occ. eigenvalues --   -0.81427  -0.79294  -0.78164  -0.77098  -0.75836
 Alpha  occ. eigenvalues --   -0.75360  -0.74436  -0.70157  -0.68620  -0.67743
 Alpha  occ. eigenvalues --   -0.66873  -0.65551  -0.64781  -0.64501  -0.63049
 Alpha  occ. eigenvalues --   -0.62811  -0.60944  -0.59967  -0.59384  -0.59101
 Alpha  occ. eigenvalues --   -0.57942  -0.57819  -0.57471  -0.56985  -0.56648
 Alpha  occ. eigenvalues --   -0.56394  -0.56148  -0.55637  -0.55397  -0.54221
 Alpha  occ. eigenvalues --   -0.54050  -0.53673  -0.53509  -0.53087  -0.52451
 Alpha  occ. eigenvalues --   -0.51722  -0.51323  -0.51260  -0.50436  -0.50116
 Alpha  occ. eigenvalues --   -0.49681  -0.49579  -0.49158  -0.48986  -0.48473
 Alpha  occ. eigenvalues --   -0.48414  -0.46926  -0.46843  -0.45901  -0.44993
 Alpha  occ. eigenvalues --   -0.44118  -0.43539  -0.42037  -0.41339  -0.41023
 Alpha  occ. eigenvalues --   -0.40698  -0.40547  -0.39822  -0.38697  -0.37641
 Alpha  occ. eigenvalues --   -0.37567  -0.37186  -0.37016  -0.36064  -0.34848
 Alpha  occ. eigenvalues --   -0.33555  -0.31412  -0.31138  -0.25309
 Alpha virt. eigenvalues --   -0.07320  -0.00071   0.00638   0.02273   0.02600
 Alpha virt. eigenvalues --    0.04963   0.05993   0.06163   0.06678   0.06889
 Alpha virt. eigenvalues --    0.07375   0.07429   0.07580   0.07732   0.07968

 Mulliken charges:
               1
     1  C    0.471321
     2  C    0.005619
     3  C    0.178311
     4  C    0.175212
     5  C    0.347591
     6  C   -0.672697
     7  C    0.148438
     8  C    0.059322
     9  C    0.448532
    10  C   -0.360854
    11  C    0.258215
    12  C    0.181069
    13  C   -0.560160
    14  C   -0.722603
    15  H    0.188769
    16  H    0.189267
    17  H    0.200932
    18  N   -0.104557
    19  N   -0.097648
    20  O   -0.256854
    21  O   -0.267452
    22  O   -0.268756
    23  O   -0.090542
    24  C   -0.297813
    25  H    0.192777
    26  H    0.199091
    27  H    0.201915
    28  C   -0.284955
    29  H    0.193641
    30  H    0.194639
    31  H    0.200148
    32  C    0.200013
    33  C   -0.489727
    34  S   -0.206251
    35  C   -0.098076
    36  H    0.142386
    37  C    0.290686
    38  O   -0.121580
    39  C    0.827777
    40  C   -0.296989
    41  C    0.048495
    42  S   -0.306242
    43  H    0.180957
    44  H    0.171207
    45  H    0.153400
    46  C   -0.563557
    47  O   -0.123112
    48  C   -0.386888
    49  H    0.154130
    50  C   -0.301312
    51  H    0.183769
    52  H    0.154854
    53  H    0.178176
    54  H    0.157969
 Sum of Mulliken charges =  -0.00000

 Dipole moment (field-independent basis, Debye):
    X=              1.0355    Y=              0.2101    Z=             -0.0074  Tot=              1.0566
 Quadrupole moment (field-independent basis, Debye-Ang):
   XX=           -218.1975   YY=           -225.9175   ZZ=           -200.2548
   XY=              0.1859   XZ=             -8.9424   YZ=             13.0080

 Normal termination of Gaussian 16 at Fri Nov 27 07:57:05 2020.
