 Gaussian 16, Revision C.01,
 Gaussian 16:  ES64L-G16RevC.01  3-Jul-2019

 --------------------------------------
 # opt=modredundant wb97xd/6-311+g(d,p)
 --------------------------------------

 -----------
 NDI_-55.pdb
 -----------
 Symbolic Z-matrix:
 Charge =  0 Multiplicity = 1

 SCF Done:  E(RwB97XD) =  -2358.76877899     A.U. after   20 cycles
 SCF Done:  E(RwB97XD) =  -2358.77294593     A.U. after   17 cycles
 SCF Done:  E(RwB97XD) =  -2358.77358567     A.U. after   15 cycles
 SCF Done:  E(RwB97XD) =  -2358.77391878     A.U. after   16 cycles
 SCF Done:  E(RwB97XD) =  -2358.77405208     A.U. after   14 cycles
 SCF Done:  E(RwB97XD) =  -2358.77408931     A.U. after   14 cycles
 SCF Done:  E(RwB97XD) =  -2358.77411846     A.U. after   14 cycles
 SCF Done:  E(RwB97XD) =  -2358.77421412     A.U. after   16 cycles
 SCF Done:  E(RwB97XD) =  -2358.77422348     A.U. after   15 cycles
 SCF Done:  E(RwB97XD) =  -2358.77423565     A.U. after   15 cycles
 SCF Done:  E(RwB97XD) =  -2358.77426459     A.U. after   12 cycles
 SCF Done:  E(RwB97XD) =  -2358.77426484     A.U. after   11 cycles
 SCF Done:  E(RwB97XD) =  -2358.77426511     A.U. after   13 cycles
 SCF Done:  E(RwB97XD) =  -2358.77426527     A.U. after   12 cycles
 SCF Done:  E(RwB97XD) =  -2358.77426538     A.U. after   12 cycles
 SCF Done:  E(RwB97XD) =  -2358.77426545     A.U. after   12 cycles
 SCF Done:  E(RwB97XD) =  -2358.77426546     A.U. after   11 cycles
 SCF Done:  E(RwB97XD) =  -2358.77426546     A.U. after   11 cycles
 SCF Done:  E(RwB97XD) =  -2358.77426545     A.U. after   10 cycles
 SCF Done:  E(RwB97XD) =  -2358.77426544     A.U. after    8 cycles
 Optimization completed.
    -- Stationary point found.

                         Standard orientation:
 ---------------------------------------------------------------------
 Center     Atomic      Atomic             Coordinates (Angstroms)
 Number     Number       Type             X           Y           Z
 ---------------------------------------------------------------------
      1          6           0        2.865832   -2.916927    0.544511
      2          6           0        2.406017   -1.523238    0.304241
      3          6           0        3.343099   -0.498877    0.059860
      4          6           0        4.724425   -0.777470    0.049144
      5          6           0        5.213817   -2.162792    0.290192
      6          6           0        1.071302   -1.234313    0.350738
      7          6           0        2.878605    0.812036   -0.178307
      8          6           0        1.485048    1.092944   -0.171029
      9          6           0        0.578981    0.081261    0.140456
     10          6           0        1.046059    2.457539   -0.594707
     11          6           0        3.409926    3.223685   -0.662531
     12          6           0        3.836291    1.824458   -0.412454
     13          6           0        5.182369    1.536002   -0.410455
     14          6           0        5.633328    0.228381   -0.182006
     15          1           0        6.690518   -0.006200   -0.183595
     16          1           0        5.883425    2.342159   -0.588618
     17          1           0        0.374178   -2.030993    0.582246
     18          7           0        2.037603    3.440286   -0.725426
     19          7           0        4.242052   -3.141066    0.518261
     20          8           0        2.098945   -3.828607    0.754568
     21          8           0        6.393042   -2.432616    0.287879
     22          8           0        4.206393    4.122786   -0.817448
     23          8           0       -0.099401    2.751417   -0.841507
     24          6           0        1.564182    4.780599   -1.069110
     25          1           0        1.131947    4.781088   -2.070606
     26          1           0        0.795452    5.087199   -0.360960
     27          1           0        2.413908    5.455443   -1.027872
     28          6           0        4.675050   -4.517520    0.756191
     29          1           0        4.334754   -4.846031    1.738366
     30          1           0        4.242712   -5.174510    0.001402
     31          1           0        5.759278   -4.542428    0.703716
     32          6           0       -0.867338    0.274323    0.314183
     33          6           0       -1.502211    1.140713    1.155800
     34         16           0       -1.987560   -0.760981   -0.497179
     35          6           0       -2.907954    0.983122    1.131152
     36          1           0       -0.976252    1.867888    1.757172
     37          6           0       -3.348353   -0.007044    0.277030
     38          8           0       -3.803967    1.693702    1.855346
     39          6           0       -4.715844   -0.390655    0.002301
     40          6           0       -3.328526    2.839421    2.531832
     41          6           0       -5.147632   -1.405637   -0.824452
     42         16           0       -6.088906    0.422503    0.700694
     43          1           0       -4.203496    3.320575    2.965395
     44          1           0       -2.634433    2.566142    3.334441
     45          1           0       -2.836486    3.529655    1.838187
     46          6           0       -6.562567   -1.528864   -0.898057
     47          8           0       -4.240538   -2.171194   -1.475046
     48          6           0       -7.188867   -0.601200   -0.122188
     49          1           0       -7.087378   -2.263913   -1.491081
     50          6           0       -4.728560   -3.202791   -2.307019
     51          1           0       -8.251493   -0.468333    0.013262
     52          1           0       -5.342248   -2.798740   -3.119493
     53          1           0       -3.852159   -3.693006   -2.727127
     54          1           0       -5.311045   -3.931730   -1.733152
 ---------------------------------------------------------------------

 The electronic state is 1-A.
 Alpha  occ. eigenvalues --  -89.04801 -89.04399 -19.28836 -19.28707 -19.25111
 Alpha  occ. eigenvalues --  -19.25057 -19.24741 -19.24669 -14.50661 -14.50338
 Alpha  occ. eigenvalues --  -10.42903 -10.42679 -10.42645 -10.42492 -10.35255
 Alpha  occ. eigenvalues --  -10.35134 -10.35118 -10.34511 -10.34384 -10.34366
 Alpha  occ. eigenvalues --  -10.34283 -10.34183 -10.33932 -10.33882 -10.33793
 Alpha  occ. eigenvalues --  -10.32935 -10.32902 -10.32848 -10.32819 -10.32616
 Alpha  occ. eigenvalues --  -10.32279 -10.32149 -10.32139 -10.31523 -10.29710
 Alpha  occ. eigenvalues --  -10.29441  -8.08819  -8.08421  -6.03671  -6.03274
 Alpha  occ. eigenvalues --   -6.03264  -6.02890  -6.02868  -6.02510  -1.19574
 Alpha  occ. eigenvalues --   -1.19365  -1.18542  -1.18418  -1.17667  -1.17407
 Alpha  occ. eigenvalues --   -1.06829  -1.06446  -1.03318  -1.00483  -0.98832
 Alpha  occ. eigenvalues --   -0.97178  -0.94826  -0.90539  -0.88784  -0.87265
 Alpha  occ. eigenvalues --   -0.85881  -0.85350  -0.84573  -0.82739  -0.82240
 Alpha  occ. eigenvalues --   -0.81508  -0.79474  -0.78285  -0.76972  -0.75648
 Alpha  occ. eigenvalues --   -0.75254  -0.74322  -0.70217  -0.68780  -0.67863
 Alpha  occ. eigenvalues --   -0.66714  -0.65658  -0.64945  -0.64640  -0.63390
 Alpha  occ. eigenvalues --   -0.62606  -0.60799  -0.59826  -0.59273  -0.58932
 Alpha  occ. eigenvalues --   -0.58170  -0.57751  -0.57377  -0.57225  -0.56871
 Alpha  occ. eigenvalues --   -0.56464  -0.56019  -0.55498  -0.55299  -0.54294
 Alpha  occ. eigenvalues --   -0.54044  -0.53512  -0.53423  -0.53249  -0.52359
 Alpha  occ. eigenvalues --   -0.51627  -0.51171  -0.51100  -0.50415  -0.50334
 Alpha  occ. eigenvalues --   -0.49905  -0.49580  -0.49353  -0.48946  -0.48399
 Alpha  occ. eigenvalues --   -0.48215  -0.47429  -0.46894  -0.45793  -0.45371
 Alpha  occ. eigenvalues --   -0.44220  -0.43844  -0.42326  -0.41669  -0.41248
 Alpha  occ. eigenvalues --   -0.40916  -0.40338  -0.39721  -0.38628  -0.37664
 Alpha  occ. eigenvalues --   -0.37418  -0.37042  -0.37016  -0.36227  -0.34717
 Alpha  occ. eigenvalues --   -0.33273  -0.31634  -0.31425  -0.25509
 Alpha virt. eigenvalues --   -0.07246  -0.00317   0.00464   0.02253   0.03166
 Alpha virt. eigenvalues --    0.05024   0.05842   0.06044   0.06799   0.06895
 Alpha virt. eigenvalues --    0.07288   0.07531   0.07647   0.07732   0.07811

 Mulliken charges:
               1
     1  C    0.458313
     2  C   -0.112221
     3  C    0.060347
     4  C    0.202980
     5  C    0.346128
     6  C   -0.810168
     7  C    0.128785
     8  C    0.236904
     9  C    0.533761
    10  C   -0.400879
    11  C    0.419579
    12  C    0.113936
    13  C   -0.587540
    14  C   -0.730821
    15  H    0.188141
    16  H    0.189255
    17  H    0.210542
    18  N   -0.048673
    19  N   -0.094721
    20  O   -0.261244
    21  O   -0.267234
    22  O   -0.274445
    23  O   -0.140275
    24  C   -0.260770
    25  H    0.200970
    26  H    0.187916
    27  H    0.201558
    28  C   -0.282511
    29  H    0.194265
    30  H    0.193434
    31  H    0.200762
    32  C    0.201619
    33  C   -0.232006
    34  S   -0.527999
    35  C   -0.357231
    36  H    0.148826
    37  C    0.464672
    38  O   -0.101533
    39  C    0.905608
    40  C   -0.308335
    41  C    0.023975
    42  S   -0.275034
    43  H    0.181758
    44  H    0.155315
    45  H    0.175087
    46  C   -0.515100
    47  O   -0.114171
    48  C   -0.352397
    49  H    0.155531
    50  C   -0.306325
    51  H    0.185727
    52  H    0.158386
    53  H    0.180405
    54  H    0.157146
 Sum of Mulliken charges =  -0.00000

 Dipole moment (field-independent basis, Debye):
    X=             -2.0315    Y=             -0.0677    Z=              0.1309  Tot=              2.0368
 Quadrupole moment (field-independent basis, Debye-Ang):
   XX=           -216.5773   YY=           -213.8407   ZZ=           -212.4582
   XY=              2.8603   XZ=              5.6816   YZ=             15.7871

 Normal termination of Gaussian 16 at Thu Nov 26 21:58:25 2020.
