 Gaussian 16, Revision C.01,
 Gaussian 16:  ES64L-G16RevC.01  3-Jul-2019

 --------------------------------------
 # opt=modredundant wb97xd/6-311+g(d,p)
 --------------------------------------

 -----------
 NDI_-95.pdb
 -----------
 Symbolic Z-matrix:
 Charge =  0 Multiplicity = 1

 SCF Done:  E(RwB97XD) =  -2358.76438811     A.U. after   19 cycles
 SCF Done:  E(RwB97XD) =  -2358.77231961     A.U. after   16 cycles
 SCF Done:  E(RwB97XD) =  -2358.77309051     A.U. after   15 cycles
 SCF Done:  E(RwB97XD) =  -2358.77323992     A.U. after   14 cycles
 SCF Done:  E(RwB97XD) =  -2358.77335086     A.U. after   14 cycles
 SCF Done:  E(RwB97XD) =  -2358.77337048     A.U. after   13 cycles
 SCF Done:  E(RwB97XD) =  -2358.77338229     A.U. after   13 cycles
 SCF Done:  E(RwB97XD) =  -2358.77338747     A.U. after   11 cycles
 SCF Done:  E(RwB97XD) =  -2358.77339017     A.U. after   11 cycles
 SCF Done:  E(RwB97XD) =  -2358.77339154     A.U. after   11 cycles
 SCF Done:  E(RwB97XD) =  -2358.77339914     A.U. after   11 cycles
 SCF Done:  E(RwB97XD) =  -2358.77340076     A.U. after   12 cycles
 SCF Done:  E(RwB97XD) =  -2358.77340162     A.U. after   11 cycles
 SCF Done:  E(RwB97XD) =  -2358.77340173     A.U. after   10 cycles
 SCF Done:  E(RwB97XD) =  -2358.77340180     A.U. after    8 cycles
 SCF Done:  E(RwB97XD) =  -2358.77340188     A.U. after    9 cycles
 SCF Done:  E(RwB97XD) =  -2358.77340192     A.U. after    8 cycles
 SCF Done:  E(RwB97XD) =  -2358.77340195     A.U. after    8 cycles
 SCF Done:  E(RwB97XD) =  -2358.77340198     A.U. after    9 cycles
 SCF Done:  E(RwB97XD) =  -2358.77340201     A.U. after    9 cycles
 Optimization completed.
    -- Stationary point found.

                         Standard orientation:
 ---------------------------------------------------------------------
 Center     Atomic      Atomic             Coordinates (Angstroms)
 Number     Number       Type             X           Y           Z
 ---------------------------------------------------------------------
      1          6           0        3.315120   -2.820147    0.116522
      2          6           0        2.648942   -1.490990    0.140756
      3          6           0        3.403687   -0.316595   -0.048272
      4          6           0        4.795106   -0.383719   -0.269952
      5          6           0        5.487967   -1.701142   -0.302689
      6          6           0        1.296939   -1.410988    0.342359
      7          6           0        2.751826    0.934295   -0.014924
      8          6           0        1.352336    1.002928    0.210800
      9          6           0        0.623208   -0.166029    0.379768
     10          6           0        0.705706    2.349695    0.280997
     11          6           0        2.885408    3.441786   -0.205186
     12          6           0        3.524121    2.100173   -0.217320
     13          6           0        4.879634    2.014719   -0.434818
     14          6           0        5.522092    0.767054   -0.459983
     15          1           0        6.589189    0.693224   -0.629825
     16          1           0        5.438164    2.929969   -0.587943
     17          1           0        0.726085   -2.322199    0.475739
     18          7           0        1.514394    3.465514    0.027811
     19          7           0        4.692150   -2.832913   -0.106445
     20          8           0        2.709792   -3.854381    0.280624
     21          8           0        6.679800   -1.790873   -0.489045
     22          8           0        3.520987    4.456223   -0.386075
     23          8           0       -0.460372    2.516792    0.543295
     24          6           0        0.837844    4.761816    0.070861
     25          1           0       -0.007479    4.754161   -0.616247
     26          1           0        0.464374    4.954429    1.077231
     27          1           0        1.556654    5.523807   -0.214803
     28          6           0        5.328706   -4.149483   -0.129448
     29          1           0        5.176566   -4.648902    0.827532
     30          1           0        4.882330   -4.759826   -0.914556
     31          1           0        6.388536   -4.006151   -0.317202
     32          6           0       -0.839814   -0.216855    0.597526
     33          6           0       -1.494385   -0.283038    1.788490
     34         16           0       -1.919403   -0.285432   -0.742773
     35          6           0       -2.903636   -0.362690    1.617192
     36          1           0       -0.988310   -0.246420    2.742678
     37          6           0       -3.310278   -0.375354    0.302905
     38          8           0       -3.823787   -0.434319    2.608404
     39          6           0       -4.665050   -0.453050   -0.203983
     40          6           0       -3.366150   -0.288146    3.935862
     41          6           0       -5.063710   -0.485629   -1.522006
     42         16           0       -6.062932   -0.508333    0.833119
     43          1           0       -4.252150   -0.323010    4.567468
     44          1           0       -2.692160   -1.105504    4.215836
     45          1           0       -2.857712    0.672145    4.075159
     46          6           0       -6.473670   -0.552547   -1.699101
     47          8           0       -4.132007   -0.454272   -2.506075
     48          6           0       -7.130406   -0.570294   -0.506316
     49          1           0       -6.973934   -0.586164   -2.656259
     50          6           0       -4.589959   -0.468602   -3.840895
     51          1           0       -8.196327   -0.619098   -0.343561
     52          1           0       -5.220011    0.402185   -4.053437
     53          1           0       -3.700331   -0.430407   -4.467283
     54          1           0       -5.146728   -1.386569   -4.059517
 ---------------------------------------------------------------------

 The electronic state is 1-A.
 Alpha  occ. eigenvalues --  -89.04329 -89.03996 -19.28432 -19.28409 -19.25291
 Alpha  occ. eigenvalues --  -19.25228 -19.24961 -19.24911 -14.50833 -14.50516
 Alpha  occ. eigenvalues --  -10.43094 -10.42857 -10.42771 -10.42739 -10.35211
 Alpha  occ. eigenvalues --  -10.34791 -10.34747 -10.34726 -10.34612 -10.34542
 Alpha  occ. eigenvalues --  -10.34191 -10.34138 -10.34137 -10.34113 -10.34093
 Alpha  occ. eigenvalues --  -10.33252 -10.33155 -10.33149 -10.32647 -10.32412
 Alpha  occ. eigenvalues --  -10.32138 -10.31893 -10.31752 -10.31072 -10.29317
 Alpha  occ. eigenvalues --  -10.29069  -8.08340  -8.08019  -6.03199  -6.02862
 Alpha  occ. eigenvalues --   -6.02799  -6.02466  -6.02401  -6.02108  -1.19750
 Alpha  occ. eigenvalues --   -1.19562  -1.18151  -1.18069  -1.17846  -1.17631
 Alpha  occ. eigenvalues --   -1.07012  -1.06640  -1.03583  -1.00134  -0.98577
 Alpha  occ. eigenvalues --   -0.97201  -0.95074  -0.90540  -0.89009  -0.87013
 Alpha  occ. eigenvalues --   -0.85637  -0.85452  -0.84146  -0.82734  -0.82201
 Alpha  occ. eigenvalues --   -0.81345  -0.79299  -0.78145  -0.77104  -0.75854
 Alpha  occ. eigenvalues --   -0.75357  -0.74460  -0.70134  -0.68608  -0.67721
 Alpha  occ. eigenvalues --   -0.66891  -0.65597  -0.64644  -0.64483  -0.63022
 Alpha  occ. eigenvalues --   -0.62875  -0.60957  -0.59981  -0.59386  -0.59120
 Alpha  occ. eigenvalues --   -0.57906  -0.57814  -0.57473  -0.56957  -0.56630
 Alpha  occ. eigenvalues --   -0.56393  -0.56155  -0.55670  -0.55404  -0.54221
 Alpha  occ. eigenvalues --   -0.53998  -0.53755  -0.53481  -0.53079  -0.52462
 Alpha  occ. eigenvalues --   -0.51744  -0.51344  -0.51251  -0.50441  -0.50060
 Alpha  occ. eigenvalues --   -0.49680  -0.49563  -0.49174  -0.48932  -0.48475
 Alpha  occ. eigenvalues --   -0.48434  -0.46933  -0.46710  -0.45888  -0.44962
 Alpha  occ. eigenvalues --   -0.44136  -0.43500  -0.41967  -0.41246  -0.41013
 Alpha  occ. eigenvalues --   -0.40754  -0.40548  -0.39834  -0.38702  -0.37634
 Alpha  occ. eigenvalues --   -0.37586  -0.37170  -0.36981  -0.35978  -0.34944
 Alpha  occ. eigenvalues --   -0.33595  -0.31384  -0.31088  -0.25280
 Alpha virt. eigenvalues --   -0.07324  -0.00051   0.00656   0.02348   0.02489
 Alpha virt. eigenvalues --    0.04976   0.05995   0.06249   0.06589   0.06891
 Alpha virt. eigenvalues --    0.07340   0.07406   0.07576   0.07722   0.08032

 Mulliken charges:
               1
     1  C    0.472553
     2  C    0.092936
     3  C    0.206280
     4  C    0.179192
     5  C    0.372501
     6  C   -0.719808
     7  C    0.139775
     8  C   -0.050142
     9  C    0.378401
    10  C   -0.316474
    11  C    0.270174
    12  C    0.196837
    13  C   -0.591416
    14  C   -0.722024
    15  H    0.188933
    16  H    0.189725
    17  H    0.196823
    18  N   -0.098941
    19  N   -0.096762
    20  O   -0.256539
    21  O   -0.267898
    22  O   -0.268326
    23  O   -0.095774
    24  C   -0.299538
    25  H    0.196394
    26  H    0.196510
    27  H    0.201489
    28  C   -0.286159
    29  H    0.194239
    30  H    0.194278
    31  H    0.200414
    32  C    0.200779
    33  C   -0.428495
    34  S   -0.128231
    35  C   -0.089619
    36  H    0.141444
    37  C    0.166364
    38  O   -0.119205
    39  C    0.837582
    40  C   -0.293978
    41  C    0.076142
    42  S   -0.306765
    43  H    0.181163
    44  H    0.155121
    45  H    0.169148
    46  C   -0.562112
    47  O   -0.127950
    48  C   -0.396599
    49  H    0.153900
    50  C   -0.299934
    51  H    0.183507
    52  H    0.157654
    53  H    0.177620
    54  H    0.154809
 Sum of Mulliken charges =  -0.00000

 Dipole moment (field-independent basis, Debye):
    X=             -0.9302    Y=              0.2254    Z=             -0.0726  Tot=              0.9599
 Quadrupole moment (field-independent basis, Debye-Ang):
   XX=           -217.9467   YY=           -231.7993   ZZ=           -194.9973
   XY=             -3.2158   XZ=             10.0389   YZ=              1.9828

 Normal termination of Gaussian 16 at Thu Nov 26 19:04:00 2020.
