 Gaussian 16, Revision C.01,
 Gaussian 16:  ES64L-G16RevC.01  3-Jul-2019

 --------------------------------------
 # opt=modredundant wb97xd/6-311+g(d,p)
 --------------------------------------

 -----------
 NDI_135.pdb
 -----------
 Symbolic Z-matrix:
 Charge =  0 Multiplicity = 1

 SCF Done:  E(RwB97XD) =  -2358.75902348     A.U. after   20 cycles
 SCF Done:  E(RwB97XD) =  -2358.76113405     A.U. after   20 cycles
 SCF Done:  E(RwB97XD) =  -2358.76918622     A.U. after   18 cycles
 SCF Done:  E(RwB97XD) =  -2358.77171529     A.U. after   16 cycles
 SCF Done:  E(RwB97XD) =  -2358.77269644     A.U. after   17 cycles
 SCF Done:  E(RwB97XD) =  -2358.77325544     A.U. after   15 cycles
 SCF Done:  E(RwB97XD) =  -2358.77338656     A.U. after   16 cycles
 SCF Done:  E(RwB97XD) =  -2358.77347410     A.U. after   14 cycles
 SCF Done:  E(RwB97XD) =  -2358.77352307     A.U. after   14 cycles
 SCF Done:  E(RwB97XD) =  -2358.77354115     A.U. after   13 cycles
 SCF Done:  E(RwB97XD) =  -2358.77366386     A.U. after   13 cycles
 SCF Done:  E(RwB97XD) =  -2358.77366553     A.U. after   11 cycles
 SCF Done:  E(RwB97XD) =  -2358.77366621     A.U. after   11 cycles
 SCF Done:  E(RwB97XD) =  -2358.77366653     A.U. after   11 cycles
 SCF Done:  E(RwB97XD) =  -2358.77366682     A.U. after   11 cycles
 SCF Done:  E(RwB97XD) =  -2358.77366702     A.U. after   11 cycles
 SCF Done:  E(RwB97XD) =  -2358.77366740     A.U. after    9 cycles
 SCF Done:  E(RwB97XD) =  -2358.77366754     A.U. after    9 cycles
 SCF Done:  E(RwB97XD) =  -2358.77366767     A.U. after    9 cycles
 SCF Done:  E(RwB97XD) =  -2358.77366773     A.U. after    9 cycles
 Optimization completed.
    -- Stationary point found.

                         Standard orientation:
 ---------------------------------------------------------------------
 Center     Atomic      Atomic             Coordinates (Angstroms)
 Number     Number       Type             X           Y           Z
 ---------------------------------------------------------------------
      1          6           0        3.525137   -2.677786    0.444202
      2          6           0        2.760077   -1.444198    0.124455
      3          6           0        3.410320   -0.193188    0.106951
      4          6           0        4.782292   -0.088523    0.409894
      5          6           0        5.570674   -1.306190    0.743230
      6          6           0        1.415352   -1.521474   -0.112121
      7          6           0        2.666950    0.959349   -0.220522
      8          6           0        1.286050    0.855134   -0.529583
      9          6           0        0.641277   -0.372748   -0.421685
     10          6           0        0.610539    2.060202   -1.095046
     11          6           0        2.580141    3.454527   -0.529944
     12          6           0        3.326046    2.208992   -0.213412
     13          6           0        4.664173    2.293866    0.097318
     14          6           0        5.400724    1.140233    0.405658
     15          1           0        6.455137    1.199723    0.645508
     16          1           0        5.133946    3.269833    0.101383
     17          1           0        0.923985   -2.483844   -0.033276
     18          7           0        1.254319    3.292313   -0.917160
     19          7           0        4.880392   -2.522595    0.734177
     20          8           0        3.015622   -3.775445    0.457148
     21          8           0        6.749854   -1.252042    1.007343
     22          8           0        3.096825    4.548374   -0.474092
     23          8           0       -0.430144    2.014044   -1.705134
     24          6           0        0.519861    4.476706   -1.359501
     25          1           0        0.549282    4.561170   -2.447592
     26          1           0       -0.517751    4.386943   -1.044811
     27          1           0        0.987800    5.349523   -0.913079
     28          6           0        5.615334   -3.746722    1.050648
     29          1           0        5.162631   -4.234229    1.914095
     30          1           0        5.573117   -4.431487    0.203412
     31          1           0        6.644177   -3.474308    1.265588
     32          6           0       -0.810099   -0.577410   -0.523357
     33          6           0       -1.442389   -1.558590   -1.236212
     34         16           0       -1.916078    0.305208    0.462211
     35          6           0       -2.842509   -1.563087   -1.020808
     36          1           0       -0.920714   -2.225726   -1.908447
     37          6           0       -3.272017   -0.616090   -0.114381
     38          8           0       -3.740898   -2.390658   -1.603997
     39          6           0       -4.625913   -0.381272    0.338603
     40          6           0       -3.250072   -3.345082   -2.521778
     41          6           0       -5.048603    0.559912    1.252680
     42         16           0       -5.991912   -1.297178   -0.235383
     43          1           0       -4.117591   -3.899645   -2.874877
     44          1           0       -2.759346   -2.859723   -3.372528
     45          1           0       -2.550815   -4.036603   -2.038730
     46          6           0       -6.451204    0.548670    1.487684
     47          8           0       -4.144469    1.382843    1.834333
     48          6           0       -7.077376   -0.407044    0.746477
     49          1           0       -6.968013    1.210525    2.167563
     50          6           0       -4.629338    2.360364    2.730555
     51          1           0       -8.131997   -0.636312    0.726904
     52          1           0       -5.119927    1.897601    3.593831
     53          1           0       -3.758764    2.919405    3.069125
     54          1           0       -5.327174    3.042411    2.232754
 ---------------------------------------------------------------------

 The electronic state is 1-A.
 Alpha  occ. eigenvalues --  -89.04653 -89.04440 -19.28905 -19.28825 -19.25122
 Alpha  occ. eigenvalues --  -19.25096 -19.24663 -19.24648 -14.50678 -14.50178
 Alpha  occ. eigenvalues --  -10.42912 -10.42719 -10.42482 -10.42390 -10.35224
 Alpha  occ. eigenvalues --  -10.35160 -10.35132 -10.34500 -10.34410 -10.34398
 Alpha  occ. eigenvalues --  -10.34210 -10.34157 -10.33906 -10.33876 -10.33779
 Alpha  occ. eigenvalues --  -10.33029 -10.32996 -10.32911 -10.32846 -10.32638
 Alpha  occ. eigenvalues --  -10.32296 -10.32192 -10.32017 -10.31558 -10.29935
 Alpha  occ. eigenvalues --  -10.29485  -8.08678  -8.08462  -6.03534  -6.03305
 Alpha  occ. eigenvalues --   -6.03135  -6.02908  -6.02738  -6.02551  -1.19582
 Alpha  occ. eigenvalues --   -1.19259  -1.18619  -1.18526  -1.17681  -1.17310
 Alpha  occ. eigenvalues --   -1.06831  -1.06390  -1.03320  -1.00507  -0.98868
 Alpha  occ. eigenvalues --   -0.97190  -0.94810  -0.90580  -0.88765  -0.87280
 Alpha  occ. eigenvalues --   -0.85963  -0.85303  -0.84617  -0.82726  -0.82440
 Alpha  occ. eigenvalues --   -0.81192  -0.79691  -0.78316  -0.76906  -0.75617
 Alpha  occ. eigenvalues --   -0.75161  -0.74405  -0.70120  -0.68887  -0.67889
 Alpha  occ. eigenvalues --   -0.66722  -0.65830  -0.64926  -0.64262  -0.63489
 Alpha  occ. eigenvalues --   -0.62898  -0.60761  -0.59784  -0.59166  -0.58947
 Alpha  occ. eigenvalues --   -0.58186  -0.57736  -0.57348  -0.57313  -0.56963
 Alpha  occ. eigenvalues --   -0.56496  -0.56050  -0.55475  -0.55364  -0.54224
 Alpha  occ. eigenvalues --   -0.53935  -0.53823  -0.53392  -0.53183  -0.52501
 Alpha  occ. eigenvalues --   -0.51623  -0.51195  -0.50898  -0.50390  -0.50198
 Alpha  occ. eigenvalues --   -0.50075  -0.49600  -0.49433  -0.48936  -0.48431
 Alpha  occ. eigenvalues --   -0.48173  -0.47439  -0.46652  -0.45846  -0.45386
 Alpha  occ. eigenvalues --   -0.44396  -0.43941  -0.42264  -0.41602  -0.41266
 Alpha  occ. eigenvalues --   -0.41192  -0.40256  -0.39693  -0.38570  -0.37595
 Alpha  occ. eigenvalues --   -0.37401  -0.37011  -0.36749  -0.36271  -0.34908
 Alpha  occ. eigenvalues --   -0.33228  -0.31754  -0.31381  -0.25540
 Alpha virt. eigenvalues --   -0.07170  -0.00337   0.00474   0.02277   0.03228
 Alpha virt. eigenvalues --    0.05133   0.05802   0.06081   0.06635   0.06805
 Alpha virt. eigenvalues --    0.07124   0.07534   0.07603   0.07746   0.07881

 Mulliken charges:
               1
     1  C    0.474158
     2  C   -0.112379
     3  C    0.089006
     4  C    0.190713
     5  C    0.368446
     6  C   -0.454472
     7  C    0.086002
     8  C    0.108205
     9  C    0.315378
    10  C   -0.484225
    11  C    0.344133
    12  C    0.060615
    13  C   -0.498617
    14  C   -0.673540
    15  H    0.188046
    16  H    0.188519
    17  H    0.192267
    18  N    0.050516
    19  N   -0.095213
    20  O   -0.263758
    21  O   -0.268577
    22  O   -0.277031
    23  O   -0.181298
    24  C   -0.269731
    25  H    0.201721
    26  H    0.194842
    27  H    0.197673
    28  C   -0.281509
    29  H    0.193905
    30  H    0.193159
    31  H    0.200857
    32  C    0.395302
    33  C   -0.625872
    34  S   -0.580293
    35  C   -0.035724
    36  H    0.160030
    37  C    0.490418
    38  O   -0.112678
    39  C    0.926869
    40  C   -0.292049
    41  C    0.049419
    42  S   -0.285151
    43  H    0.183079
    44  H    0.163147
    45  H    0.163237
    46  C   -0.630785
    47  O   -0.119165
    48  C   -0.355893
    49  H    0.155242
    50  C   -0.306857
    51  H    0.185651
    52  H    0.155848
    53  H    0.179417
    54  H    0.158995
 Sum of Mulliken charges =  -0.00000

 Dipole moment (field-independent basis, Debye):
    X=             -2.1493    Y=             -0.1265    Z=              0.4599  Tot=              2.2016
 Quadrupole moment (field-independent basis, Debye-Ang):
   XX=           -213.8258   YY=           -218.1788   ZZ=           -211.3880
   XY=             -8.7042   XZ=             -9.9158   YZ=             14.2781

 Normal termination of Gaussian 16 at Fri Nov 27 06:07:45 2020.
