 Gaussian 16, Revision C.01,
 Gaussian 16:  ES64L-G16RevC.01  3-Jul-2019

 --------------------------------------
 # opt=modredundant wb97xd/6-311+g(d,p)
 --------------------------------------

 ----------
 NDI_40.pdb
 ----------
 Symbolic Z-matrix:
 Charge =  0 Multiplicity = 1

 SCF Done:  E(RwB97XD) =  -2358.76575850     A.U. after   19 cycles
 SCF Done:  E(RwB97XD) =  -2358.76717566     A.U. after   18 cycles
 SCF Done:  E(RwB97XD) =  -2358.77188981     A.U. after   17 cycles
 SCF Done:  E(RwB97XD) =  -2358.77263996     A.U. after   16 cycles
 SCF Done:  E(RwB97XD) =  -2358.77285720     A.U. after   16 cycles
 SCF Done:  E(RwB97XD) =  -2358.77317033     A.U. after   14 cycles
 SCF Done:  E(RwB97XD) =  -2358.77346053     A.U. after   16 cycles
 SCF Done:  E(RwB97XD) =  -2358.77363196     A.U. after   17 cycles
 SCF Done:  E(RwB97XD) =  -2358.77379351     A.U. after   16 cycles
 SCF Done:  E(RwB97XD) =  -2358.77388931     A.U. after   16 cycles
 SCF Done:  E(RwB97XD) =  -2358.77409870     A.U. after   14 cycles
 SCF Done:  E(RwB97XD) =  -2358.77410161     A.U. after   13 cycles
 SCF Done:  E(RwB97XD) =  -2358.77410289     A.U. after   13 cycles
 SCF Done:  E(RwB97XD) =  -2358.77410347     A.U. after   13 cycles
 SCF Done:  E(RwB97XD) =  -2358.77410387     A.U. after   13 cycles
 SCF Done:  E(RwB97XD) =  -2358.77410413     A.U. after   10 cycles
 SCF Done:  E(RwB97XD) =  -2358.77410434     A.U. after   11 cycles
 SCF Done:  E(RwB97XD) =  -2358.77410442     A.U. after   11 cycles
 SCF Done:  E(RwB97XD) =  -2358.77410444     A.U. after    9 cycles
 SCF Done:  E(RwB97XD) =  -2358.77410445     A.U. after    9 cycles
 Optimization completed.
    -- Stationary point found.

                         Standard orientation:
 ---------------------------------------------------------------------
 Center     Atomic      Atomic             Coordinates (Angstroms)
 Number     Number       Type             X           Y           Z
 ---------------------------------------------------------------------
      1          6           0       -2.750795   -2.965212    0.423894
      2          6           0       -2.345198   -1.548615    0.223016
      3          6           0       -3.322502   -0.545431    0.061078
      4          6           0       -4.692924   -0.867360    0.099877
      5          6           0       -5.128751   -2.276180    0.303956
      6          6           0       -1.021188   -1.219175    0.234852
      7          6           0       -2.904808    0.786775   -0.143692
      8          6           0       -1.519720    1.112075   -0.185868
      9          6           0       -0.567862    0.117893    0.056453
     10          6           0       -1.153455    2.495251   -0.615244
     11          6           0       -3.534513    3.196119   -0.502681
     12          6           0       -3.903782    1.775696   -0.291692
     13          6           0       -5.239928    1.445416   -0.239629
     14          6           0       -5.642238    0.117369   -0.047254
     15          1           0       -6.690872   -0.150203   -0.011096
     16          1           0       -5.971066    2.236738   -0.350632
     17          1           0       -0.299494   -2.006576    0.417520
     18          7           0       -2.175426    3.454961   -0.640626
     19          7           0       -4.118952   -3.231949    0.448277
     20          8           0       -1.947721   -3.859734    0.561037
     21          8           0       -6.298101   -2.583728    0.341983
     22          8           0       -4.362679    4.077449   -0.571068
     23          8           0       -0.041753    2.827290   -0.955317
     24          6           0       -1.763811    4.817320   -0.976092
     25          1           0       -0.938473    5.116197   -0.331375
     26          1           0       -1.427858    4.865416   -2.012889
     27          1           0       -2.619744    5.469562   -0.830247
     28          6           0       -4.500271   -4.629669    0.646619
     29          1           0       -4.086451   -5.241237   -0.155287
     30          1           0       -4.103855   -4.988206    1.596710
     31          1           0       -5.584710   -4.684816    0.643946
     32          6           0        0.870928    0.337736    0.224211
     33          6           0        1.511476    1.345914    0.889515
     34         16           0        2.001473   -0.818190   -0.398827
     35          6           0        2.914029    1.190679    0.891795
     36          1           0        0.991174    2.168664    1.355509
     37          6           0        3.357384    0.064357    0.225064
     38          8           0        3.809235    2.021837    1.473495
     39          6           0        4.725139   -0.358584    0.025130
     40          6           0        3.328150    3.264245    1.945792
     41          6           0        5.159611   -1.500141   -0.615356
     42         16           0        6.095801    0.561265    0.581881
     43          1           0        4.202498    3.821503    2.277334
     44          1           0        2.820258    3.817295    1.148491
     45          1           0        2.646106    3.128150    2.792443
     46          6           0        6.574512   -1.634461   -0.659489
     47          8           0        4.255017   -2.363499   -1.130463
     48          6           0        7.197504   -0.588256   -0.049078
     49          1           0        7.101729   -2.459355   -1.116544
     50          6           0        4.743561   -3.527786   -1.764382
     51          1           0        8.259697   -0.434394    0.066382
     52          1           0        5.320357   -4.144863   -1.067093
     53          1           0        3.867247   -4.081906   -2.095640
     54          1           0        5.362447   -3.275009   -2.632036
 ---------------------------------------------------------------------

 The electronic state is 1-A.
 Alpha  occ. eigenvalues --  -89.04980 -89.04633 -19.29071 -19.28871 -19.25018
 Alpha  occ. eigenvalues --  -19.24976 -19.24596 -19.24555 -14.50573 -14.50227
 Alpha  occ. eigenvalues --  -10.42802 -10.42591 -10.42571 -10.42329 -10.35413
 Alpha  occ. eigenvalues --  -10.35334 -10.35325 -10.34535 -10.34387 -10.34363
 Alpha  occ. eigenvalues --  -10.34161 -10.33973 -10.33777 -10.33738 -10.33591
 Alpha  occ. eigenvalues --  -10.33022 -10.32926 -10.32819 -10.32712 -10.32645
 Alpha  occ. eigenvalues --  -10.32378 -10.32213 -10.32116 -10.31783 -10.29909
 Alpha  occ. eigenvalues --  -10.29658  -8.09006  -8.08654  -6.03855  -6.03497
 Alpha  occ. eigenvalues --   -6.03458  -6.03101  -6.03080  -6.02743  -1.19486
 Alpha  occ. eigenvalues --   -1.19260  -1.18783  -1.18599  -1.17576  -1.17279
 Alpha  occ. eigenvalues --   -1.06738  -1.06338  -1.03164  -1.00658  -0.98991
 Alpha  occ. eigenvalues --   -0.97124  -0.94682  -0.90543  -0.88659  -0.87410
 Alpha  occ. eigenvalues --   -0.86027  -0.85265  -0.84793  -0.82802  -0.82270
 Alpha  occ. eigenvalues --   -0.81515  -0.79597  -0.78344  -0.76894  -0.75531
 Alpha  occ. eigenvalues --   -0.75197  -0.74249  -0.70265  -0.68894  -0.67914
 Alpha  occ. eigenvalues --   -0.66619  -0.65754  -0.65130  -0.64595  -0.63611
 Alpha  occ. eigenvalues --   -0.62496  -0.60712  -0.59754  -0.59229  -0.58827
 Alpha  occ. eigenvalues --   -0.58268  -0.57700  -0.57393  -0.57320  -0.57013
 Alpha  occ. eigenvalues --   -0.56585  -0.55867  -0.55463  -0.55200  -0.54389
 Alpha  occ. eigenvalues --   -0.53982  -0.53523  -0.53404  -0.53231  -0.52211
 Alpha  occ. eigenvalues --   -0.51613  -0.51121  -0.50998  -0.50563  -0.50320
 Alpha  occ. eigenvalues --   -0.50080  -0.49530  -0.49439  -0.48897  -0.48391
 Alpha  occ. eigenvalues --   -0.48087  -0.47642  -0.46946  -0.45757  -0.45555
 Alpha  occ. eigenvalues --   -0.44332  -0.44052  -0.42443  -0.41839  -0.41339
 Alpha  occ. eigenvalues --   -0.41115  -0.40205  -0.39651  -0.38585  -0.37695
 Alpha  occ. eigenvalues --   -0.37337  -0.37044  -0.36914  -0.36294  -0.34629
 Alpha  occ. eigenvalues --   -0.33163  -0.31750  -0.31572  -0.25610
 Alpha virt. eigenvalues --   -0.07211  -0.00653   0.00479   0.02364   0.03403
 Alpha virt. eigenvalues --    0.05125   0.05758   0.06029   0.06774   0.06973
 Alpha virt. eigenvalues --    0.07255   0.07495   0.07720   0.07817   0.07960

 Mulliken charges:
               1
     1  C    0.426693
     2  C   -0.144823
     3  C    0.101385
     4  C    0.189389
     5  C    0.356233
     6  C   -0.493431
     7  C    0.134682
     8  C    0.371526
     9  C    0.402279
    10  C   -0.506751
    11  C    0.295373
    12  C    0.101747
    13  C   -0.525163
    14  C   -0.675637
    15  H    0.187492
    16  H    0.188127
    17  H    0.205123
    18  N   -0.007601
    19  N   -0.091774
    20  O   -0.265516
    21  O   -0.266462
    22  O   -0.275182
    23  O   -0.182698
    24  C   -0.262305
    25  H    0.184208
    26  H    0.200346
    27  H    0.200683
    28  C   -0.283636
    29  H    0.193129
    30  H    0.193741
    31  H    0.200086
    32  C    0.177363
    33  C   -0.480787
    34  S   -0.643144
    35  C   -0.135695
    36  H    0.152828
    37  C    0.664475
    38  O   -0.109812
    39  C    0.861249
    40  C   -0.312830
    41  C   -0.000874
    42  S   -0.287623
    43  H    0.181804
    44  H    0.176992
    45  H    0.155748
    46  C   -0.633513
    47  O   -0.111378
    48  C   -0.340844
    49  H    0.156539
    50  C   -0.306933
    51  H    0.186653
    52  H    0.158336
    53  H    0.182306
    54  H    0.157876
 Sum of Mulliken charges =  -0.00000

 Dipole moment (field-independent basis, Debye):
    X=              2.6925    Y=             -0.2271    Z=              0.2135  Tot=              2.7105
 Quadrupole moment (field-independent basis, Debye-Ang):
   XX=           -215.3132   YY=           -209.5999   ZZ=           -216.9975
   XY=             -3.8089   XZ=             -3.6275   YZ=             13.5183

 Normal termination of Gaussian 16 at Fri Nov 27 04:54:59 2020.
