 Gaussian 16, Revision C.01,
 Gaussian 16:  ES64L-G16RevC.01  3-Jul-2019

 --------------------------------------
 # opt=modredundant wb97xd/6-311+g(d,p)
 --------------------------------------

 ------------
 NDI_-170.pdb
 ------------
 Symbolic Z-matrix:
 Charge =  0 Multiplicity = 1

 SCF Done:  E(RwB97XD) =  -2358.72494841     A.U. after   20 cycles
 SCF Done:  E(RwB97XD) =  -2358.75379377     A.U. after   20 cycles
 SCF Done:  E(RwB97XD) =  -2358.76468037     A.U. after   18 cycles
 SCF Done:  E(RwB97XD) =  -2358.76665216     A.U. after   16 cycles
 SCF Done:  E(RwB97XD) =  -2358.76735789     A.U. after   16 cycles
 SCF Done:  E(RwB97XD) =  -2358.76751458     A.U. after   17 cycles
 SCF Done:  E(RwB97XD) =  -2358.76754602     A.U. after   17 cycles
 SCF Done:  E(RwB97XD) =  -2358.76771082     A.U. after   14 cycles
 SCF Done:  E(RwB97XD) =  -2358.76795748     A.U. after   18 cycles
 SCF Done:  E(RwB97XD) =  -2358.76825385     A.U. after   14 cycles
 SCF Done:  E(RwB97XD) =  -2358.76954278     A.U. after   12 cycles
 SCF Done:  E(RwB97XD) =  -2358.76954579     A.U. after   12 cycles
 SCF Done:  E(RwB97XD) =  -2358.76954698     A.U. after   12 cycles
 SCF Done:  E(RwB97XD) =  -2358.76954792     A.U. after   12 cycles
 SCF Done:  E(RwB97XD) =  -2358.76954907     A.U. after   12 cycles
 SCF Done:  E(RwB97XD) =  -2358.76954983     A.U. after   12 cycles
 SCF Done:  E(RwB97XD) =  -2358.76955050     A.U. after   12 cycles
 SCF Done:  E(RwB97XD) =  -2358.76955075     A.U. after   11 cycles
 SCF Done:  E(RwB97XD) =  -2358.76955082     A.U. after   11 cycles
 SCF Done:  E(RwB97XD) =  -2358.76955084     A.U. after   10 cycles
 Optimization completed.
    -- Stationary point found.

                         Standard orientation:
 ---------------------------------------------------------------------
 Center     Atomic      Atomic             Coordinates (Angstroms)
 Number     Number       Type             X           Y           Z
 ---------------------------------------------------------------------
      1          6           0       -3.587513   -2.641024    0.162757
      2          6           0       -2.798374   -1.401299   -0.058896
      3          6           0       -3.410838   -0.138683    0.073630
      4          6           0       -4.765857   -0.028081    0.435040
      5          6           0       -5.580842   -1.251927    0.663557
      6          6           0       -1.466067   -1.493373   -0.334248
      7          6           0       -2.633827    1.013230   -0.159611
      8          6           0       -1.264904    0.899974   -0.526795
      9          6           0       -0.641478   -0.352264   -0.557145
     10          6           0       -0.605385    2.137808   -1.027015
     11          6           0       -2.481816    3.524120   -0.201634
     12          6           0       -3.252246    2.273302    0.006892
     13          6           0       -4.576153    2.365524    0.377072
     14          6           0       -5.343766    1.212158    0.586453
     15          1           0       -6.386736    1.278381    0.869947
     16          1           0       -5.008089    3.350644    0.504437
     17          1           0       -1.031562   -2.483532   -0.341447
     18          7           0       -1.188222    3.364388   -0.684167
     19          7           0       -4.929238   -2.480386    0.503600
     20          8           0       -3.108072   -3.747937    0.055980
     21          8           0       -6.749396   -1.195117    0.970637
     22          8           0       -2.952336    4.620592    0.007892
     23          8           0        0.380357    2.127956   -1.727129
     24          6           0       -0.442583    4.564452   -1.058960
     25          1           0        0.608518    4.417705   -0.818760
     26          1           0       -0.532528    4.752347   -2.130651
     27          1           0       -0.855253    5.402782   -0.504784
     28          6           0       -5.692469   -3.709646    0.714998
     29          1           0       -5.672052   -4.315356   -0.191044
     30          1           0       -5.247771   -4.284752    1.527445
     31          1           0       -6.712669   -3.432512    0.962730
     32          6           0        0.801469   -0.619503   -0.625452
     33          6           0        1.363935   -1.859318   -0.849853
     34         16           0        1.995269    0.476273   -0.019672
     35          6           0        2.743236   -1.904516   -0.574297
     36          1           0        0.810098   -2.704672   -1.231586
     37          6           0        3.249477   -0.715274   -0.083485
     38          8           0        3.565300   -2.966741   -0.741993
     39          6           0        4.614967   -0.433936    0.295002
     40          6           0        2.993317   -4.166122   -1.220889
     41          6           0        5.114083    0.748453    0.802473
     42         16           0        5.899614   -1.603569    0.158039
     43          1           0        3.806674   -4.886921   -1.280131
     44          1           0        2.226416   -4.541105   -0.534079
     45          1           0        2.559209   -4.027310   -2.217168
     46          6           0        6.509359    0.716471    1.073467
     47          8           0        4.283917    1.796224    0.999449
     48          6           0        7.052253   -0.495367    0.769667
     49          1           0        7.079369    1.543118    1.472150
     50          6           0        4.850061    3.007022    1.457487
     51          1           0        8.083074   -0.797177    0.877789
     52          1           0        5.599276    3.383828    0.753147
     53          1           0        4.028650    3.717976    1.525222
     54          1           0        5.303067    2.882372    2.446903
 ---------------------------------------------------------------------

 The electronic state is 1-A.
 Alpha  occ. eigenvalues --  -89.04900 -89.04887 -19.29353 -19.29149 -19.24974
 Alpha  occ. eigenvalues --  -19.24954 -19.24450 -19.24362 -14.50527 -14.49960
 Alpha  occ. eigenvalues --  -10.42727 -10.42575 -10.42259 -10.42079 -10.35759
 Alpha  occ. eigenvalues --  -10.35521 -10.35423 -10.34813 -10.34649 -10.34132
 Alpha  occ. eigenvalues --  -10.33769 -10.33703 -10.33592 -10.33554 -10.33397
 Alpha  occ. eigenvalues --  -10.33387 -10.33339 -10.32830 -10.32632 -10.32519
 Alpha  occ. eigenvalues --  -10.32463 -10.32185 -10.32092 -10.31953 -10.30481
 Alpha  occ. eigenvalues --  -10.29913  -8.08922  -8.08906  -6.03765  -6.03759
 Alpha  occ. eigenvalues --   -6.03368  -6.03349  -6.03011  -6.02976  -1.19423
 Alpha  occ. eigenvalues --   -1.19093  -1.19063  -1.18874  -1.17520  -1.17071
 Alpha  occ. eigenvalues --   -1.06664  -1.06194  -1.03024  -1.00825  -0.99177
 Alpha  occ. eigenvalues --   -0.97072  -0.94524  -0.90612  -0.88513  -0.87514
 Alpha  occ. eigenvalues --   -0.86276  -0.85168  -0.85019  -0.83015  -0.82359
 Alpha  occ. eigenvalues --   -0.81083  -0.80022  -0.78464  -0.76738  -0.75421
 Alpha  occ. eigenvalues --   -0.75026  -0.74337  -0.70175  -0.69145  -0.68036
 Alpha  occ. eigenvalues --   -0.66580  -0.65909  -0.65331  -0.64202  -0.63817
 Alpha  occ. eigenvalues --   -0.62855  -0.60558  -0.59609  -0.59026  -0.58914
 Alpha  occ. eigenvalues --   -0.58249  -0.57675  -0.57626  -0.57303  -0.57238
 Alpha  occ. eigenvalues --   -0.56755  -0.55853  -0.55380  -0.55212  -0.54269
 Alpha  occ. eigenvalues --   -0.53878  -0.53724  -0.53620  -0.53035  -0.52353
 Alpha  occ. eigenvalues --   -0.51543  -0.51221  -0.50756  -0.50592  -0.50421
 Alpha  occ. eigenvalues --   -0.50079  -0.49743  -0.49401  -0.48979  -0.48467
 Alpha  occ. eigenvalues --   -0.48011  -0.47773  -0.46694  -0.45811  -0.45425
 Alpha  occ. eigenvalues --   -0.44713  -0.44317  -0.42532  -0.41923  -0.41619
 Alpha  occ. eigenvalues --   -0.41247  -0.39918  -0.39531  -0.38419  -0.37835
 Alpha  occ. eigenvalues --   -0.37256  -0.37120  -0.36517  -0.36377  -0.34608
 Alpha  occ. eigenvalues --   -0.33071  -0.31979  -0.31541  -0.25733
 Alpha virt. eigenvalues --   -0.07073  -0.01110   0.00652   0.02474   0.03559
 Alpha virt. eigenvalues --    0.05138   0.05702   0.05912   0.06655   0.06977
 Alpha virt. eigenvalues --    0.07089   0.07382   0.07733   0.07841   0.08166

 Mulliken charges:
               1
     1  C    0.439591
     2  C   -0.076791
     3  C    0.118045
     4  C    0.223695
     5  C    0.341224
     6  C    0.061801
     7  C    0.020286
     8  C    0.405392
     9  C    0.298300
    10  C   -0.754747
    11  C    0.367054
    12  C    0.056803
    13  C   -0.532838
    14  C   -0.662789
    15  H    0.186706
    16  H    0.187668
    17  H    0.174268
    18  N    0.115077
    19  N   -0.097647
    20  O   -0.270431
    21  O   -0.265463
    22  O   -0.279758
    23  O   -0.196214
    24  C   -0.276991
    25  H    0.191543
    26  H    0.201445
    27  H    0.197945
    28  C   -0.277905
    29  H    0.192049
    30  H    0.193137
    31  H    0.200108
    32  C    0.087918
    33  C   -0.576661
    34  S   -0.774921
    35  C   -0.394791
    36  H    0.153723
    37  C    0.674825
    38  O   -0.113132
    39  C    0.992989
    40  C   -0.298586
    41  C   -0.002732
    42  S   -0.259271
    43  H    0.185408
    44  H    0.163152
    45  H    0.162635
    46  C   -0.556053
    47  O   -0.105496
    48  C   -0.352398
    49  H    0.156804
    50  C   -0.311491
    51  H    0.187957
    52  H    0.162405
    53  H    0.180552
    54  H    0.156601
 Sum of Mulliken charges =  -0.00000

 Dipole moment (field-independent basis, Debye):
    X=              3.3846    Y=             -0.4259    Z=              0.7318  Tot=              3.4889
 Quadrupole moment (field-independent basis, Debye-Ang):
   XX=           -209.5987   YY=           -210.2224   ZZ=           -221.8691
   XY=             10.8811   XZ=              9.9694   YZ=              8.1550

 Normal termination of Gaussian 16 at Thu Nov 26 20:06:17 2020.
