 Gaussian 16, Revision C.01,
 Gaussian 16:  ES64L-G16RevC.01  3-Jul-2019

 --------------------------------------
 # opt=modredundant wb97xd/6-311+g(d,p)
 --------------------------------------

 -----------
 NDI_-15.pdb
 -----------
 Symbolic Z-matrix:
 Charge =  0 Multiplicity = 1

 SCF Done:  E(RwB97XD) =  -2358.76143494     A.U. after   20 cycles
 SCF Done:  E(RwB97XD) =  -2358.74709536     A.U. after   21 cycles
 SCF Done:  E(RwB97XD) =  -2358.76588234     A.U. after   17 cycles
 SCF Done:  E(RwB97XD) =  -2358.76874311     A.U. after   17 cycles
 SCF Done:  E(RwB97XD) =  -2358.77011712     A.U. after   19 cycles
 SCF Done:  E(RwB97XD) =  -2358.77062870     A.U. after   16 cycles
 SCF Done:  E(RwB97XD) =  -2358.77079565     A.U. after   17 cycles
 SCF Done:  E(RwB97XD) =  -2358.77106678     A.U. after   16 cycles
 SCF Done:  E(RwB97XD) =  -2358.77123742     A.U. after   16 cycles
 SCF Done:  E(RwB97XD) =  -2358.77128890     A.U. after   14 cycles
 SCF Done:  E(RwB97XD) =  -2358.77133451     A.U. after   14 cycles
 SCF Done:  E(RwB97XD) =  -2358.77134404     A.U. after   13 cycles
 SCF Done:  E(RwB97XD) =  -2358.77137241     A.U. after   14 cycles
 SCF Done:  E(RwB97XD) =  -2358.77138653     A.U. after   14 cycles
 SCF Done:  E(RwB97XD) =  -2358.77139737     A.U. after   13 cycles
 SCF Done:  E(RwB97XD) =  -2358.77140257     A.U. after   13 cycles
 SCF Done:  E(RwB97XD) =  -2358.77140382     A.U. after   12 cycles
 SCF Done:  E(RwB97XD) =  -2358.77140431     A.U. after   11 cycles
 SCF Done:  E(RwB97XD) =  -2358.77140441     A.U. after   11 cycles
 SCF Done:  E(RwB97XD) =  -2358.77140444     A.U. after   11 cycles
 Optimization completed.
    -- Stationary point found.

                         Standard orientation:
 ---------------------------------------------------------------------
 Center     Atomic      Atomic             Coordinates (Angstroms)
 Number     Number       Type             X           Y           Z
 ---------------------------------------------------------------------
      1          6           0       -2.579841   -3.019670   -0.147508
      2          6           0       -2.256669   -1.571827   -0.046242
      3          6           0       -3.288282   -0.610981   -0.041902
      4          6           0       -4.634190   -1.004459   -0.154077
      5          6           0       -4.988558   -2.446202   -0.261389
      6          6           0       -0.954044   -1.176955   -0.009930
      7          6           0       -2.941151    0.750657    0.077683
      8          6           0       -1.576941    1.149064    0.194226
      9          6           0       -0.556601    0.190660    0.087408
     10          6           0       -1.334319    2.566417    0.588904
     11          6           0       -3.706392    3.145782    0.155938
     12          6           0       -3.992198    1.696072    0.053628
     13          6           0       -5.305063    1.296501   -0.075135
     14          6           0       -5.635417   -0.059996   -0.172341
     15          1           0       -6.665150   -0.381574   -0.264882
     16          1           0       -6.073813    2.059098   -0.099891
     17          1           0       -0.202160   -1.953437   -0.084827
     18          7           0       -2.381207    3.480280    0.408875
     19          7           0       -3.928335   -3.357972   -0.244711
     20          8           0       -1.728391   -3.879822   -0.147254
     21          8           0       -6.136145   -2.816895   -0.356488
     22          8           0       -4.569853    3.989498    0.054608
     23          8           0       -0.299985    2.967734    1.074024
     24          6           0       -2.066930    4.880729    0.686593
     25          1           0       -1.899064    5.027462    1.754690
     26          1           0       -1.160593    5.161245    0.152107
     27          1           0       -2.908540    5.482375    0.356100
     28          6           0       -4.230447   -4.785247   -0.342683
     29          1           0       -3.749989   -5.203749   -1.227250
     30          1           0       -3.849229   -5.303146    0.537536
     31          1           0       -5.308606   -4.895475   -0.409908
     32          6           0        0.874509    0.443032   -0.088743
     33          6           0        1.540806    1.584155   -0.459491
     34         16           0        2.009600   -0.836283    0.244212
     35          6           0        2.937847    1.421956   -0.499588
     36          1           0        1.046420    2.508331   -0.703448
     37          6           0        3.370939    0.159468   -0.135403
     38          8           0        3.842240    2.365478   -0.846265
     39          6           0        4.733105   -0.313611   -0.060401
     40          6           0        3.362431    3.678741   -1.058661
     41          6           0        5.158054   -1.578524    0.292202
     42         16           0        6.110480    0.692668   -0.416286
     43          1           0        4.240585    4.295009   -1.242409
     44          1           0        2.702571    3.720815   -1.932219
     45          1           0        2.829811    4.050238   -0.176890
     46          6           0        6.570687   -1.737170    0.276705
     47          8           0        4.247852   -2.524214    0.611141
     48          6           0        7.200910   -0.586001   -0.088719
     49          1           0        7.091337   -2.651471    0.521971
     50          6           0        4.724410   -3.809961    0.954420
     51          1           0        8.263812   -0.423007   -0.183879
     52          1           0        5.360670   -3.769868    1.844943
     53          1           0        3.842780   -4.411559    1.167189
     54          1           0        5.278991   -4.259619    0.123968
 ---------------------------------------------------------------------

 The electronic state is 1-A.
 Alpha  occ. eigenvalues --  -89.05167 -89.04937 -19.29362 -19.29091 -19.24900
 Alpha  occ. eigenvalues --  -19.24879 -19.24546 -19.24433 -14.50463 -14.50120
 Alpha  occ. eigenvalues --  -10.42674 -10.42525 -10.42484 -10.42138 -10.35798
 Alpha  occ. eigenvalues --  -10.35563 -10.35541 -10.34714 -10.34456 -10.34227
 Alpha  occ. eigenvalues --  -10.33939 -10.33691 -10.33576 -10.33532 -10.33518
 Alpha  occ. eigenvalues --  -10.33344 -10.33236 -10.32727 -10.32674 -10.32476
 Alpha  occ. eigenvalues --  -10.32383 -10.32136 -10.32131 -10.32127 -10.30044
 Alpha  occ. eigenvalues --  -10.29937  -8.09203  -8.08958  -6.04050  -6.03800
 Alpha  occ. eigenvalues --   -6.03651  -6.03404  -6.03277  -6.03046  -1.19371
 Alpha  occ. eigenvalues --   -1.19197  -1.19093  -1.18829  -1.17461  -1.17171
 Alpha  occ. eigenvalues --   -1.06623  -1.06264  -1.02983  -1.00868  -0.99193
 Alpha  occ. eigenvalues --   -0.97039  -0.94511  -0.90563  -0.88521  -0.87600
 Alpha  occ. eigenvalues --   -0.86205  -0.85178  -0.85040  -0.82953  -0.82266
 Alpha  occ. eigenvalues --   -0.81530  -0.79756  -0.78403  -0.76820  -0.75402
 Alpha  occ. eigenvalues --   -0.75164  -0.74151  -0.70342  -0.69059  -0.67988
 Alpha  occ. eigenvalues --   -0.66521  -0.65864  -0.65397  -0.64539  -0.63893
 Alpha  occ. eigenvalues --   -0.62378  -0.60627  -0.59702  -0.59215  -0.58714
 Alpha  occ. eigenvalues --   -0.58356  -0.57674  -0.57591  -0.57287  -0.57175
 Alpha  occ. eigenvalues --   -0.56732  -0.55769  -0.55419  -0.55112  -0.54518
 Alpha  occ. eigenvalues --   -0.53860  -0.53701  -0.53406  -0.53090  -0.51874
 Alpha  occ. eigenvalues --   -0.51693  -0.51158  -0.50931  -0.50690  -0.50446
 Alpha  occ. eigenvalues --   -0.50179  -0.49511  -0.49469  -0.48882  -0.48452
 Alpha  occ. eigenvalues --   -0.47949  -0.47809  -0.46958  -0.45971  -0.45444
 Alpha  occ. eigenvalues --   -0.44627  -0.44247  -0.42562  -0.41982  -0.41466
 Alpha  occ. eigenvalues --   -0.41263  -0.40052  -0.39570  -0.38535  -0.37793
 Alpha  occ. eigenvalues --   -0.37233  -0.37051  -0.36762  -0.36375  -0.34548
 Alpha  occ. eigenvalues --   -0.33120  -0.31937  -0.31731  -0.25722
 Alpha virt. eigenvalues --   -0.07146  -0.01193   0.00576   0.02538   0.03598
 Alpha virt. eigenvalues --    0.05222   0.05678   0.06033   0.06720   0.07081
 Alpha virt. eigenvalues --    0.07141   0.07357   0.07836   0.08053   0.08131

 Mulliken charges:
               1
     1  C    0.368988
     2  C   -0.101401
     3  C    0.158999
     4  C    0.185624
     5  C    0.369422
     6  C    0.000687
     7  C    0.151672
     8  C    0.550567
     9  C    0.188188
    10  C   -0.929657
    11  C    0.299774
    12  C    0.091269
    13  C   -0.543212
    14  C   -0.655926
    15  H    0.186567
    16  H    0.187861
    17  H    0.190677
    18  N    0.052673
    19  N   -0.088562
    20  O   -0.270389
    21  O   -0.265407
    22  O   -0.279155
    23  O   -0.231841
    24  C   -0.248568
    25  H    0.201512
    26  H    0.180559
    27  H    0.201114
    28  C   -0.285138
    29  H    0.193361
    30  H    0.192550
    31  H    0.199721
    32  C   -0.042576
    33  C   -0.329500
    34  S   -0.749581
    35  C   -0.285147
    36  H    0.160528
    37  C    0.683651
    38  O   -0.104942
    39  C    1.002745
    40  C   -0.316081
    41  C    0.048635
    42  S   -0.253002
    43  H    0.183261
    44  H    0.156826
    45  H    0.179360
    46  C   -0.654270
    47  O   -0.109805
    48  C   -0.362118
    49  H    0.157721
    50  C   -0.309453
    51  H    0.188664
    52  H    0.157544
    53  H    0.185648
    54  H    0.159362
 Sum of Mulliken charges =  -0.00000

 Dipole moment (field-independent basis, Debye):
    X=              3.5528    Y=             -0.3916    Z=             -0.3497  Tot=              3.5914
 Quadrupole moment (field-independent basis, Debye-Ang):
   XX=           -213.5955   YY=           -204.9667   ZZ=           -222.0466
   XY=             -4.8391   XZ=             -0.2269   YZ=             -7.9942

 Normal termination of Gaussian 16 at Thu Nov 26 23:28:34 2020.
