 Gaussian 16, Revision C.01,
 Gaussian 16:  ES64L-G16RevC.01  3-Jul-2019

 --------------------------------------
 # opt=modredundant wb97xd/6-311+g(d,p)
 --------------------------------------

 ------------
 NDI_-175.pdb
 ------------
 Symbolic Z-matrix:
 Charge =  0 Multiplicity = 1

 SCF Done:  E(RwB97XD) =  -2358.72168028     A.U. after   20 cycles
 SCF Done:  E(RwB97XD) =  -2358.75306539     A.U. after   20 cycles
 SCF Done:  E(RwB97XD) =  -2358.76382683     A.U. after   18 cycles
 SCF Done:  E(RwB97XD) =  -2358.76580734     A.U. after   16 cycles
 SCF Done:  E(RwB97XD) =  -2358.76644297     A.U. after   16 cycles
 SCF Done:  E(RwB97XD) =  -2358.76651432     A.U. after   14 cycles
 SCF Done:  E(RwB97XD) =  -2358.76663204     A.U. after   17 cycles
 SCF Done:  E(RwB97XD) =  -2358.76674320     A.U. after   14 cycles
 SCF Done:  E(RwB97XD) =  -2358.76694035     A.U. after   18 cycles
 SCF Done:  E(RwB97XD) =  -2358.76733912     A.U. after   16 cycles
 SCF Done:  E(RwB97XD) =  -2358.76863026     A.U. after   14 cycles
 SCF Done:  E(RwB97XD) =  -2358.76863187     A.U. after   13 cycles
 SCF Done:  E(RwB97XD) =  -2358.76863402     A.U. after   12 cycles
 SCF Done:  E(RwB97XD) =  -2358.76863555     A.U. after   11 cycles
 SCF Done:  E(RwB97XD) =  -2358.76863676     A.U. after   13 cycles
 SCF Done:  E(RwB97XD) =  -2358.76863783     A.U. after   11 cycles
 SCF Done:  E(RwB97XD) =  -2358.76863845     A.U. after   11 cycles
 SCF Done:  E(RwB97XD) =  -2358.76863859     A.U. after   10 cycles
 SCF Done:  E(RwB97XD) =  -2358.76863864     A.U. after    9 cycles
 SCF Done:  E(RwB97XD) =  -2358.76863866     A.U. after    9 cycles
 Optimization completed.
    -- Stationary point found.

                         Standard orientation:
 ---------------------------------------------------------------------
 Center     Atomic      Atomic             Coordinates (Angstroms)
 Number     Number       Type             X           Y           Z
 ---------------------------------------------------------------------
      1          6           0       -3.610714   -2.627753    0.097163
      2          6           0       -2.813381   -1.387773   -0.091290
      3          6           0       -3.419417   -0.125013    0.065234
      4          6           0       -4.775672   -0.014534    0.420417
      5          6           0       -5.599157   -1.238383    0.615688
      6          6           0       -1.480766   -1.482205   -0.360108
      7          6           0       -2.632635    1.025485   -0.138788
      8          6           0       -1.261375    0.911391   -0.500777
      9          6           0       -0.642255   -0.344147   -0.552081
     10          6           0       -0.595580    2.157264   -0.968109
     11          6           0       -2.467490    3.535988   -0.122288
     12          6           0       -3.245050    2.285089    0.052769
     13          6           0       -4.570837    2.377545    0.417290
     14          6           0       -5.347410    1.225550    0.596006
     15          1           0       -6.391729    1.292112    0.874319
     16          1           0       -4.996602    3.362625    0.564224
     17          1           0       -1.060026   -2.477190   -0.389560
     18          7           0       -1.172688    3.379241   -0.601991
     19          7           0       -4.953647   -2.466972    0.432433
     20          8           0       -3.136586   -3.734865   -0.030561
     21          8           0       -6.769465   -1.181743    0.916005
     22          8           0       -2.932505    4.630254    0.110030
     23          8           0        0.394530    2.158965   -1.663048
     24          6           0       -0.417441    4.582481   -0.945881
     25          1           0        0.630641    4.425449   -0.698978
     26          1           0       -0.496353    4.792093   -2.014395
     27          1           0       -0.831064    5.411578   -0.378695
     28          6           0       -5.725507   -3.696000    0.611120
     29          1           0       -5.704058   -4.280606   -0.308674
     30          1           0       -5.288693   -4.292629    1.412236
     31          1           0       -6.745297   -3.418273    0.859907
     32          6           0        0.799025   -0.627961   -0.613367
     33          6           0        1.343510   -1.889393   -0.761496
     34         16           0        2.019755    0.483812   -0.091852
     35          6           0        2.721174   -1.942406   -0.486897
     36          1           0        0.779281   -2.751371   -1.084787
     37          6           0        3.249892   -0.733028   -0.074792
     38          8           0        3.523618   -3.027787   -0.589007
     39          6           0        4.622358   -0.451899    0.276598
     40          6           0        2.929701   -4.243990   -0.992936
     41          6           0        5.145154    0.751523    0.705448
     42         16           0        5.886261   -1.650121    0.206233
     43          1           0        3.730551   -4.980828   -1.010471
     44          1           0        2.159020   -4.563667   -0.282780
     45          1           0        2.494443   -4.158328   -1.994708
     46          6           0        6.541443    0.712277    0.969785
     47          8           0        4.334727    1.823688    0.840443
     48          6           0        7.061456   -0.525646    0.739905
     49          1           0        7.128170    1.552362    1.312129
     50          6           0        4.924862    3.051948    1.214180
     51          1           0        8.087752   -0.837825    0.861032
     52          1           0        5.675857    3.367785    0.482337
     53          1           0        4.116307    3.780198    1.238771
     54          1           0        5.382017    2.985023    2.207265
 ---------------------------------------------------------------------

 The electronic state is 1-A.
 Alpha  occ. eigenvalues --  -89.04944 -89.04885 -19.29387 -19.29174 -19.24962
 Alpha  occ. eigenvalues --  -19.24935 -19.24458 -19.24331 -14.50511 -14.49953
 Alpha  occ. eigenvalues --  -10.42706 -10.42560 -10.42249 -10.42042 -10.35824
 Alpha  occ. eigenvalues --  -10.35526 -10.35515 -10.34834 -10.34669 -10.34105
 Alpha  occ. eigenvalues --  -10.33737 -10.33639 -10.33550 -10.33504 -10.33467
 Alpha  occ. eigenvalues --  -10.33378 -10.33337 -10.32798 -10.32670 -10.32466
 Alpha  occ. eigenvalues --  -10.32408 -10.32174 -10.32152 -10.31960 -10.30536
 Alpha  occ. eigenvalues --  -10.29955  -8.08966  -8.08898  -6.03808  -6.03750
 Alpha  occ. eigenvalues --   -6.03412  -6.03337  -6.03055  -6.02970  -1.19406
 Alpha  occ. eigenvalues --   -1.19138  -1.19067  -1.18899  -1.17503  -1.17060
 Alpha  occ. eigenvalues --   -1.06647  -1.06190  -1.02984  -1.00838  -0.99196
 Alpha  occ. eigenvalues --   -0.97052  -0.94489  -0.90609  -0.88482  -0.87530
 Alpha  occ. eigenvalues --   -0.86303  -0.85167  -0.85045  -0.83039  -0.82352
 Alpha  occ. eigenvalues --   -0.81079  -0.80047  -0.78471  -0.76725  -0.75408
 Alpha  occ. eigenvalues --   -0.75013  -0.74337  -0.70180  -0.69168  -0.68054
 Alpha  occ. eigenvalues --   -0.66573  -0.65910  -0.65364  -0.64240  -0.63822
 Alpha  occ. eigenvalues --   -0.62846  -0.60534  -0.59593  -0.59026  -0.58930
 Alpha  occ. eigenvalues --   -0.58224  -0.57702  -0.57624  -0.57322  -0.57237
 Alpha  occ. eigenvalues --   -0.56770  -0.55872  -0.55366  -0.55191  -0.54274
 Alpha  occ. eigenvalues --   -0.53918  -0.53708  -0.53591  -0.53023  -0.52321
 Alpha  occ. eigenvalues --   -0.51540  -0.51256  -0.50770  -0.50627  -0.50417
 Alpha  occ. eigenvalues --   -0.50075  -0.49738  -0.49395  -0.48995  -0.48480
 Alpha  occ. eigenvalues --   -0.48000  -0.47796  -0.46711  -0.45783  -0.45378
 Alpha  occ. eigenvalues --   -0.44762  -0.44315  -0.42557  -0.41938  -0.41655
 Alpha  occ. eigenvalues --   -0.41204  -0.39869  -0.39517  -0.38401  -0.37894
 Alpha  occ. eigenvalues --   -0.37242  -0.37125  -0.36471  -0.36392  -0.34571
 Alpha  occ. eigenvalues --   -0.33065  -0.31984  -0.31559  -0.25746
 Alpha virt. eigenvalues --   -0.07058  -0.01214   0.00680   0.02508   0.03581
 Alpha virt. eigenvalues --    0.05142   0.05696   0.05910   0.06656   0.07040
 Alpha virt. eigenvalues --    0.07093   0.07344   0.07746   0.07877   0.08224

 Mulliken charges:
               1
     1  C    0.432948
     2  C   -0.084381
     3  C    0.117409
     4  C    0.211027
     5  C    0.341140
     6  C    0.097723
     7  C    0.003785
     8  C    0.413466
     9  C    0.320750
    10  C   -0.734534
    11  C    0.348576
    12  C    0.066165
    13  C   -0.523511
    14  C   -0.660799
    15  H    0.186462
    16  H    0.187613
    17  H    0.172515
    18  N    0.111459
    19  N   -0.098039
    20  O   -0.270307
    21  O   -0.264818
    22  O   -0.279933
    23  O   -0.197238
    24  C   -0.269579
    25  H    0.189839
    26  H    0.201344
    27  H    0.197917
    28  C   -0.279108
    29  H    0.192198
    30  H    0.192843
    31  H    0.199962
    32  C    0.040899
    33  C   -0.446827
    34  S   -0.780583
    35  C   -0.448823
    36  H    0.150850
    37  C    0.620754
    38  O   -0.113362
    39  C    0.968460
    40  C   -0.298284
    41  C   -0.005872
    42  S   -0.264181
    43  H    0.185603
    44  H    0.162389
    45  H    0.163261
    46  C   -0.532472
    47  O   -0.101763
    48  C   -0.356523
    49  H    0.156927
    50  C   -0.311101
    51  H    0.188058
    52  H    0.162757
    53  H    0.180487
    54  H    0.156455
 Sum of Mulliken charges =  -0.00000

 Dipole moment (field-independent basis, Debye):
    X=              3.5342    Y=             -0.4544    Z=              0.7228  Tot=              3.6359
 Quadrupole moment (field-independent basis, Debye-Ang):
   XX=           -208.9487   YY=           -209.5030   ZZ=           -223.0080
   XY=             11.3337   XZ=              9.5419   YZ=              6.4693

 Normal termination of Gaussian 16 at Fri Nov 27 01:55:05 2020.
