 Gaussian 16, Revision C.01,
 Gaussian 16:  ES64L-G16RevC.01  3-Jul-2019

 --------------------------------------
 # opt=modredundant wb97xd/6-311+g(d,p)
 --------------------------------------

 -----------
 NDI_-25.pdb
 -----------
 Symbolic Z-matrix:
 Charge =  0 Multiplicity = 1

 SCF Done:  E(RwB97XD) =  -2358.76709870     A.U. after   20 cycles
 SCF Done:  E(RwB97XD) =  -2358.76386082     A.U. after   19 cycles
 SCF Done:  E(RwB97XD) =  -2358.77052511     A.U. after   18 cycles
 SCF Done:  E(RwB97XD) =  -2358.77171688     A.U. after   18 cycles
 SCF Done:  E(RwB97XD) =  -2358.77227672     A.U. after   16 cycles
 SCF Done:  E(RwB97XD) =  -2358.77248309     A.U. after   16 cycles
 SCF Done:  E(RwB97XD) =  -2358.77264009     A.U. after   16 cycles
 SCF Done:  E(RwB97XD) =  -2358.77272650     A.U. after   16 cycles
 SCF Done:  E(RwB97XD) =  -2358.77275622     A.U. after   15 cycles
 SCF Done:  E(RwB97XD) =  -2358.77278809     A.U. after   14 cycles
 SCF Done:  E(RwB97XD) =  -2358.77284782     A.U. after   13 cycles
 SCF Done:  E(RwB97XD) =  -2358.77285389     A.U. after   13 cycles
 SCF Done:  E(RwB97XD) =  -2358.77285517     A.U. after   12 cycles
 SCF Done:  E(RwB97XD) =  -2358.77285591     A.U. after   13 cycles
 SCF Done:  E(RwB97XD) =  -2358.77285613     A.U. after   12 cycles
 SCF Done:  E(RwB97XD) =  -2358.77285626     A.U. after   12 cycles
 SCF Done:  E(RwB97XD) =  -2358.77285633     A.U. after    9 cycles
 SCF Done:  E(RwB97XD) =  -2358.77285639     A.U. after    9 cycles
 SCF Done:  E(RwB97XD) =  -2358.77285644     A.U. after   11 cycles
 SCF Done:  E(RwB97XD) =  -2358.77285647     A.U. after   11 cycles
 Optimization completed.
    -- Stationary point found.

                         Standard orientation:
 ---------------------------------------------------------------------
 Center     Atomic      Atomic             Coordinates (Angstroms)
 Number     Number       Type             X           Y           Z
 ---------------------------------------------------------------------
      1          6           0        2.661833   -3.000600    0.270627
      2          6           0        2.298951   -1.566042    0.123919
      3          6           0        3.305606   -0.581474    0.051554
      4          6           0        4.664329   -0.938789    0.133656
      5          6           0        5.057979   -2.366461    0.284856
      6          6           0        0.985252   -1.203894    0.108679
      7          6           0        2.924292    0.767489   -0.106169
      8          6           0        1.548894    1.129202   -0.191515
      9          6           0        0.560255    0.150310   -0.025188
     10          6           0        1.248209    2.529348   -0.611877
     11          6           0        3.625557    3.174901   -0.308840
     12          6           0        3.951525    1.737353   -0.156891
     13          6           0        5.276857    1.372939   -0.059584
     14          6           0        5.641824    0.028511    0.080441
     15          1           0        6.681521   -0.265792    0.149941
     16          1           0        6.028433    2.152090   -0.093756
     17          1           0        0.247763   -1.987836    0.234095
     18          7           0        2.283270    3.470071   -0.518320
     19          7           0        4.020917   -3.302910    0.336899
     20          8           0        1.832709   -3.880016    0.330995
     21          8           0        6.216995   -2.705283    0.357516
     22          8           0        4.472604    4.040442   -0.278587
     23          8           0        0.178399    2.892712   -1.045169
     24          6           0        1.923321    4.852431   -0.829681
     25          1           0        1.689179    4.953006   -1.890564
     26          1           0        1.044220    5.136709   -0.253212
     27          1           0        2.769709    5.482860   -0.573592
     28          6           0        4.360576   -4.717949    0.479933
     29          1           0        3.922547   -5.111184    1.397549
     30          1           0        3.959928   -5.279161   -0.364319
     31          1           0        5.442662   -4.801969    0.511446
     32          6           0       -0.872410    0.386985    0.154690
     33          6           0       -1.524013    1.486077    0.649216
     34         16           0       -2.009208   -0.844943   -0.304881
     35          6           0       -2.923673    1.331445    0.670709
     36          1           0       -1.015500    2.371559    0.993451
     37          6           0       -3.364977    0.117384    0.176092
     38          8           0       -3.821888    2.238668    1.117084
     39          6           0       -4.731132   -0.333294    0.045381
     40          6           0       -3.339111    3.530469    1.429404
     41          6           0       -5.164031   -1.555129   -0.427431
     42         16           0       -6.102855    0.649992    0.478450
     43          1           0       -4.214758    4.130483    1.670310
     44          1           0       -2.671315    3.503096    2.297566
     45          1           0       -2.814732    3.970992    0.574816
     46          6           0       -6.578295   -1.699846   -0.441810
     47          8           0       -4.258825   -2.476794   -0.824088
     48          6           0       -7.202003   -0.581083    0.021813
     49          1           0       -7.104539   -2.582245   -0.775973
     50          6           0       -4.743864   -3.722786   -1.281941
     51          1           0       -8.264276   -0.416732    0.121331
     52          1           0       -5.370565   -3.599501   -2.171668
     53          1           0       -3.865920   -4.312917   -1.537893
     54          1           0       -5.311152   -4.237196   -0.498960
 ---------------------------------------------------------------------

 The electronic state is 1-A.
 Alpha  occ. eigenvalues --  -89.05115 -89.04827 -19.29261 -19.29018 -19.24939
 Alpha  occ. eigenvalues --  -19.24910 -19.24518 -19.24490 -14.50501 -14.50150
 Alpha  occ. eigenvalues --  -10.42718 -10.42523 -10.42519 -10.42207 -10.35658
 Alpha  occ. eigenvalues --  -10.35495 -10.35421 -10.34655 -10.34432 -10.34278
 Alpha  occ. eigenvalues --  -10.33996 -10.33793 -10.33647 -10.33610 -10.33430
 Alpha  occ. eigenvalues --  -10.33347 -10.33085 -10.32756 -10.32567 -10.32561
 Alpha  occ. eigenvalues --  -10.32476 -10.32160 -10.32125 -10.32002 -10.30035
 Alpha  occ. eigenvalues --  -10.29837  -8.09146  -8.08848  -6.03993  -6.03690
 Alpha  occ. eigenvalues --   -6.03596  -6.03294  -6.03221  -6.02936  -1.19409
 Alpha  occ. eigenvalues --   -1.19199  -1.18984  -1.18755  -1.17499  -1.17195
 Alpha  occ. eigenvalues --   -1.06660  -1.06276  -1.03046  -1.00799  -0.99122
 Alpha  occ. eigenvalues --   -0.97071  -0.94569  -0.90555  -0.88566  -0.87533
 Alpha  occ. eigenvalues --   -0.86146  -0.85203  -0.84964  -0.82894  -0.82272
 Alpha  occ. eigenvalues --   -0.81521  -0.79701  -0.78386  -0.76836  -0.75444
 Alpha  occ. eigenvalues --   -0.75167  -0.74185  -0.70313  -0.69001  -0.67955
 Alpha  occ. eigenvalues --   -0.66553  -0.65831  -0.65300  -0.64551  -0.63796
 Alpha  occ. eigenvalues --   -0.62420  -0.60653  -0.59710  -0.59212  -0.58747
 Alpha  occ. eigenvalues --   -0.58321  -0.57677  -0.57529  -0.57295  -0.57127
 Alpha  occ. eigenvalues --   -0.56684  -0.55778  -0.55440  -0.55141  -0.54469
 Alpha  occ. eigenvalues --   -0.53911  -0.53630  -0.53403  -0.53134  -0.52029
 Alpha  occ. eigenvalues --   -0.51645  -0.51128  -0.50935  -0.50650  -0.50386
 Alpha  occ. eigenvalues --   -0.50163  -0.49510  -0.49467  -0.48878  -0.48431
 Alpha  occ. eigenvalues --   -0.47993  -0.47757  -0.46981  -0.45877  -0.45525
 Alpha  occ. eigenvalues --   -0.44476  -0.44212  -0.42525  -0.41954  -0.41362
 Alpha  occ. eigenvalues --   -0.41289  -0.40102  -0.39594  -0.38550  -0.37744
 Alpha  occ. eigenvalues --   -0.37271  -0.37044  -0.36823  -0.36342  -0.34568
 Alpha  occ. eigenvalues --   -0.33114  -0.31867  -0.31677  -0.25684
 Alpha virt. eigenvalues --   -0.07172  -0.00983   0.00540   0.02474   0.03530
 Alpha virt. eigenvalues --    0.05179   0.05698   0.06025   0.06734   0.07045
 Alpha virt. eigenvalues --    0.07194   0.07403   0.07795   0.07962   0.08055

 Mulliken charges:
               1
     1  C    0.384505
     2  C   -0.130941
     3  C    0.142994
     4  C    0.185997
     5  C    0.362488
     6  C   -0.191647
     7  C    0.145354
     8  C    0.534823
     9  C    0.271047
    10  C   -0.772503
    11  C    0.299804
    12  C    0.079994
    13  C   -0.537513
    14  C   -0.669973
    15  H    0.186953
    16  H    0.187901
    17  H    0.196381
    18  N    0.035045
    19  N   -0.089232
    20  O   -0.268935
    21  O   -0.266023
    22  O   -0.277959
    23  O   -0.212511
    24  C   -0.253046
    25  H    0.200956
    26  H    0.181702
    27  H    0.200815
    28  C   -0.284708
    29  H    0.193644
    30  H    0.192574
    31  H    0.199765
    32  C    0.067940
    33  C   -0.467299
    34  S   -0.725820
    35  C   -0.148954
    36  H    0.156487
    37  C    0.677104
    38  O   -0.106463
    39  C    0.935780
    40  C   -0.315120
    41  C    0.029579
    42  S   -0.272710
    43  H    0.182604
    44  H    0.156694
    45  H    0.179054
    46  C   -0.656766
    47  O   -0.110070
    48  C   -0.347880
    49  H    0.157299
    50  C   -0.308071
    51  H    0.187849
    52  H    0.157528
    53  H    0.184234
    54  H    0.159251
 Sum of Mulliken charges =  -0.00000

 Dipole moment (field-independent basis, Debye):
    X=             -3.2492    Y=             -0.3360    Z=              0.2968  Tot=              3.2800
 Quadrupole moment (field-independent basis, Debye-Ang):
   XX=           -214.1549   YY=           -206.6450   ZZ=           -220.2531
   XY=              4.4521   XZ=              1.3975   YZ=             10.4757

 Normal termination of Gaussian 16 at Thu Nov 26 23:48:59 2020.
