 Gaussian 16, Revision C.01,
 Gaussian 16:  ES64L-G16RevC.01  3-Jul-2019

 --------------------------------------
 # opt=modredundant wb97xd/6-311+g(d,p)
 --------------------------------------

 ----------
 NDI_15.pdb
 ----------
 Symbolic Z-matrix:
 Charge =  0 Multiplicity = 1

 SCF Done:  E(RwB97XD) =  -2358.75257075     A.U. after   19 cycles
 SCF Done:  E(RwB97XD) =  -2358.74901016     A.U. after   20 cycles
 SCF Done:  E(RwB97XD) =  -2358.76607287     A.U. after   17 cycles
 SCF Done:  E(RwB97XD) =  -2358.76841600     A.U. after   17 cycles
 SCF Done:  E(RwB97XD) =  -2358.76889474     A.U. after   16 cycles
 SCF Done:  E(RwB97XD) =  -2358.76904141     A.U. after   15 cycles
 SCF Done:  E(RwB97XD) =  -2358.76916318     A.U. after   13 cycles
 SCF Done:  E(RwB97XD) =  -2358.76922164     A.U. after   14 cycles
 SCF Done:  E(RwB97XD) =  -2358.76925913     A.U. after   13 cycles
 SCF Done:  E(RwB97XD) =  -2358.76929263     A.U. after   14 cycles
 SCF Done:  E(RwB97XD) =  -2358.77138528     A.U. after   13 cycles
 SCF Done:  E(RwB97XD) =  -2358.77139096     A.U. after   14 cycles
 SCF Done:  E(RwB97XD) =  -2358.77140059     A.U. after   14 cycles
 SCF Done:  E(RwB97XD) =  -2358.77140403     A.U. after   14 cycles
 SCF Done:  E(RwB97XD) =  -2358.77140675     A.U. after   13 cycles
 SCF Done:  E(RwB97XD) =  -2358.77140781     A.U. after   12 cycles
 SCF Done:  E(RwB97XD) =  -2358.77140787     A.U. after    9 cycles
 SCF Done:  E(RwB97XD) =  -2358.77140790     A.U. after    8 cycles
 SCF Done:  E(RwB97XD) =  -2358.77140792     A.U. after    8 cycles
 SCF Done:  E(RwB97XD) =  -2358.77140792     A.U. after    9 cycles
 Optimization completed.
    -- Stationary point found.

                         Standard orientation:
 ---------------------------------------------------------------------
 Center     Atomic      Atomic             Coordinates (Angstroms)
 Number     Number       Type             X           Y           Z
 ---------------------------------------------------------------------
      1          6           0       -2.579509   -3.019650    0.148008
      2          6           0       -2.256487   -1.571796    0.046375
      3          6           0       -3.288200   -0.611075    0.041905
      4          6           0       -4.634109   -1.004659    0.153878
      5          6           0       -4.988341   -2.446429    0.261205
      6          6           0       -0.953887   -1.176796    0.010098
      7          6           0       -2.941176    0.750595   -0.077712
      8          6           0       -1.577035    1.149154   -0.194245
      9          6           0       -0.556561    0.190836   -0.087400
     10          6           0       -1.334545    2.566515   -0.588871
     11          6           0       -3.706630    3.145684   -0.155906
     12          6           0       -3.992324    1.695934   -0.053735
     13          6           0       -5.305152    1.296254    0.074836
     14          6           0       -5.635403   -0.060291    0.171996
     15          1           0       -6.665136   -0.381910    0.264381
     16          1           0       -6.073997    2.058762    0.099516
     17          1           0       -0.201925   -1.953193    0.085137
     18          7           0       -2.381451    3.480314   -0.408719
     19          7           0       -3.928030   -3.358117    0.244188
     20          8           0       -1.727935   -3.879679    0.148734
     21          8           0       -6.135875   -2.817245    0.356393
     22          8           0       -4.570191    3.989279   -0.054463
     23          8           0       -0.300332    2.967952   -1.074180
     24          6           0       -2.067213    4.880790   -0.686311
     25          1           0       -1.160846    5.161276   -0.151857
     26          1           0       -1.899459    5.027676   -1.754404
     27          1           0       -2.908834    5.482358   -0.355706
     28          6           0       -4.230026   -4.785416    0.342180
     29          1           0       -3.844036   -5.303908   -0.535565
     30          1           0       -3.753981   -5.202952    1.229629
     31          1           0       -5.308460   -4.896032    0.404171
     32          6           0        0.874549    0.443302    0.088468
     33          6           0        1.540872    1.584417    0.459266
     34         16           0        2.009589   -0.835962   -0.244630
     35          6           0        2.937913    1.422199    0.499272
     36          1           0        1.046484    2.508610    0.703124
     37          6           0        3.370964    0.159699    0.135028
     38          8           0        3.842410    2.365694    0.845764
     39          6           0        4.733099   -0.313471    0.059904
     40          6           0        3.362324    3.678404    1.060923
     41          6           0        5.157925   -1.578533   -0.292291
     42         16           0        6.110572    0.692865    0.415306
     43          1           0        4.240399    4.294568    1.245394
     44          1           0        2.829185    4.051469    0.180123
     45          1           0        2.702881    3.718587    1.934886
     46          6           0        6.570568   -1.737233   -0.276920
     47          8           0        4.247655   -2.524259   -0.610882
     48          6           0        7.200899   -0.585965    0.087998
     49          1           0        7.091126   -2.651643   -0.521975
     50          6           0        4.724059   -3.810419   -0.952854
     51          1           0        8.263828   -0.422999    0.182919
     52          1           0        5.278554   -4.259312   -0.121933
     53          1           0        3.842356   -4.412112   -1.165052
     54          1           0        5.360355   -3.771302   -1.843394
 ---------------------------------------------------------------------

 The electronic state is 1-A.
 Alpha  occ. eigenvalues --  -89.05166 -89.04937 -19.29362 -19.29092 -19.24901
 Alpha  occ. eigenvalues --  -19.24879 -19.24546 -19.24433 -14.50463 -14.50120
 Alpha  occ. eigenvalues --  -10.42674 -10.42524 -10.42484 -10.42138 -10.35798
 Alpha  occ. eigenvalues --  -10.35564 -10.35541 -10.34714 -10.34457 -10.34227
 Alpha  occ. eigenvalues --  -10.33939 -10.33691 -10.33576 -10.33532 -10.33518
 Alpha  occ. eigenvalues --  -10.33344 -10.33236 -10.32727 -10.32674 -10.32476
 Alpha  occ. eigenvalues --  -10.32383 -10.32136 -10.32131 -10.32127 -10.30045
 Alpha  occ. eigenvalues --  -10.29937  -8.09203  -8.08957  -6.04050  -6.03800
 Alpha  occ. eigenvalues --   -6.03651  -6.03404  -6.03278  -6.03046  -1.19371
 Alpha  occ. eigenvalues --   -1.19197  -1.19093  -1.18829  -1.17461  -1.17171
 Alpha  occ. eigenvalues --   -1.06623  -1.06264  -1.02983  -1.00869  -0.99193
 Alpha  occ. eigenvalues --   -0.97038  -0.94511  -0.90563  -0.88521  -0.87600
 Alpha  occ. eigenvalues --   -0.86206  -0.85178  -0.85041  -0.82953  -0.82266
 Alpha  occ. eigenvalues --   -0.81530  -0.79756  -0.78403  -0.76820  -0.75402
 Alpha  occ. eigenvalues --   -0.75164  -0.74151  -0.70342  -0.69059  -0.67988
 Alpha  occ. eigenvalues --   -0.66521  -0.65864  -0.65397  -0.64539  -0.63893
 Alpha  occ. eigenvalues --   -0.62378  -0.60626  -0.59702  -0.59216  -0.58714
 Alpha  occ. eigenvalues --   -0.58356  -0.57674  -0.57591  -0.57287  -0.57176
 Alpha  occ. eigenvalues --   -0.56732  -0.55769  -0.55418  -0.55112  -0.54518
 Alpha  occ. eigenvalues --   -0.53861  -0.53701  -0.53407  -0.53088  -0.51874
 Alpha  occ. eigenvalues --   -0.51693  -0.51158  -0.50930  -0.50690  -0.50446
 Alpha  occ. eigenvalues --   -0.50178  -0.49511  -0.49469  -0.48882  -0.48452
 Alpha  occ. eigenvalues --   -0.47949  -0.47809  -0.46959  -0.45971  -0.45442
 Alpha  occ. eigenvalues --   -0.44628  -0.44247  -0.42561  -0.41979  -0.41470
 Alpha  occ. eigenvalues --   -0.41264  -0.40052  -0.39571  -0.38534  -0.37793
 Alpha  occ. eigenvalues --   -0.37233  -0.37051  -0.36762  -0.36375  -0.34548
 Alpha  occ. eigenvalues --   -0.33120  -0.31937  -0.31731  -0.25722
 Alpha virt. eigenvalues --   -0.07146  -0.01193   0.00576   0.02538   0.03598
 Alpha virt. eigenvalues --    0.05222   0.05678   0.06032   0.06720   0.07081
 Alpha virt. eigenvalues --    0.07141   0.07356   0.07836   0.08053   0.08131

 Mulliken charges:
               1
     1  C    0.369587
     2  C   -0.100845
     3  C    0.159201
     4  C    0.185543
     5  C    0.369785
     6  C    0.001150
     7  C    0.151473
     8  C    0.550516
     9  C    0.187528
    10  C   -0.929852
    11  C    0.299897
    12  C    0.091060
    13  C   -0.543350
    14  C   -0.655938
    15  H    0.186568
    16  H    0.187862
    17  H    0.190703
    18  N    0.052692
    19  N   -0.088556
    20  O   -0.270405
    21  O   -0.265400
    22  O   -0.279140
    23  O   -0.231831
    24  C   -0.248570
    25  H    0.180554
    26  H    0.201520
    27  H    0.201106
    28  C   -0.285141
    29  H    0.192390
    30  H    0.193514
    31  H    0.199718
    32  C   -0.042821
    33  C   -0.330399
    34  S   -0.749264
    35  C   -0.285750
    36  H    0.160570
    37  C    0.684111
    38  O   -0.104973
    39  C    1.002770
    40  C   -0.315970
    41  C    0.048589
    42  S   -0.253029
    43  H    0.183280
    44  H    0.179284
    45  H    0.156861
    46  C   -0.654157
    47  O   -0.109777
    48  C   -0.362152
    49  H    0.157717
    50  C   -0.309447
    51  H    0.188662
    52  H    0.159379
    53  H    0.185649
    54  H    0.157529
 Sum of Mulliken charges =  -0.00000

 Dipole moment (field-independent basis, Debye):
    X=              3.5523    Y=             -0.3925    Z=              0.3523  Tot=              3.5912
 Quadrupole moment (field-independent basis, Debye-Ang):
   XX=           -213.5997   YY=           -204.9636   ZZ=           -222.0455
   XY=             -4.8429   XZ=              0.2514   YZ=              8.0108

 Normal termination of Gaussian 16 at Fri Nov 27 06:05:19 2020.
