 Gaussian 16, Revision C.01,
 Gaussian 16:  ES64L-G16RevC.01  3-Jul-2019

 --------------------------------------
 # opt=modredundant wb97xd/6-311+g(d,p)
 --------------------------------------

 ------------
 NDI_-115.pdb
 ------------
 Symbolic Z-matrix:
 Charge =  0 Multiplicity = 1

 SCF Done:  E(RwB97XD) =  -2358.76308972     A.U. after   20 cycles
 SCF Done:  E(RwB97XD) =  -2358.77171085     A.U. after   19 cycles
 SCF Done:  E(RwB97XD) =  -2358.77286425     A.U. after   17 cycles
 SCF Done:  E(RwB97XD) =  -2358.77300084     A.U. after   16 cycles
 SCF Done:  E(RwB97XD) =  -2358.77352038     A.U. after   16 cycles
 SCF Done:  E(RwB97XD) =  -2358.77366445     A.U. after   15 cycles
 SCF Done:  E(RwB97XD) =  -2358.77374137     A.U. after   15 cycles
 SCF Done:  E(RwB97XD) =  -2358.77376755     A.U. after   13 cycles
 SCF Done:  E(RwB97XD) =  -2358.77379194     A.U. after   14 cycles
 SCF Done:  E(RwB97XD) =  -2358.77380233     A.U. after   13 cycles
 SCF Done:  E(RwB97XD) =  -2358.77379935     A.U. after   13 cycles
 SCF Done:  E(RwB97XD) =  -2358.77381389     A.U. after   13 cycles
 SCF Done:  E(RwB97XD) =  -2358.77381390     A.U. after    9 cycles
 SCF Done:  E(RwB97XD) =  -2358.77381387     A.U. after   10 cycles
 SCF Done:  E(RwB97XD) =  -2358.77381387     A.U. after    8 cycles
 SCF Done:  E(RwB97XD) =  -2358.77381390     A.U. after    9 cycles
 SCF Done:  E(RwB97XD) =  -2358.77381393     A.U. after    9 cycles
 SCF Done:  E(RwB97XD) =  -2358.77381396     A.U. after    9 cycles
 SCF Done:  E(RwB97XD) =  -2358.77381399     A.U. after    9 cycles
 SCF Done:  E(RwB97XD) =  -2358.77381401     A.U. after    8 cycles
 Optimization completed.
    -- Stationary point found.

                         Standard orientation:
 ---------------------------------------------------------------------
 Center     Atomic      Atomic             Coordinates (Angstroms)
 Number     Number       Type             X           Y           Z
 ---------------------------------------------------------------------
      1          6           0       -3.481008   -2.721502    0.392640
      2          6           0       -2.737460   -1.464576    0.114572
      3          6           0       -3.415611   -0.229216    0.102928
      4          6           0       -4.798494   -0.163332    0.369906
      5          6           0       -5.566333   -1.405221    0.660175
      6          6           0       -1.386805   -1.507117   -0.104855
      7          6           0       -2.693431    0.948581   -0.180867
      8          6           0       -1.303170    0.883257   -0.454812
      9          6           0       -0.639775   -0.334376   -0.377721
     10          6           0       -0.614880    2.129010   -0.909614
     11          6           0       -2.661299    3.452077   -0.439870
     12          6           0       -3.383471    2.181452   -0.169503
     13          6           0       -4.731427    2.227068    0.101941
     14          6           0       -5.446608    1.049229    0.369097
     15          1           0       -6.508564    1.078179    0.579737
     16          1           0       -5.226480    3.190415    0.108214
     17          1           0       -0.872182   -2.459236   -0.054000
     18          7           0       -1.312903    3.334811   -0.760572
     19          7           0       -4.846980   -2.603879    0.649816
     20          8           0       -2.945712   -3.806452    0.399889
     21          8           0       -6.753291   -1.382785    0.892218
     22          8           0       -3.214669    4.528074   -0.395179
     23          8           0        0.486734    2.138177   -1.402484
     24          6           0       -0.580513    4.548470   -1.120552
     25          1           0        0.404850    4.520669   -0.659041
     26          1           0       -0.456548    4.610019   -2.203143
     27          1           0       -1.150256    5.402286   -0.765776
     28          6           0       -5.559656   -3.850878    0.925657
     29          1           0       -5.479225   -4.518897    0.067893
     30          1           0       -5.116994   -4.342961    1.791683
     31          1           0       -6.600001   -3.607379    1.118801
     32          6           0        0.818006   -0.503367   -0.526958
     33          6           0        1.468588   -1.174329   -1.519000
     34         16           0        1.903020    0.084075    0.675780
     35          6           0        2.875241   -1.182894   -1.323334
     36          1           0        0.959481   -1.612119   -2.366135
     37          6           0        3.285979   -0.545045   -0.173947
     38          8           0        3.791768   -1.752987   -2.140695
     39          6           0        4.639257   -0.401346    0.320373
     40          6           0        3.323914   -2.349616   -3.331689
     41          6           0        5.044178    0.230838    1.475617
     42         16           0        6.027748   -1.033500   -0.520011
     43          1           0        4.205227   -2.724733   -3.848944
     44          1           0        2.647867   -3.185031   -3.118050
     45          1           0        2.814510   -1.617122   -3.967372
     46          6           0        6.451034    0.210172    1.684139
     47          8           0        4.120595    0.796205    2.290141
     48          6           0        7.099009   -0.441593    0.679249
     49          1           0        6.955331    0.653117    2.530894
     50          6           0        4.585664    1.454573    3.448872
     51          1           0        8.161231   -0.606091    0.580636
     52          1           0        5.250867    2.286347    3.192139
     53          1           0        3.701955    1.842726    3.952460
     54          1           0        5.106842    0.760289    4.117202
 ---------------------------------------------------------------------

 The electronic state is 1-A.
 Alpha  occ. eigenvalues --  -89.04438 -89.04164 -19.28619 -19.28583 -19.25223
 Alpha  occ. eigenvalues --  -19.25175 -19.24831 -19.24827 -14.50771 -14.50364
 Alpha  occ. eigenvalues --  -10.43021 -10.42802 -10.42640 -10.42594 -10.35139
 Alpha  occ. eigenvalues --  -10.34946 -10.34819 -10.34599 -10.34526 -10.34390
 Alpha  occ. eigenvalues --  -10.34289 -10.34217 -10.34078 -10.34020 -10.34000
 Alpha  occ. eigenvalues --  -10.33125 -10.33106 -10.33040 -10.32785 -10.32367
 Alpha  occ. eigenvalues --  -10.32171 -10.32082 -10.31920 -10.31254 -10.29573
 Alpha  occ. eigenvalues --  -10.29228  -8.08456  -8.08186  -6.03314  -6.03029
 Alpha  occ. eigenvalues --   -6.02915  -6.02633  -6.02515  -6.02275  -1.19680
 Alpha  occ. eigenvalues --   -1.19432  -1.18337  -1.18256  -1.17778  -1.17497
 Alpha  occ. eigenvalues --   -1.06937  -1.06539  -1.03480  -1.00273  -0.98679
 Alpha  occ. eigenvalues --   -0.97207  -0.94970  -0.90549  -0.88909  -0.87119
 Alpha  occ. eigenvalues --   -0.85751  -0.85405  -0.84330  -0.82682  -0.82342
 Alpha  occ. eigenvalues --   -0.81267  -0.79468  -0.78207  -0.77019  -0.75756
 Alpha  occ. eigenvalues --   -0.75262  -0.74444  -0.70110  -0.68720  -0.67788
 Alpha  occ. eigenvalues --   -0.66823  -0.65723  -0.64665  -0.64429  -0.63211
 Alpha  occ. eigenvalues --   -0.62905  -0.60879  -0.59897  -0.59289  -0.59041
 Alpha  occ. eigenvalues --   -0.57989  -0.57823  -0.57424  -0.57090  -0.56748
 Alpha  occ. eigenvalues --   -0.56338  -0.56219  -0.55592  -0.55398  -0.54199
 Alpha  occ. eigenvalues --   -0.53995  -0.53789  -0.53388  -0.53159  -0.52505
 Alpha  occ. eigenvalues --   -0.51694  -0.51274  -0.51089  -0.50387  -0.50127
 Alpha  occ. eigenvalues --   -0.49805  -0.49603  -0.49304  -0.48927  -0.48461
 Alpha  occ. eigenvalues --   -0.48315  -0.47147  -0.46667  -0.45840  -0.45153
 Alpha  occ. eigenvalues --   -0.44229  -0.43676  -0.42080  -0.41360  -0.41106
 Alpha  occ. eigenvalues --   -0.40954  -0.40445  -0.39784  -0.38657  -0.37611
 Alpha  occ. eigenvalues --   -0.37500  -0.37027  -0.36894  -0.36054  -0.35023
 Alpha  occ. eigenvalues --   -0.33425  -0.31547  -0.31208  -0.25388
 Alpha virt. eigenvalues --   -0.07249  -0.00069   0.00528   0.02222   0.02882
 Alpha virt. eigenvalues --    0.05067   0.05899   0.06204   0.06598   0.06883
 Alpha virt. eigenvalues --    0.07203   0.07463   0.07549   0.07723   0.07956

 Mulliken charges:
               1
     1  C    0.480359
     2  C   -0.014993
     3  C    0.139103
     4  C    0.161958
     5  C    0.374206
     6  C   -0.583491
     7  C    0.116759
     8  C   -0.022193
     9  C    0.225358
    10  C   -0.367789
    11  C    0.328033
    12  C    0.119683
    13  C   -0.501689
    14  C   -0.707617
    15  H    0.188647
    16  H    0.189212
    17  H    0.194943
    18  N   -0.008595
    19  N   -0.094334
    20  O   -0.259711
    21  O   -0.269454
    22  O   -0.273884
    23  O   -0.145503
    24  C   -0.269367
    25  H    0.195566
    26  H    0.200742
    27  H    0.198864
    28  C   -0.283904
    29  H    0.193835
    30  H    0.194171
    31  H    0.200947
    32  C    0.410238
    33  C   -0.446851
    34  S   -0.371814
    35  C   -0.119405
    36  H    0.148916
    37  C    0.303541
    38  O   -0.110263
    39  C    0.876492
    40  C   -0.290302
    41  C    0.050864
    42  S   -0.299187
    43  H    0.181913
    44  H    0.159183
    45  H    0.165998
    46  C   -0.587596
    47  O   -0.122589
    48  C   -0.376223
    49  H    0.154400
    50  C   -0.302327
    51  H    0.184232
    52  H    0.157470
    53  H    0.177948
    54  H    0.155497
 Sum of Mulliken charges =  -0.00000

 Dipole moment (field-independent basis, Debye):
    X=              1.4214    Y=              0.0819    Z=              0.2103  Tot=              1.4392
 Quadrupole moment (field-independent basis, Debye-Ang):
   XX=           -216.0672   YY=           -226.0682   ZZ=           -202.1451
   XY=              6.9528   XZ=              9.8364   YZ=             12.1743

 Normal termination of Gaussian 16 at Thu Nov 26 23:13:07 2020.
