 Gaussian 16, Revision C.01,
 Gaussian 16:  ES64L-G16RevC.01  3-Jul-2019

 --------------------------------------
 # opt=modredundant wb97xd/6-311+g(d,p)
 --------------------------------------

 ------------
 NDI_-145.pdb
 ------------
 Symbolic Z-matrix:
 Charge =  0 Multiplicity = 1

 SCF Done:  E(RwB97XD) =  -2358.75000205     A.U. after   19 cycles
 SCF Done:  E(RwB97XD) =  -2358.75719216     A.U. after   20 cycles
 SCF Done:  E(RwB97XD) =  -2358.76624384     A.U. after   18 cycles
 SCF Done:  E(RwB97XD) =  -2358.76930623     A.U. after   16 cycles
 SCF Done:  E(RwB97XD) =  -2358.76991356     A.U. after   15 cycles
 SCF Done:  E(RwB97XD) =  -2358.77034956     A.U. after   15 cycles
 SCF Done:  E(RwB97XD) =  -2358.77051381     A.U. after   15 cycles
 SCF Done:  E(RwB97XD) =  -2358.77060802     A.U. after   16 cycles
 SCF Done:  E(RwB97XD) =  -2358.77070126     A.U. after   14 cycles
 SCF Done:  E(RwB97XD) =  -2358.77082498     A.U. after   16 cycles
 SCF Done:  E(RwB97XD) =  -2358.77303973     A.U. after   12 cycles
 SCF Done:  E(RwB97XD) =  -2358.77305208     A.U. after   14 cycles
 SCF Done:  E(RwB97XD) =  -2358.77305903     A.U. after   13 cycles
 SCF Done:  E(RwB97XD) =  -2358.77306220     A.U. after   14 cycles
 SCF Done:  E(RwB97XD) =  -2358.77307011     A.U. after   14 cycles
 SCF Done:  E(RwB97XD) =  -2358.77307867     A.U. after   13 cycles
 SCF Done:  E(RwB97XD) =  -2358.77308278     A.U. after   13 cycles
 SCF Done:  E(RwB97XD) =  -2358.77308333     A.U. after   12 cycles
 SCF Done:  E(RwB97XD) =  -2358.77308340     A.U. after   10 cycles
 SCF Done:  E(RwB97XD) =  -2358.77308345     A.U. after    8 cycles
 Optimization completed.
    -- Stationary point found.

                         Standard orientation:
 ---------------------------------------------------------------------
 Center     Atomic      Atomic             Coordinates (Angstroms)
 Number     Number       Type             X           Y           Z
 ---------------------------------------------------------------------
      1          6           0       -3.529489   -2.672891    0.393632
      2          6           0       -2.762505   -1.437284    0.086857
      3          6           0       -3.406227   -0.182743    0.102273
      4          6           0       -4.772694   -0.076533    0.426150
      5          6           0       -5.563353   -1.296418    0.745261
      6          6           0       -1.421522   -1.517196   -0.163824
      7          6           0       -2.658896    0.970483   -0.212625
      8          6           0       -1.282330    0.864358   -0.542116
      9          6           0       -0.639761   -0.368825   -0.462244
     10          6           0       -0.618781    2.073099   -1.111780
     11          6           0       -2.562812    3.470645   -0.474598
     12          6           0       -3.310625    2.223419   -0.171301
     13          6           0       -4.643855    2.310236    0.160817
     14          6           0       -5.383819    1.155875    0.456016
     15          1           0       -6.434326    1.217059    0.711864
     16          1           0       -5.106663    3.289061    0.191420
     17          1           0       -0.939028   -2.484805   -0.098845
     18          7           0       -1.247835    3.306780   -0.896112
     19          7           0       -4.880418   -2.516578    0.701373
     20          8           0       -3.025112   -3.773156    0.381113
     21          8           0       -6.738453   -1.241682    1.026790
     22          8           0       -3.069592    4.566858   -0.383149
     23          8           0        0.400230    2.029720   -1.758270
     24          6           0       -0.517167    4.492729   -1.340186
     25          1           0        0.526741    4.394607   -1.049463
     26          1           0       -0.569662    4.590281   -2.426299
     27          1           0       -0.970966    5.362146   -0.873010
     28          6           0       -5.618464   -3.742723    1.002208
     29          1           0       -5.578531   -4.415844    0.145678
     30          1           0       -5.166863   -4.243413    1.858780
     31          1           0       -6.646282   -3.470209    1.221910
     32          6           0        0.809148   -0.584262   -0.552499
     33          6           0        1.426631   -1.663752   -1.129037
     34         16           0        1.931757    0.379594    0.334928
     35          6           0        2.821515   -1.678834   -0.897112
     36          1           0        0.897024   -2.397357   -1.721099
     37          6           0        3.266332   -0.640518   -0.103259
     38          8           0        3.704182   -2.591561   -1.365840
     39          6           0        4.621427   -0.384782    0.332446
     40          6           0        3.195989   -3.644357   -2.158191
     41          6           0        5.058307    0.644574    1.139204
     42         16           0        5.971409   -1.387326   -0.123105
     43          1           0        4.051952   -4.259618   -2.429313
     44          1           0        2.477198   -4.251498   -1.596776
     45          1           0        2.722429   -3.260985   -3.068661
     46          6           0        6.458770    0.631034    1.385836
     47          8           0        4.168599    1.545167    1.617194
     48          6           0        7.068775   -0.414695    0.761844
     49          1           0        6.985402    1.354131    1.991749
     50          6           0        4.669318    2.613223    2.393862
     51          1           0        8.118301   -0.666602    0.777937
     52          1           0        5.382141    3.217475    1.822402
     53          1           0        3.808548    3.224866    2.658304
     54          1           0        5.147376    2.247053    3.308927
 ---------------------------------------------------------------------

 The electronic state is 1-A.
 Alpha  occ. eigenvalues --  -89.04747 -89.04579 -19.29047 -19.28934 -19.25073
 Alpha  occ. eigenvalues --  -19.25059 -19.24574 -19.24559 -14.50633 -14.50098
 Alpha  occ. eigenvalues --  -10.42858 -10.42677 -10.42401 -10.42298 -10.35339
 Alpha  occ. eigenvalues --  -10.35338 -10.35169 -10.34600 -10.34482 -10.34323
 Alpha  occ. eigenvalues --  -10.34061 -10.34032 -10.33817 -10.33794 -10.33665
 Alpha  occ. eigenvalues --  -10.33099 -10.32980 -10.32872 -10.32797 -10.32739
 Alpha  occ. eigenvalues --  -10.32329 -10.32263 -10.31984 -10.31716 -10.30101
 Alpha  occ. eigenvalues --  -10.29615  -8.08773  -8.08601  -6.03628  -6.03444
 Alpha  occ. eigenvalues --   -6.03228  -6.03048  -6.02835  -6.02690  -1.19535
 Alpha  occ. eigenvalues --   -1.19180  -1.18762  -1.18646  -1.17634  -1.17224
 Alpha  occ. eigenvalues --   -1.06780  -1.06317  -1.03236  -1.00617  -0.98967
 Alpha  occ. eigenvalues --   -0.97164  -0.94726  -0.90596  -0.88691  -0.87356
 Alpha  occ. eigenvalues --   -0.86064  -0.85252  -0.84753  -0.82809  -0.82426
 Alpha  occ. eigenvalues --   -0.81153  -0.79797  -0.78367  -0.76850  -0.75551
 Alpha  occ. eigenvalues --   -0.75118  -0.74382  -0.70135  -0.68966  -0.67936
 Alpha  occ. eigenvalues --   -0.66673  -0.65864  -0.65054  -0.64199  -0.63620
 Alpha  occ. eigenvalues --   -0.62886  -0.60700  -0.59730  -0.59111  -0.58917
 Alpha  occ. eigenvalues --   -0.58242  -0.57698  -0.57427  -0.57313  -0.57067
 Alpha  occ. eigenvalues --   -0.56584  -0.55958  -0.55435  -0.55327  -0.54249
 Alpha  occ. eigenvalues --   -0.53883  -0.53820  -0.53472  -0.53137  -0.52471
 Alpha  occ. eigenvalues --   -0.51594  -0.51174  -0.50832  -0.50426  -0.50260
 Alpha  occ. eigenvalues --   -0.50127  -0.49641  -0.49444  -0.48938  -0.48421
 Alpha  occ. eigenvalues --   -0.48115  -0.47565  -0.46650  -0.45853  -0.45456
 Alpha  occ. eigenvalues --   -0.44487  -0.44073  -0.42347  -0.41719  -0.41365
 Alpha  occ. eigenvalues --   -0.41261  -0.40159  -0.39641  -0.38517  -0.37623
 Alpha  occ. eigenvalues --   -0.37356  -0.37053  -0.36683  -0.36328  -0.34820
 Alpha  occ. eigenvalues --   -0.33157  -0.31837  -0.31446  -0.25605
 Alpha virt. eigenvalues --   -0.07141  -0.00546   0.00505   0.02326   0.03362
 Alpha virt. eigenvalues --    0.05147   0.05769   0.06021   0.06657   0.06789
 Alpha virt. eigenvalues --    0.07100   0.07532   0.07674   0.07733   0.07917

 Mulliken charges:
               1
     1  C    0.467238
     2  C   -0.108629
     3  C    0.083666
     4  C    0.212264
     5  C    0.363960
     6  C   -0.340844
     7  C    0.074024
     8  C    0.164978
     9  C    0.312767
    10  C   -0.532968
    11  C    0.362483
    12  C    0.044996
    13  C   -0.524145
    14  C   -0.657300
    15  H    0.187691
    16  H    0.188206
    17  H    0.189865
    18  N    0.066482
    19  N   -0.095839
    20  O   -0.266030
    21  O   -0.267760
    22  O   -0.278242
    23  O   -0.191096
    24  C   -0.275770
    25  H    0.194310
    26  H    0.201649
    27  H    0.197894
    28  C   -0.280047
    29  H    0.192526
    30  H    0.194063
    31  H    0.200726
    32  C    0.317311
    33  C   -0.694269
    34  S   -0.678262
    35  C   -0.021468
    36  H    0.162940
    37  C    0.595440
    38  O   -0.115385
    39  C    0.953162
    40  C   -0.293659
    41  C    0.035772
    42  S   -0.275799
    43  H    0.183734
    44  H    0.164476
    45  H    0.162225
    46  C   -0.641372
    47  O   -0.116954
    48  C   -0.348333
    49  H    0.155734
    50  C   -0.308786
    51  H    0.186444
    52  H    0.159946
    53  H    0.179901
    54  H    0.156087
 Sum of Mulliken charges =  -0.00000

 Dipole moment (field-independent basis, Debye):
    X=              2.5133    Y=             -0.2238    Z=              0.5632  Tot=              2.5853
 Quadrupole moment (field-independent basis, Debye-Ang):
   XX=           -212.6697   YY=           -215.3359   ZZ=           -214.8770
   XY=              9.3200   XZ=             10.1120   YZ=             13.3853

 Normal termination of Gaussian 16 at Fri Nov 27 06:45:06 2020.
