 Gaussian 16, Revision C.01,
 Gaussian 16:  ES64L-G16RevC.01  3-Jul-2019

 --------------------------------------
 # opt=modredundant wb97xd/6-311+g(d,p)
 --------------------------------------

 ------------
 NDI_-160.pdb
 ------------
 Symbolic Z-matrix:
 Charge =  0 Multiplicity = 1

 SCF Done:  E(RwB97XD) =  -2358.73475708     A.U. after   19 cycles
 SCF Done:  E(RwB97XD) =  -2358.75538475     A.U. after   20 cycles
 SCF Done:  E(RwB97XD) =  -2358.76613385     A.U. after   18 cycles
 SCF Done:  E(RwB97XD) =  -2358.76811749     A.U. after   16 cycles
 SCF Done:  E(RwB97XD) =  -2358.76892785     A.U. after   17 cycles
 SCF Done:  E(RwB97XD) =  -2358.76906091     A.U. after   16 cycles
 SCF Done:  E(RwB97XD) =  -2358.76914169     A.U. after   15 cycles
 SCF Done:  E(RwB97XD) =  -2358.76924270     A.U. after   12 cycles
 SCF Done:  E(RwB97XD) =  -2358.76935615     A.U. after   16 cycles
 SCF Done:  E(RwB97XD) =  -2358.76942525     A.U. after   16 cycles
 SCF Done:  E(RwB97XD) =  -2358.77117076     A.U. after   13 cycles
 SCF Done:  E(RwB97XD) =  -2358.77124472     A.U. after   13 cycles
 SCF Done:  E(RwB97XD) =  -2358.77125534     A.U. after   13 cycles
 SCF Done:  E(RwB97XD) =  -2358.77127145     A.U. after   15 cycles
 SCF Done:  E(RwB97XD) =  -2358.77127755     A.U. after   13 cycles
 SCF Done:  E(RwB97XD) =  -2358.77127787     A.U. after   13 cycles
 SCF Done:  E(RwB97XD) =  -2358.77128086     A.U. after   13 cycles
 SCF Done:  E(RwB97XD) =  -2358.77128151     A.U. after   12 cycles
 SCF Done:  E(RwB97XD) =  -2358.77128168     A.U. after   12 cycles
 SCF Done:  E(RwB97XD) =  -2358.77128173     A.U. after   10 cycles
 Optimization completed.
    -- Stationary point found.

                         Standard orientation:
 ---------------------------------------------------------------------
 Center     Atomic      Atomic             Coordinates (Angstroms)
 Number     Number       Type             X           Y           Z
 ---------------------------------------------------------------------
      1          6           0       -3.555379   -2.659152    0.271498
      2          6           0       -2.777905   -1.421051    0.004113
      3          6           0       -3.403779   -0.160376    0.087307
      4          6           0       -4.761286   -0.050298    0.442160
      5          6           0       -5.563708   -1.272825    0.718023
      6          6           0       -1.443181   -1.508433   -0.267834
      7          6           0       -2.641935    0.992739   -0.188747
      8          6           0       -1.272387    0.881535   -0.548983
      9          6           0       -0.640233   -0.363316   -0.532331
     10          6           0       -0.617422    2.104608   -1.094005
     11          6           0       -2.514721    3.501151   -0.332182
     12          6           0       -3.273910    2.251569   -0.074366
     13          6           0       -4.599215    2.342727    0.289197
     14          6           0       -5.352885    1.188319    0.543207
     15          1           0       -6.397146    1.253373    0.822352
     16          1           0       -5.044124    3.326443    0.376434
     17          1           0       -0.984977   -2.488591   -0.239606
     18          7           0       -1.216587    3.337143   -0.802020
     19          7           0       -4.899216   -2.499304    0.605621
     20          8           0       -3.065173   -3.764284    0.205744
     21          8           0       -6.732956   -1.215993    1.022504
     22          8           0       -2.998899    4.599493   -0.169443
     23          8           0        0.372715    2.076112   -1.786007
     24          6           0       -0.481815    4.529898   -1.219694
     25          1           0        0.568572    4.406914   -0.963449
     26          1           0       -0.563322    4.671356   -2.299148
     27          1           0       -0.909903    5.385588   -0.705251
     28          6           0       -5.649802   -3.727649    0.862972
     29          1           0       -5.620953   -4.367495   -0.019040
     30          1           0       -5.200701   -4.266256    1.697702
     31          1           0       -6.673418   -3.452174    1.098103
     32          6           0        0.805278   -0.604248   -0.609005
     33          6           0        1.395797   -1.791272   -0.976935
     34         16           0        1.960355    0.448963    0.127051
     35          6           0        2.780768   -1.822679   -0.713464
     36          1           0        0.855383   -2.598319   -1.451385
     37          6           0        3.254168   -0.683111   -0.091265
     38          8           0        3.633833   -2.832427   -1.004420
     39          6           0        4.612288   -0.406715    0.318362
     40          6           0        3.095768   -3.985900   -1.616696
     41          6           0        5.077459    0.724004    0.957300
     42         16           0        5.930658   -1.513640    0.048497
     43          1           0        3.930737   -4.668638   -1.762791
     44          1           0        2.346605   -4.462288   -0.974615
     45          1           0        2.649437   -3.746428   -2.588129
     46          6           0        6.474037    0.703546    1.223255
     47          8           0        4.216361    1.717588    1.272613
     48          6           0        7.052382   -0.448429    0.783007
     49          1           0        7.019891    1.496255    1.714111
     50          6           0        4.748276    2.883439    1.867296
     51          1           0        8.092098   -0.729505    0.855706
     52          1           0        5.484184    3.360749    1.211408
     53          1           0        3.906887    3.557641    2.016794
     54          1           0        5.208170    2.658913    2.835746
 ---------------------------------------------------------------------

 The electronic state is 1-A.
 Alpha  occ. eigenvalues --  -89.04859 -89.04783 -19.29248 -19.29079 -19.25004
 Alpha  occ. eigenvalues --  -19.24999 -19.24479 -19.24436 -14.50566 -14.50000
 Alpha  occ. eigenvalues --  -10.42776 -10.42614 -10.42302 -10.42165 -10.35600
 Alpha  occ. eigenvalues --  -10.35475 -10.35285 -10.34741 -10.34593 -10.34202
 Alpha  occ. eigenvalues --  -10.33866 -10.33837 -10.33681 -10.33656 -10.33496
 Alpha  occ. eigenvalues --  -10.33272 -10.33187 -10.32895 -10.32629 -10.32576
 Alpha  occ. eigenvalues --  -10.32525 -10.32214 -10.31954 -10.31952 -10.30343
 Alpha  occ. eigenvalues --  -10.29804  -8.08884  -8.08805  -6.03738  -6.03647
 Alpha  occ. eigenvalues --   -6.03333  -6.03251  -6.02951  -6.02893  -1.19464
 Alpha  occ. eigenvalues --   -1.19090  -1.18973  -1.18801  -1.17562  -1.17116
 Alpha  occ. eigenvalues --   -1.06706  -1.06228  -1.03109  -1.00762  -0.99106
 Alpha  occ. eigenvalues --   -0.97113  -0.94603  -0.90612  -0.88582  -0.87461
 Alpha  occ. eigenvalues --   -0.86203  -0.85189  -0.84934  -0.82943  -0.82384
 Alpha  occ. eigenvalues --   -0.81105  -0.79945  -0.78435  -0.76775  -0.75464
 Alpha  occ. eigenvalues --   -0.75059  -0.74350  -0.70161  -0.69083  -0.67999
 Alpha  occ. eigenvalues --   -0.66610  -0.65901  -0.65234  -0.64163  -0.63775
 Alpha  occ. eigenvalues --   -0.62869  -0.60612  -0.59652  -0.59046  -0.58901
 Alpha  occ. eigenvalues --   -0.58272  -0.57654  -0.57583  -0.57282  -0.57203
 Alpha  occ. eigenvalues --   -0.56701  -0.55864  -0.55403  -0.55258  -0.54271
 Alpha  occ. eigenvalues --   -0.53833  -0.53787  -0.53591  -0.53070  -0.52408
 Alpha  occ. eigenvalues --   -0.51558  -0.51181  -0.50764  -0.50503  -0.50406
 Alpha  occ. eigenvalues --   -0.50096  -0.49717  -0.49421  -0.48955  -0.48437
 Alpha  occ. eigenvalues --   -0.48045  -0.47711  -0.46670  -0.45843  -0.45477
 Alpha  occ. eigenvalues --   -0.44624  -0.44254  -0.42463  -0.41863  -0.41529
 Alpha  occ. eigenvalues --   -0.41291  -0.40017  -0.39569  -0.38451  -0.37729
 Alpha  occ. eigenvalues --   -0.37292  -0.37104  -0.36588  -0.36361  -0.34690
 Alpha  occ. eigenvalues --   -0.33090  -0.31943  -0.31516  -0.25693
 Alpha virt. eigenvalues --   -0.07100  -0.00886   0.00587   0.02412   0.03497
 Alpha virt. eigenvalues --    0.05143   0.05725   0.05940   0.06661   0.06860
 Alpha virt. eigenvalues --    0.07085   0.07461   0.07716   0.07775   0.08054

 Mulliken charges:
               1
     1  C    0.453765
     2  C   -0.070384
     3  C    0.099133
     4  C    0.235055
     5  C    0.351064
     6  C   -0.081395
     7  C    0.049870
     8  C    0.312288
     9  C    0.268677
    10  C   -0.685618
    11  C    0.385488
    12  C    0.047264
    13  C   -0.545185
    14  C   -0.662109
    15  H    0.187156
    16  H    0.187858
    17  H    0.180785
    18  N    0.101806
    19  N   -0.096672
    20  O   -0.269370
    21  O   -0.266615
    22  O   -0.279442
    23  O   -0.195731
    24  C   -0.282807
    25  H    0.193408
    26  H    0.201587
    27  H    0.198125
    28  C   -0.277983
    29  H    0.191971
    30  H    0.193775
    31  H    0.200419
    32  C    0.176607
    33  C   -0.732636
    34  S   -0.756750
    35  C   -0.162766
    36  H    0.159369
    37  C    0.698648
    38  O   -0.115342
    39  C    0.988545
    40  C   -0.296608
    41  C    0.001979
    42  S   -0.260914
    43  H    0.184790
    44  H    0.164531
    45  H    0.161767
    46  C   -0.609041
    47  O   -0.111673
    48  C   -0.347932
    49  H    0.156414
    50  C   -0.311087
    51  H    0.187548
    52  H    0.161476
    53  H    0.180390
    54  H    0.156507
 Sum of Mulliken charges =  -0.00000

 Dipole moment (field-independent basis, Debye):
    X=              3.0513    Y=             -0.3523    Z=              0.6860  Tot=              3.1472
 Quadrupole moment (field-independent basis, Debye-Ang):
   XX=           -210.8437   YY=           -211.9699   ZZ=           -219.3398
   XY=             10.1693   XZ=             10.2411   YZ=             10.7710

 Normal termination of Gaussian 16 at Thu Nov 26 19:01:13 2020.
