 Gaussian 16, Revision C.01,
 Gaussian 16:  ES64L-G16RevC.01  3-Jul-2019

 --------------------------------------
 # opt=modredundant wb97xd/6-311+g(d,p)
 --------------------------------------

 -----------
 NDI_170.pdb
 -----------
 Symbolic Z-matrix:
 Charge =  0 Multiplicity = 1

 SCF Done:  E(RwB97XD) =  -2358.72343897     A.U. after   20 cycles
 SCF Done:  E(RwB97XD) =  -2358.75283888     A.U. after   20 cycles
 SCF Done:  E(RwB97XD) =  -2358.76368951     A.U. after   18 cycles
 SCF Done:  E(RwB97XD) =  -2358.76631263     A.U. after   16 cycles
 SCF Done:  E(RwB97XD) =  -2358.76740722     A.U. after   17 cycles
 SCF Done:  E(RwB97XD) =  -2358.76754136     A.U. after   17 cycles
 SCF Done:  E(RwB97XD) =  -2358.76786702     A.U. after   15 cycles
 SCF Done:  E(RwB97XD) =  -2358.76804160     A.U. after   14 cycles
 SCF Done:  E(RwB97XD) =  -2358.76837602     A.U. after   18 cycles
 SCF Done:  E(RwB97XD) =  -2358.76894877     A.U. after   15 cycles
 SCF Done:  E(RwB97XD) =  -2358.76943896     A.U. after   15 cycles
 SCF Done:  E(RwB97XD) =  -2358.76945807     A.U. after   13 cycles
 SCF Done:  E(RwB97XD) =  -2358.76949292     A.U. after   15 cycles
 SCF Done:  E(RwB97XD) =  -2358.76951668     A.U. after   14 cycles
 SCF Done:  E(RwB97XD) =  -2358.76953825     A.U. after   13 cycles
 SCF Done:  E(RwB97XD) =  -2358.76954182     A.U. after   13 cycles
 SCF Done:  E(RwB97XD) =  -2358.76954377     A.U. after   13 cycles
 SCF Done:  E(RwB97XD) =  -2358.76954473     A.U. after   13 cycles
 SCF Done:  E(RwB97XD) =  -2358.76954500     A.U. after   12 cycles
 SCF Done:  E(RwB97XD) =  -2358.76954524     A.U. after   10 cycles
 Optimization completed.
    -- Stationary point found.

                         Standard orientation:
 ---------------------------------------------------------------------
 Center     Atomic      Atomic             Coordinates (Angstroms)
 Number     Number       Type             X           Y           Z
 ---------------------------------------------------------------------
      1          6           0       -3.587623   -2.641001   -0.162270
      2          6           0       -2.798440   -1.401234    0.059004
      3          6           0       -3.410958   -0.138656   -0.073575
      4          6           0       -4.766002   -0.028132   -0.434864
      5          6           0       -5.580924   -1.251994   -0.663450
      6          6           0       -1.466111   -1.493271    0.334190
      7          6           0       -2.633912    1.013294    0.159466
      8          6           0       -1.264904    0.900079    0.526467
      9          6           0       -0.641441   -0.352175    0.556890
     10          6           0       -0.605395    2.138044    1.026328
     11          6           0       -2.482068    3.524202    0.201263
     12          6           0       -3.252416    2.273312   -0.006993
     13          6           0       -4.576411    2.365475   -0.376936
     14          6           0       -5.343989    1.212096   -0.586221
     15          1           0       -6.386981    1.278266   -0.869650
     16          1           0       -5.008426    3.350573   -0.504218
     17          1           0       -1.031678   -2.483453    0.341442
     18          7           0       -1.188318    3.364572    0.683441
     19          7           0       -4.929342   -2.480437   -0.503156
     20          8           0       -3.108212   -3.747901   -0.055134
     21          8           0       -6.749396   -1.195248   -0.970847
     22          8           0       -2.952826    4.620593   -0.008161
     23          8           0        0.380522    2.128407    1.726230
     24          6           0       -0.442540    4.564632    1.057937
     25          1           0       -0.531808    4.752380    2.129708
     26          1           0        0.608437    4.418009    0.817091
     27          1           0       -0.855571    5.403021    0.504115
     28          6           0       -5.692590   -3.709733   -0.714275
     29          1           0       -5.248427   -4.284668   -1.527146
     30          1           0       -5.671463   -4.315589    0.191644
     31          1           0       -6.712976   -3.432657   -0.961316
     32          6           0        0.801502   -0.619487    0.625147
     33          6           0        1.363822   -1.859490    0.849040
     34         16           0        1.995548    0.476339    0.019900
     35          6           0        2.743069   -1.904865    0.573306
     36          1           0        0.809966   -2.705018    1.230339
     37          6           0        3.249465   -0.715523    0.082862
     38          8           0        3.564922   -2.967347    0.740348
     39          6           0        4.615012   -0.434231   -0.295468
     40          6           0        2.993419   -4.165869    1.221921
     41          6           0        5.114295    0.748334   -0.802383
     42         16           0        5.899544   -1.604012   -0.158746
     43          1           0        3.806836   -4.886562    1.281661
     44          1           0        2.560232   -4.025285    2.218353
     45          1           0        2.225886   -4.542128    0.536507
     46          6           0        6.509613    0.716358   -1.073142
     47          8           0        4.284191    1.796144   -0.999390
     48          6           0        7.052353   -0.495669   -0.769808
     49          1           0        7.079736    1.543111   -1.471450
     50          6           0        4.851034    3.008132   -1.453421
     51          1           0        8.083152   -0.797534   -0.877985
     52          1           0        5.305189    2.886161   -2.442648
     53          1           0        4.029796    3.719376   -1.520194
     54          1           0        5.599476    3.382872   -0.747163
 ---------------------------------------------------------------------

 The electronic state is 1-A.
 Alpha  occ. eigenvalues --  -89.04901 -89.04887 -19.29353 -19.29150 -19.24973
 Alpha  occ. eigenvalues --  -19.24954 -19.24450 -19.24362 -14.50527 -14.49960
 Alpha  occ. eigenvalues --  -10.42727 -10.42575 -10.42260 -10.42079 -10.35760
 Alpha  occ. eigenvalues --  -10.35521 -10.35424 -10.34813 -10.34649 -10.34132
 Alpha  occ. eigenvalues --  -10.33770 -10.33702 -10.33592 -10.33554 -10.33397
 Alpha  occ. eigenvalues --  -10.33386 -10.33339 -10.32830 -10.32632 -10.32518
 Alpha  occ. eigenvalues --  -10.32463 -10.32185 -10.32093 -10.31953 -10.30482
 Alpha  occ. eigenvalues --  -10.29913  -8.08923  -8.08907  -6.03765  -6.03759
 Alpha  occ. eigenvalues --   -6.03369  -6.03349  -6.03012  -6.02976  -1.19422
 Alpha  occ. eigenvalues --   -1.19093  -1.19063  -1.18875  -1.17520  -1.17070
 Alpha  occ. eigenvalues --   -1.06663  -1.06194  -1.03024  -1.00825  -0.99177
 Alpha  occ. eigenvalues --   -0.97072  -0.94524  -0.90612  -0.88513  -0.87514
 Alpha  occ. eigenvalues --   -0.86277  -0.85168  -0.85019  -0.83015  -0.82359
 Alpha  occ. eigenvalues --   -0.81083  -0.80022  -0.78465  -0.76738  -0.75421
 Alpha  occ. eigenvalues --   -0.75026  -0.74337  -0.70175  -0.69145  -0.68036
 Alpha  occ. eigenvalues --   -0.66580  -0.65909  -0.65331  -0.64203  -0.63817
 Alpha  occ. eigenvalues --   -0.62855  -0.60557  -0.59608  -0.59026  -0.58914
 Alpha  occ. eigenvalues --   -0.58249  -0.57675  -0.57626  -0.57303  -0.57238
 Alpha  occ. eigenvalues --   -0.56755  -0.55853  -0.55380  -0.55212  -0.54269
 Alpha  occ. eigenvalues --   -0.53878  -0.53723  -0.53620  -0.53035  -0.52353
 Alpha  occ. eigenvalues --   -0.51543  -0.51221  -0.50756  -0.50592  -0.50421
 Alpha  occ. eigenvalues --   -0.50079  -0.49742  -0.49401  -0.48979  -0.48467
 Alpha  occ. eigenvalues --   -0.48011  -0.47773  -0.46694  -0.45810  -0.45423
 Alpha  occ. eigenvalues --   -0.44716  -0.44317  -0.42532  -0.41922  -0.41623
 Alpha  occ. eigenvalues --   -0.41245  -0.39917  -0.39531  -0.38418  -0.37835
 Alpha  occ. eigenvalues --   -0.37256  -0.37120  -0.36517  -0.36378  -0.34608
 Alpha  occ. eigenvalues --   -0.33070  -0.31979  -0.31541  -0.25733
 Alpha virt. eigenvalues --   -0.07074  -0.01111   0.00652   0.02475   0.03559
 Alpha virt. eigenvalues --    0.05138   0.05702   0.05912   0.06655   0.06978
 Alpha virt. eigenvalues --    0.07089   0.07381   0.07733   0.07842   0.08167

 Mulliken charges:
               1
     1  C    0.439427
     2  C   -0.076660
     3  C    0.118352
     4  C    0.223286
     5  C    0.341334
     6  C    0.062408
     7  C    0.020246
     8  C    0.405177
     9  C    0.298454
    10  C   -0.754293
    11  C    0.366955
    12  C    0.056323
    13  C   -0.532738
    14  C   -0.662575
    15  H    0.186703
    16  H    0.187667
    17  H    0.174257
    18  N    0.114942
    19  N   -0.097668
    20  O   -0.270426
    21  O   -0.265452
    22  O   -0.279750
    23  O   -0.196283
    24  C   -0.276861
    25  H    0.201445
    26  H    0.191503
    27  H    0.197946
    28  C   -0.277923
    29  H    0.193167
    30  H    0.192020
    31  H    0.200103
    32  C    0.088006
    33  C   -0.575668
    34  S   -0.775092
    35  C   -0.395450
    36  H    0.153719
    37  C    0.673734
    38  O   -0.113139
    39  C    0.992622
    40  C   -0.298640
    41  C   -0.002571
    42  S   -0.259296
    43  H    0.185413
    44  H    0.162707
    45  H    0.163090
    46  C   -0.555339
    47  O   -0.105442
    48  C   -0.352448
    49  H    0.156798
    50  C   -0.311600
    51  H    0.187959
    52  H    0.156531
    53  H    0.180532
    54  H    0.162491
 Sum of Mulliken charges =  -0.00000

 Dipole moment (field-independent basis, Debye):
    X=              3.3872    Y=             -0.4243    Z=             -0.7240  Tot=              3.4896
 Quadrupole moment (field-independent basis, Debye-Ang):
   XX=           -209.5816   YY=           -210.2203   ZZ=           -221.8806
   XY=             10.8926   XZ=             -9.9406   YZ=             -8.1500

 Normal termination of Gaussian 16 at Fri Nov 27 04:26:17 2020.
