 Gaussian 16, Revision C.01,
 Gaussian 16:  ES64L-G16RevC.01  3-Jul-2019

 --------------------------------------
 # opt=modredundant wb97xd/6-311+g(d,p)
 --------------------------------------

 -----------
 NDI_105.pdb
 -----------
 Symbolic Z-matrix:
 Charge =  0 Multiplicity = 1

 SCF Done:  E(RwB97XD) =  -2358.76538764     A.U. after   19 cycles
 SCF Done:  E(RwB97XD) =  -2358.77217854     A.U. after   16 cycles
 SCF Done:  E(RwB97XD) =  -2358.77290633     A.U. after   18 cycles
 SCF Done:  E(RwB97XD) =  -2358.77333967     A.U. after   15 cycles
 SCF Done:  E(RwB97XD) =  -2358.77346114     A.U. after   14 cycles
 SCF Done:  E(RwB97XD) =  -2358.77350821     A.U. after   13 cycles
 SCF Done:  E(RwB97XD) =  -2358.77353247     A.U. after   13 cycles
 SCF Done:  E(RwB97XD) =  -2358.77354707     A.U. after   13 cycles
 SCF Done:  E(RwB97XD) =  -2358.77356215     A.U. after   14 cycles
 SCF Done:  E(RwB97XD) =  -2358.77357710     A.U. after   13 cycles
 SCF Done:  E(RwB97XD) =  -2358.77366880     A.U. after   12 cycles
 SCF Done:  E(RwB97XD) =  -2358.77366914     A.U. after   12 cycles
 SCF Done:  E(RwB97XD) =  -2358.77361294     A.U. after   10 cycles
 SCF Done:  E(RwB97XD) =  -2358.77366545     A.U. after   16 cycles
 SCF Done:  E(RwB97XD) =  -2358.77366942     A.U. after   13 cycles
 SCF Done:  E(RwB97XD) =  -2358.77366982     A.U. after   11 cycles
 SCF Done:  E(RwB97XD) =  -2358.77361361     A.U. after   10 cycles
 SCF Done:  E(RwB97XD) =  -2358.77361376     A.U. after   11 cycles
 SCF Done:  E(RwB97XD) =  -2358.77361375     A.U. after    9 cycles
 SCF Done:  E(RwB97XD) =  -2358.77361376     A.U. after    8 cycles
 Optimization completed.
    -- Stationary point found.

                         Standard orientation:
 ---------------------------------------------------------------------
 Center     Atomic      Atomic             Coordinates (Angstroms)
 Number     Number       Type             X           Y           Z
 ---------------------------------------------------------------------
      1          6           0        3.413210   -2.774684    0.210452
      2          6           0        2.701658   -1.482387    0.025202
      3          6           0        3.412674   -0.267535    0.086340
      4          6           0        4.800878   -0.257433    0.335193
      5          6           0        5.537958   -1.536176    0.530227
      6          6           0        1.349350   -1.474517   -0.189677
      7          6           0        2.719602    0.946213   -0.104895
      8          6           0        1.323909    0.937090   -0.360073
      9          6           0        0.633193   -0.266981   -0.376716
     10          6           0        0.648454    2.235966   -0.663195
     11          6           0        2.758132    3.461880   -0.198252
     12          6           0        3.445457    2.155778   -0.024011
     13          6           0        4.798248    2.146079    0.225429
     14          6           0        5.483255    0.933881    0.403220
     15          1           0        6.548636    0.919456    0.597507
     16          1           0        5.320934    3.092878    0.284463
     17          1           0        0.810278   -2.414166   -0.209357
     18          7           0        1.396654    3.405946   -0.477400
     19          7           0        4.785336   -2.711384    0.454046
     20          8           0        2.847550   -3.842547    0.156058
     21          8           0        6.728414   -1.560707    0.743367
     22          8           0        3.348636    4.514993   -0.108460
     23          8           0       -0.488042    2.318609   -1.060537
     24          6           0        0.685089    4.662143   -0.712200
     25          1           0        0.458770    4.775026   -1.773620
     26          1           0       -0.251434    4.653469   -0.157013
     27          1           0        1.322935    5.475969   -0.380473
     28          6           0        5.466541   -3.992540    0.637658
     29          1           0        5.022134   -4.527684    1.476828
     30          1           0        5.355692   -4.600961   -0.260127
     31          1           0        6.515878   -3.790153    0.829874
     32          6           0       -0.827830   -0.391462   -0.563507
     33          6           0       -1.480588   -0.805211   -1.684347
     34         16           0       -1.909753   -0.076999    0.739376
     35          6           0       -2.889167   -0.840318   -1.497566
     36          1           0       -0.972732   -1.042268   -2.608494
     37          6           0       -3.297492   -0.475801   -0.234755
     38          8           0       -3.808117   -1.199588   -2.425007
     39          6           0       -4.651797   -0.426282    0.276355
     40          6           0       -3.345115   -1.483496   -3.728088
     41          6           0       -5.054094   -0.069791    1.544671
     42         16           0       -6.044503   -0.823799   -0.690829
     43          1           0       -4.229173   -1.713239   -4.320314
     44          1           0       -2.831662   -0.618803   -4.162549
     45          1           0       -2.674220   -2.349844   -3.731126
     46          6           0       -6.462649   -0.113135    1.738850
     47          8           0       -4.126672    0.277014    2.470213
     48          6           0       -7.114548   -0.504624    0.609160
     49          1           0       -6.965477    0.131887    2.663325
     50          6           0       -4.588637    0.657308    3.748443
     51          1           0       -8.178585   -0.623614    0.472284
     52          1           0       -5.125584   -0.163521    4.236627
     53          1           0       -3.702113    0.902962    4.330664
     54          1           0       -5.238422    1.537455    3.689651
 ---------------------------------------------------------------------

 The electronic state is 1-A.
 Alpha  occ. eigenvalues --  -89.04358 -89.04055 -19.28502 -19.28478 -19.25266
 Alpha  occ. eigenvalues --  -19.25210 -19.24908 -19.24886 -14.50811 -14.50452
 Alpha  occ. eigenvalues --  -10.43067 -10.42839 -10.42718 -10.42678 -10.35174
 Alpha  occ. eigenvalues --  -10.34823 -10.34705 -10.34686 -10.34657 -10.34485
 Alpha  occ. eigenvalues --  -10.34197 -10.34148 -10.34140 -10.34086 -10.34078
 Alpha  occ. eigenvalues --  -10.33207 -10.33133 -10.33113 -10.32697 -10.32397
 Alpha  occ. eigenvalues --  -10.32114 -10.31990 -10.31812 -10.31135 -10.29416
 Alpha  occ. eigenvalues --  -10.29126  -8.08372  -8.08078  -6.03231  -6.02921
 Alpha  occ. eigenvalues --   -6.02831  -6.02525  -6.02432  -6.02167  -1.19725
 Alpha  occ. eigenvalues --   -1.19511  -1.18223  -1.18140  -1.17822  -1.17579
 Alpha  occ. eigenvalues --   -1.06984  -1.06601  -1.03544  -1.00181  -0.98611
 Alpha  occ. eigenvalues --   -0.97204  -0.95033  -0.90541  -0.88969  -0.87050
 Alpha  occ. eigenvalues --   -0.85673  -0.85440  -0.84213  -0.82709  -0.82263
 Alpha  occ. eigenvalues --   -0.81302  -0.79368  -0.78164  -0.77070  -0.75816
 Alpha  occ. eigenvalues --   -0.75315  -0.74457  -0.70118  -0.68649  -0.67744
 Alpha  occ. eigenvalues --   -0.66866  -0.65657  -0.64567  -0.64519  -0.63093
 Alpha  occ. eigenvalues --   -0.62896  -0.60927  -0.59948  -0.59347  -0.59089
 Alpha  occ. eigenvalues --   -0.57900  -0.57855  -0.57455  -0.57004  -0.56668
 Alpha  occ. eigenvalues --   -0.56362  -0.56195  -0.55643  -0.55404  -0.54209
 Alpha  occ. eigenvalues --   -0.53999  -0.53770  -0.53440  -0.53109  -0.52482
 Alpha  occ. eigenvalues --   -0.51727  -0.51316  -0.51182  -0.50418  -0.50082
 Alpha  occ. eigenvalues --   -0.49702  -0.49606  -0.49231  -0.48919  -0.48475
 Alpha  occ. eigenvalues --   -0.48382  -0.47020  -0.46678  -0.45861  -0.45038
 Alpha  occ. eigenvalues --   -0.44171  -0.43570  -0.42003  -0.41271  -0.41048
 Alpha  occ. eigenvalues --   -0.40840  -0.40514  -0.39818  -0.38691  -0.37627
 Alpha  occ. eigenvalues --   -0.37549  -0.37094  -0.36944  -0.35980  -0.35010
 Alpha  occ. eigenvalues --   -0.33527  -0.31448  -0.31130  -0.25319
 Alpha virt. eigenvalues --   -0.07291  -0.00042   0.00604   0.02253   0.02687
 Alpha virt. eigenvalues --    0.05019   0.05954   0.06246   0.06583   0.06895
 Alpha virt. eigenvalues --    0.07268   0.07425   0.07566   0.07720   0.07998

 Mulliken charges:
               1
     1  C    0.477819
     2  C    0.057995
     3  C    0.175128
     4  C    0.169614
     5  C    0.378535
     6  C   -0.654840
     7  C    0.128611
     8  C   -0.065647
     9  C    0.257271
    10  C   -0.315438
    11  C    0.301882
    12  C    0.160995
    13  C   -0.547050
    14  C   -0.711470
    15  H    0.188871
    16  H    0.189594
    17  H    0.195621
    18  N   -0.056544
    19  N   -0.095244
    20  O   -0.257838
    21  O   -0.268864
    22  O   -0.271620
    23  O   -0.121041
    24  C   -0.284607
    25  H    0.199402
    26  H    0.195581
    27  H    0.199803
    28  C   -0.285422
    29  H    0.194214
    30  H    0.194126
    31  H    0.200687
    32  C    0.306588
    33  C   -0.383484
    34  S   -0.256419
    35  C   -0.114739
    36  H    0.144099
    37  C    0.220881
    38  O   -0.113335
    39  C    0.850356
    40  C   -0.291155
    41  C    0.059464
    42  S   -0.303574
    43  H    0.181477
    44  H    0.167282
    45  H    0.157294
    46  C   -0.568188
    47  O   -0.125632
    48  C   -0.388388
    49  H    0.154018
    50  C   -0.300456
    51  H    0.183741
    52  H    0.155147
    53  H    0.177543
    54  H    0.157355
 Sum of Mulliken charges =  -0.00000

 Dipole moment (field-independent basis, Debye):
    X=             -1.1200    Y=              0.1711    Z=              0.1263  Tot=              1.1400
 Quadrupole moment (field-independent basis, Debye-Ang):
   XX=           -217.1145   YY=           -230.2665   ZZ=           -197.2275
   XY=             -5.4238   XZ=             -9.9749   YZ=              7.1057

 Normal termination of Gaussian 16 at Fri Nov 27 04:10:20 2020.
