 Gaussian 16, Revision C.01,
 Gaussian 16:  ES64L-G16RevC.01  3-Jul-2019

 --------------------------------------
 # opt=modredundant wb97xd/6-311+g(d,p)
 --------------------------------------

 -----------
 NDI_-45.pdb
 -----------
 Symbolic Z-matrix:
 Charge =  0 Multiplicity = 1

 SCF Done:  E(RwB97XD) =  -2358.76982979     A.U. after   19 cycles
 SCF Done:  E(RwB97XD) =  -2358.77301714     A.U. after   17 cycles
 SCF Done:  E(RwB97XD) =  -2358.77303692     A.U. after   16 cycles
 SCF Done:  E(RwB97XD) =  -2358.77390129     A.U. after   16 cycles
 SCF Done:  E(RwB97XD) =  -2358.77397999     A.U. after   14 cycles
 SCF Done:  E(RwB97XD) =  -2358.77409136     A.U. after   14 cycles
 SCF Done:  E(RwB97XD) =  -2358.77414495     A.U. after   14 cycles
 SCF Done:  E(RwB97XD) =  -2358.77418148     A.U. after   14 cycles
 SCF Done:  E(RwB97XD) =  -2358.77419573     A.U. after   14 cycles
 SCF Done:  E(RwB97XD) =  -2358.77421148     A.U. after   14 cycles
 SCF Done:  E(RwB97XD) =  -2358.77423950     A.U. after   13 cycles
 SCF Done:  E(RwB97XD) =  -2358.77424589     A.U. after   14 cycles
 SCF Done:  E(RwB97XD) =  -2358.77424799     A.U. after   14 cycles
 SCF Done:  E(RwB97XD) =  -2358.77424865     A.U. after   11 cycles
 SCF Done:  E(RwB97XD) =  -2358.77424939     A.U. after   13 cycles
 SCF Done:  E(RwB97XD) =  -2358.77424961     A.U. after   11 cycles
 SCF Done:  E(RwB97XD) =  -2358.77424972     A.U. after   12 cycles
 SCF Done:  E(RwB97XD) =  -2358.77424977     A.U. after   10 cycles
 SCF Done:  E(RwB97XD) =  -2358.77424987     A.U. after   11 cycles
 SCF Done:  E(RwB97XD) =  -2358.77424992     A.U. after   11 cycles
 Optimization completed.
    -- Stationary point found.

                         Standard orientation:
 ---------------------------------------------------------------------
 Center     Atomic      Atomic             Coordinates (Angstroms)
 Number     Number       Type             X           Y           Z
 ---------------------------------------------------------------------
      1          6           0        2.784876   -2.950573    0.468365
      2          6           0        2.363141   -1.540988    0.251741
      3          6           0        3.328815   -0.531585    0.061662
      4          6           0        4.702875   -0.840565    0.085266
      5          6           0        5.154640   -2.242138    0.304336
      6          6           0        1.035646   -1.223665    0.273352
      7          6           0        2.897309    0.794130   -0.156256
      8          6           0        1.509370    1.106164   -0.183173
      9          6           0        0.571164    0.106921    0.082626
     10          6           0        1.120322    2.483521   -0.612519
     11          6           0        3.498231    3.203816   -0.560530
     12          6           0        3.884442    1.789860   -0.334125
     13          6           0        5.223885    1.472030   -0.297883
     14          6           0        5.640573    0.150241   -0.091181
     15          1           0        6.692024   -0.107514   -0.066813
     16          1           0        5.946433    2.267601   -0.432333
     17          1           0        0.320837   -2.013202    0.473067
     18          7           0        2.134466    3.449882   -0.674414
     19          7           0        4.155827   -3.204242    0.478941
     20          8           0        1.992246   -3.850264    0.629630
     21          8           0        6.327209   -2.538527    0.329368
     22          8           0        4.317632    4.090409   -0.658750
     23          8           0       -0.003306    2.804071   -0.921797
     24          6           0        1.704193    4.805363   -1.014590
     25          1           0        1.340463    4.838551   -2.042549
     26          1           0        0.894050    5.106037   -0.351695
     27          1           0        2.558916    5.465264   -0.899390
     28          6           0        4.552736   -4.595176    0.693952
     29          1           0        4.164586   -4.944659    1.650732
     30          1           0        4.141565   -5.222068   -0.097494
     31          1           0        5.637661   -4.639120    0.686275
     32          6           0       -0.869928    0.319772    0.249902
     33          6           0       -1.507962    1.287212    0.973679
     34         16           0       -1.997556   -0.802438   -0.432535
     35          6           0       -2.911494    1.130780    0.968830
     36          1           0       -0.984886    2.082427    1.483281
     37          6           0       -3.354421    0.043107    0.241686
     38          8           0       -3.806639    1.927104    1.597880
     39          6           0       -4.722407   -0.368280    0.018102
     40          6           0       -3.327836    3.145067    2.131666
     41          6           0       -5.156840   -1.474874   -0.680568
     42         16           0       -6.093069    0.523708    0.618254
     43          1           0       -4.202380    3.680446    2.497087
     44          1           0       -2.640102    2.968150    2.966096
     45          1           0       -2.827265    3.741532    1.361472
     46          6           0       -6.571918   -1.604842   -0.734737
     47          8           0       -4.252120   -2.312417   -1.237365
     48          6           0       -7.195208   -0.590386   -0.073308
     49          1           0       -7.099089   -2.404753   -1.234284
     50          6           0       -4.741403   -3.439965   -1.933669
     51          1           0       -8.257436   -0.441348    0.047899
     52          1           0       -5.358448   -3.139988   -2.787533
     53          1           0       -3.865485   -3.977095   -2.292864
     54          1           0       -5.320481   -4.092762   -1.271633
 ---------------------------------------------------------------------

 The electronic state is 1-A.
 Alpha  occ. eigenvalues --  -89.04926 -89.04557 -19.28997 -19.28817 -19.25048
 Alpha  occ. eigenvalues --  -19.25001 -19.24641 -19.24584 -14.50600 -14.50261
 Alpha  occ. eigenvalues --  -10.42834 -10.42619 -10.42593 -10.42380 -10.35319
 Alpha  occ. eigenvalues --  -10.35299 -10.35271 -10.34488 -10.34427 -10.34338
 Alpha  occ. eigenvalues --  -10.34225 -10.34040 -10.33827 -10.33785 -10.33654
 Alpha  occ. eigenvalues --  -10.32894 -10.32887 -10.32853 -10.32771 -10.32711
 Alpha  occ. eigenvalues --  -10.32305 -10.32233 -10.32121 -10.31701 -10.29851
 Alpha  occ. eigenvalues --  -10.29589  -8.08949  -8.08579  -6.03799  -6.03422
 Alpha  occ. eigenvalues --   -6.03403  -6.03025  -6.03022  -6.02667  -1.19515
 Alpha  occ. eigenvalues --   -1.19291  -1.18706  -1.18542  -1.17606  -1.17317
 Alpha  occ. eigenvalues --   -1.06767  -1.06370  -1.03212  -1.00604  -0.98939
 Alpha  occ. eigenvalues --   -0.97143  -0.94727  -0.90541  -0.88698  -0.87363
 Alpha  occ. eigenvalues --   -0.85982  -0.85292  -0.84725  -0.82776  -0.82265
 Alpha  occ. eigenvalues --   -0.81513  -0.79556  -0.78327  -0.76919  -0.75567
 Alpha  occ. eigenvalues --   -0.75213  -0.74273  -0.70249  -0.68856  -0.67900
 Alpha  occ. eigenvalues --   -0.66648  -0.65724  -0.65067  -0.64612  -0.63539
 Alpha  occ. eigenvalues --   -0.62529  -0.60738  -0.59775  -0.59240  -0.58860
 Alpha  occ. eigenvalues --   -0.58242  -0.57714  -0.57347  -0.57328  -0.56968
 Alpha  occ. eigenvalues --   -0.56546  -0.55913  -0.55472  -0.55230  -0.54359
 Alpha  occ. eigenvalues --   -0.54004  -0.53502  -0.53403  -0.53259  -0.52266
 Alpha  occ. eigenvalues --   -0.51613  -0.51130  -0.51028  -0.50521  -0.50316
 Alpha  occ. eigenvalues --   -0.50030  -0.49543  -0.49417  -0.48911  -0.48388
 Alpha  occ. eigenvalues --   -0.48126  -0.47584  -0.46929  -0.45753  -0.45516
 Alpha  occ. eigenvalues --   -0.44292  -0.43985  -0.42410  -0.41789  -0.41319
 Alpha  occ. eigenvalues --   -0.41045  -0.40246  -0.39673  -0.38599  -0.37682
 Alpha  occ. eigenvalues --   -0.37362  -0.37044  -0.36947  -0.36275  -0.34656
 Alpha  occ. eigenvalues --   -0.33192  -0.31712  -0.31527  -0.25580
 Alpha virt. eigenvalues --   -0.07223  -0.00537   0.00466   0.02326   0.03339
 Alpha virt. eigenvalues --    0.05102   0.05785   0.06032   0.06787   0.06945
 Alpha virt. eigenvalues --    0.07272   0.07525   0.07693   0.07775   0.07925

 Mulliken charges:
               1
     1  C    0.441575
     2  C   -0.142859
     3  C    0.090933
     4  C    0.189695
     5  C    0.354999
     6  C   -0.566319
     7  C    0.136620
     8  C    0.306675
     9  C    0.431699
    10  C   -0.452339
    11  C    0.289160
    12  C    0.109820
    13  C   -0.518308
    14  C   -0.677299
    15  H    0.187680
    16  H    0.188211
    17  H    0.207166
    18  N   -0.022583
    19  N   -0.092617
    20  O   -0.264343
    21  O   -0.266616
    22  O   -0.274464
    23  O   -0.170524
    24  C   -0.265829
    25  H    0.200323
    26  H    0.185122
    27  H    0.200634
    28  C   -0.283449
    29  H    0.193588
    30  H    0.193496
    31  H    0.200127
    32  C    0.179450
    33  C   -0.443713
    34  S   -0.612030
    35  C   -0.116561
    36  H    0.151931
    37  C    0.650313
    38  O   -0.111758
    39  C    0.835979
    40  C   -0.311332
    41  C   -0.007827
    42  S   -0.292030
    43  H    0.181561
    44  H    0.155236
    45  H    0.176367
    46  C   -0.625176
    47  O   -0.112169
    48  C   -0.341844
    49  H    0.156248
    50  C   -0.306345
    51  H    0.186248
    52  H    0.157923
    53  H    0.181650
    54  H    0.157905
 Sum of Mulliken charges =  -0.00000

 Dipole moment (field-independent basis, Debye):
    X=             -2.4820    Y=             -0.1778    Z=              0.1901  Tot=              2.4956
 Quadrupole moment (field-independent basis, Debye-Ang):
   XX=           -215.7166   YY=           -210.8302   ZZ=           -215.6694
   XY=              3.5379   XZ=              4.3414   YZ=             14.3713

 Normal termination of Gaussian 16 at Thu Nov 26 21:36:38 2020.
