 Gaussian 16, Revision C.01,
 Gaussian 16:  ES64L-G16RevC.01  3-Jul-2019

 --------------------------------------
 # opt=modredundant wb97xd/6-311+g(d,p)
 --------------------------------------

 ------------
 NDI_-165.pdb
 ------------
 Symbolic Z-matrix:
 Charge =  0 Multiplicity = 1

 SCF Done:  E(RwB97XD) =  -2358.72954497     A.U. after   20 cycles
 SCF Done:  E(RwB97XD) =  -2358.75461261     A.U. after   20 cycles
 SCF Done:  E(RwB97XD) =  -2358.76551390     A.U. after   18 cycles
 SCF Done:  E(RwB97XD) =  -2358.76743352     A.U. after   16 cycles
 SCF Done:  E(RwB97XD) =  -2358.76821467     A.U. after   16 cycles
 SCF Done:  E(RwB97XD) =  -2358.76836813     A.U. after   16 cycles
 SCF Done:  E(RwB97XD) =  -2358.76840878     A.U. after   15 cycles
 SCF Done:  E(RwB97XD) =  -2358.76854172     A.U. after   13 cycles
 SCF Done:  E(RwB97XD) =  -2358.76874771     A.U. after   17 cycles
 SCF Done:  E(RwB97XD) =  -2358.76876461     A.U. after   18 cycles
 SCF Done:  E(RwB97XD) =  -2358.77043608     A.U. after   13 cycles
 SCF Done:  E(RwB97XD) =  -2358.77044225     A.U. after   12 cycles
 SCF Done:  E(RwB97XD) =  -2358.77044675     A.U. after   13 cycles
 SCF Done:  E(RwB97XD) =  -2358.77045021     A.U. after   13 cycles
 SCF Done:  E(RwB97XD) =  -2358.77045407     A.U. after   13 cycles
 SCF Done:  E(RwB97XD) =  -2358.77045643     A.U. after   12 cycles
 SCF Done:  E(RwB97XD) =  -2358.77045766     A.U. after   12 cycles
 SCF Done:  E(RwB97XD) =  -2358.77045778     A.U. after   11 cycles
 SCF Done:  E(RwB97XD) =  -2358.77045782     A.U. after   10 cycles
 SCF Done:  E(RwB97XD) =  -2358.77045781     A.U. after    9 cycles
 Optimization completed.
    -- Stationary point found.

                         Standard orientation:
 ---------------------------------------------------------------------
 Center     Atomic      Atomic             Coordinates (Angstroms)
 Number     Number       Type             X           Y           Z
 ---------------------------------------------------------------------
      1          6           0       -3.570197   -2.651134    0.219795
      2          6           0       -2.787052   -1.412471   -0.027598
      3          6           0       -3.405590   -0.150291    0.080980
      4          6           0       -4.760879   -0.039152    0.442636
      5          6           0       -5.569326   -1.262118    0.697849
      6          6           0       -1.454050   -1.502787   -0.303952
      7          6           0       -2.636550    1.002152   -0.176208
      8          6           0       -1.268379    0.889224   -0.543188
      9          6           0       -0.640987   -0.359638   -0.550510
     10          6           0       -0.612552    2.118927   -1.070256
     11          6           0       -2.495818    3.512180   -0.270730
     12          6           0       -3.260798    2.262255   -0.034897
     13          6           0       -4.584367    2.354672    0.335429
     14          6           0       -5.344778    1.200864    0.569741
     15          1           0       -6.387602    1.267088    0.853862
     16          1           0       -5.022223    3.339495    0.443427
     17          1           0       -1.007316   -2.488079   -0.292498
     18          7           0       -1.201533    3.349346   -0.750937
     19          7           0       -4.912101   -2.490148    0.560500
     20          8           0       -3.085990   -3.757595    0.133078
     21          8           0       -6.737345   -1.204681    1.006885
     22          8           0       -2.971944    4.610203   -0.083455
     23          8           0        0.371843    2.098369   -1.771269
     24          6           0       -0.462318    4.545418   -1.150603
     25          1           0        0.589654    4.409219   -0.907975
     26          1           0       -0.553783    4.710874   -2.225856
     27          1           0       -0.878911    5.392869   -0.613517
     28          6           0       -5.668837   -3.718781    0.797541
     29          1           0       -5.645434   -4.342854   -0.095856
     30          1           0       -5.220923   -4.274731    1.621484
     31          1           0       -6.690392   -3.441974    1.039979
     32          6           0        0.803342   -0.612414   -0.623160
     33          6           0        1.381685   -1.826914   -0.921059
     34         16           0        1.974568    0.463446    0.054725
     35          6           0        2.763471   -1.864499   -0.649096
     36          1           0        0.836172   -2.653683   -1.353212
     37          6           0        3.250651   -0.698920   -0.088035
     38          8           0        3.602945   -2.900908   -0.879848
     39          6           0        4.611196   -0.419042    0.310007
     40          6           0        3.050506   -4.078742   -1.429847
     41          6           0        5.090890    0.739442    0.885908
     42         16           0        5.914013   -1.558762    0.109126
     43          1           0        3.875927   -4.780556   -1.533612
     44          1           0        2.291687   -4.507763   -0.766077
     45          1           0        2.611835   -3.887242   -2.415320
     46          6           0        6.486107    0.713695    1.158234
     47          8           0        4.243793    1.761382    1.141070
     48          6           0        7.048580   -0.469931    0.786578
     49          1           0        7.042226    1.524855    1.605445
     50          6           0        4.790810    2.952375    1.668698
     51          1           0        8.083799   -0.761499    0.879547
     52          1           0        5.535128    3.380146    0.988634
     53          1           0        3.958663    3.645866    1.775504
     54          1           0        5.244655    2.778257    2.650255
 ---------------------------------------------------------------------

 The electronic state is 1-A.
 Alpha  occ. eigenvalues --  -89.04881 -89.04845 -19.29305 -19.29118 -19.24988
 Alpha  occ. eigenvalues --  -19.24975 -19.24463 -19.24398 -14.50546 -14.49976
 Alpha  occ. eigenvalues --  -10.42751 -10.42594 -10.42279 -10.42121 -10.35683
 Alpha  occ. eigenvalues --  -10.35505 -10.35345 -10.34781 -10.34623 -10.34165
 Alpha  occ. eigenvalues --  -10.33814 -10.33771 -10.33637 -10.33607 -10.33442
 Alpha  occ. eigenvalues --  -10.33334 -10.33273 -10.32865 -10.32583 -10.32575
 Alpha  occ. eigenvalues --  -10.32521 -10.32199 -10.32025 -10.31953 -10.30416
 Alpha  occ. eigenvalues --  -10.29862  -8.08905  -8.08867  -6.03758  -6.03710
 Alpha  occ. eigenvalues --   -6.03351  -6.03313  -6.02973  -6.02956  -1.19442
 Alpha  occ. eigenvalues --   -1.19073  -1.19036  -1.18841  -1.17540  -1.17090
 Alpha  occ. eigenvalues --   -1.06684  -1.06209  -1.03068  -1.00799  -0.99145
 Alpha  occ. eigenvalues --   -0.97094  -0.94564  -0.90614  -0.88548  -0.87491
 Alpha  occ. eigenvalues --   -0.86242  -0.85176  -0.84982  -0.82983  -0.82371
 Alpha  occ. eigenvalues --   -0.81093  -0.79987  -0.78453  -0.76756  -0.75441
 Alpha  occ. eigenvalues --   -0.75042  -0.74341  -0.70169  -0.69117  -0.68018
 Alpha  occ. eigenvalues --   -0.66594  -0.65908  -0.65287  -0.64176  -0.63804
 Alpha  occ. eigenvalues --   -0.62863  -0.60585  -0.59629  -0.59033  -0.58904
 Alpha  occ. eigenvalues --   -0.58267  -0.57652  -0.57620  -0.57286  -0.57231
 Alpha  occ. eigenvalues --   -0.56731  -0.55852  -0.55393  -0.55236  -0.54271
 Alpha  occ. eigenvalues --   -0.53847  -0.53756  -0.53616  -0.53051  -0.52383
 Alpha  occ. eigenvalues --   -0.51549  -0.51197  -0.50754  -0.50548  -0.50421
 Alpha  occ. eigenvalues --   -0.50087  -0.49735  -0.49411  -0.48966  -0.48452
 Alpha  occ. eigenvalues --   -0.48027  -0.47745  -0.46681  -0.45832  -0.45458
 Alpha  occ. eigenvalues --   -0.44669  -0.44295  -0.42499  -0.41898  -0.41578
 Alpha  occ. eigenvalues --   -0.41278  -0.39969  -0.39550  -0.38436  -0.37778
 Alpha  occ. eigenvalues --   -0.37274  -0.37113  -0.36556  -0.36368  -0.34650
 Alpha  occ. eigenvalues --   -0.33079  -0.31967  -0.31531  -0.25716
 Alpha virt. eigenvalues --   -0.07087  -0.00999   0.00619   0.02442   0.03528
 Alpha virt. eigenvalues --    0.05138   0.05712   0.05922   0.06657   0.06910
 Alpha virt. eigenvalues --    0.07085   0.07422   0.07723   0.07807   0.08108

 Mulliken charges:
               1
     1  C    0.447496
     2  C   -0.069194
     3  C    0.108914
     4  C    0.232896
     5  C    0.345957
     6  C   -0.002290
     7  C    0.036728
     8  C    0.368504
     9  C    0.275126
    10  C   -0.737148
    11  C    0.381030
    12  C    0.050830
    13  C   -0.541349
    14  C   -0.663279
    15  H    0.186951
    16  H    0.187755
    17  H    0.177154
    18  N    0.112455
    19  N   -0.097089
    20  O   -0.270118
    21  O   -0.266110
    22  O   -0.279652
    23  O   -0.195817
    24  C   -0.281834
    25  H    0.192746
    26  H    0.201544
    27  H    0.198039
    28  C   -0.277650
    29  H    0.191944
    30  H    0.193502
    31  H    0.200269
    32  C    0.129696
    33  C   -0.679800
    34  S   -0.765639
    35  C   -0.274441
    36  H    0.156635
    37  C    0.701701
    38  O   -0.114078
    39  C    0.997238
    40  C   -0.297735
    41  C   -0.003813
    42  S   -0.258392
    43  H    0.185117
    44  H    0.163997
    45  H    0.161997
    46  C   -0.584041
    47  O   -0.108841
    48  C   -0.349932
    49  H    0.156623
    50  C   -0.311383
    51  H    0.187799
    52  H    0.161917
    53  H    0.180489
    54  H    0.156574
 Sum of Mulliken charges =  -0.00000

 Dipole moment (field-independent basis, Debye):
    X=              3.2214    Y=             -0.3896    Z=              0.7132  Tot=              3.3223
 Quadrupole moment (field-independent basis, Debye-Ang):
   XX=           -210.2172   YY=           -211.0454   ZZ=           -220.6632
   XY=             10.4905   XZ=             10.1727   YZ=              9.5670

 Normal termination of Gaussian 16 at Thu Nov 26 19:18:46 2020.
