 Gaussian 16, Revision C.01,
 Gaussian 16:  ES64L-G16RevC.01  3-Jul-2019

 --------------------------------------
 # opt=modredundant wb97xd/6-311+g(d,p)
 --------------------------------------

 -----------
 NDI_-30.pdb
 -----------
 Symbolic Z-matrix:
 Charge =  0 Multiplicity = 1

 SCF Done:  E(RwB97XD) =  -2358.76873130     A.U. after   20 cycles
 SCF Done:  E(RwB97XD) =  -2358.77054547     A.U. after   18 cycles
 SCF Done:  E(RwB97XD) =  -2358.77164993     A.U. after   18 cycles
 SCF Done:  E(RwB97XD) =  -2358.77289964     A.U. after   15 cycles
 SCF Done:  E(RwB97XD) =  -2358.77298314     A.U. after   16 cycles
 SCF Done:  E(RwB97XD) =  -2358.77318051     A.U. after   16 cycles
 SCF Done:  E(RwB97XD) =  -2358.77326776     A.U. after   15 cycles
 SCF Done:  E(RwB97XD) =  -2358.77331457     A.U. after   16 cycles
 SCF Done:  E(RwB97XD) =  -2358.77334781     A.U. after   14 cycles
 SCF Done:  E(RwB97XD) =  -2358.77335644     A.U. after   14 cycles
 SCF Done:  E(RwB97XD) =  -2358.77339019     A.U. after   13 cycles
 SCF Done:  E(RwB97XD) =  -2358.77339922     A.U. after   14 cycles
 SCF Done:  E(RwB97XD) =  -2358.77340575     A.U. after   14 cycles
 SCF Done:  E(RwB97XD) =  -2358.77340699     A.U. after   13 cycles
 SCF Done:  E(RwB97XD) =  -2358.77340733     A.U. after   12 cycles
 SCF Done:  E(RwB97XD) =  -2358.77340758     A.U. after   12 cycles
 SCF Done:  E(RwB97XD) =  -2358.77340765     A.U. after   10 cycles
 SCF Done:  E(RwB97XD) =  -2358.77340768     A.U. after    9 cycles
 SCF Done:  E(RwB97XD) =  -2358.77340772     A.U. after    9 cycles
 SCF Done:  E(RwB97XD) =  -2358.77340776     A.U. after   11 cycles
 Optimization completed.
    -- Stationary point found.

                         Standard orientation:
 ---------------------------------------------------------------------
 Center     Atomic      Atomic             Coordinates (Angstroms)
 Number     Number       Type             X           Y           Z
 ---------------------------------------------------------------------
      1          6           0        2.693816   -2.990080    0.323501
      2          6           0        2.315493   -1.561564    0.157556
      3          6           0        3.311848   -0.569222    0.055321
      4          6           0        4.675111   -0.913096    0.124311
      5          6           0        5.084022   -2.334368    0.294697
      6          6           0        0.997819   -1.211677    0.150698
      7          6           0        2.917359    0.774059   -0.119267
      8          6           0        1.538123    1.122058   -0.191474
      9          6           0        0.562526    0.136625    0.000863
     10          6           0        1.214245    2.515563   -0.618443
     11          6           0        3.593238    3.183738   -0.375404
     12          6           0        3.934836    1.751868   -0.202449
     13          6           0        5.264403    1.400453   -0.119008
     14          6           0        5.642811    0.061546    0.039760
     15          1           0        6.685963   -0.222635    0.099186
     16          1           0        6.008870    2.184852   -0.178869
     17          1           0        0.266000   -1.997467    0.296351
     18          7           0        2.244673    3.464656   -0.563307
     19          7           0        4.056482   -3.278972    0.376789
     20          8           0        1.873808   -3.875800    0.409424
     21          8           0        6.247049   -2.661242    0.357361
     22          8           0        4.433654    4.056213   -0.377522
     23          8           0        0.130033    2.866071   -1.024691
     24          6           0        1.866467    4.839695   -0.885595
     25          1           0        1.601792    4.921778   -1.940845
     26          1           0        1.001829    5.127155   -0.289134
     27          1           0        2.715248    5.479638   -0.663318
     28          6           0        4.410974   -4.688309    0.539122
     29          1           0        3.989338   -5.069620    1.469363
     30          1           0        4.003727   -5.267427   -0.289729
     31          1           0        5.494110   -4.762218    0.556851
     32          6           0       -0.871809    0.367531    0.177288
     33          6           0       -1.517940    1.440443    0.730248
     34         16           0       -2.007926   -0.840406   -0.337058
     35          6           0       -2.918683    1.287181    0.745804
     36          1           0       -1.003926    2.305708    1.117126
     37          6           0       -3.362347    0.099755    0.192924
     38          8           0       -3.814735    2.172382    1.238881
     39          6           0       -4.729563   -0.341495    0.039508
     40          6           0       -3.331945    3.451545    1.599060
     41          6           0       -5.164362   -1.539271   -0.489282
     42         16           0       -6.099877    0.624074    0.514526
     43          1           0       -4.206819    4.040099    1.869366
     44          1           0       -2.658443    3.391245    2.461151
     45          1           0       -2.814036    3.926535    0.759085
     46          6           0       -6.578972   -1.679947   -0.512947
     47          8           0       -4.260382   -2.444320   -0.926101
     48          6           0       -7.201190   -0.582158    0.000089
     49          1           0       -7.106436   -2.545045   -0.887990
     50          6           0       -4.748002   -3.666622   -1.441135
     51          1           0       -8.263247   -0.420109    0.105422
     52          1           0       -5.373098   -3.501098   -2.325149
     53          1           0       -3.871307   -4.246921   -1.722661
     54          1           0       -5.317887   -4.214865   -0.683369
 ---------------------------------------------------------------------

 The electronic state is 1-A.
 Alpha  occ. eigenvalues --  -89.05077 -89.04767 -19.29204 -19.28973 -19.24964
 Alpha  occ. eigenvalues --  -19.24931 -19.24524 -19.24522 -14.50524 -14.50172
 Alpha  occ. eigenvalues --  -10.42744 -10.42542 -10.42535 -10.42244 -10.35581
 Alpha  occ. eigenvalues --  -10.35449 -10.35381 -10.34619 -10.34413 -10.34312
 Alpha  occ. eigenvalues --  -10.34045 -10.33851 -10.33689 -10.33652 -10.33480
 Alpha  occ. eigenvalues --  -10.33248 -10.33027 -10.32775 -10.32609 -10.32530
 Alpha  occ. eigenvalues --  -10.32509 -10.32178 -10.32121 -10.31934 -10.30006
 Alpha  occ. eigenvalues --  -10.29782  -8.09106  -8.08788  -6.03953  -6.03631
 Alpha  occ. eigenvalues --   -6.03557  -6.03234  -6.03181  -6.02876  -1.19432
 Alpha  occ. eigenvalues --   -1.19213  -1.18923  -1.18706  -1.17523  -1.17217
 Alpha  occ. eigenvalues --   -1.06684  -1.06292  -1.03082  -1.00756  -0.99082
 Alpha  occ. eigenvalues --   -0.97088  -0.94604  -0.90551  -0.88594  -0.87495
 Alpha  occ. eigenvalues --   -0.86110  -0.85221  -0.84914  -0.82863  -0.82273
 Alpha  occ. eigenvalues --   -0.81518  -0.79670  -0.78375  -0.76853  -0.75470
 Alpha  occ. eigenvalues --   -0.75174  -0.74205  -0.70297  -0.68968  -0.67941
 Alpha  occ. eigenvalues --   -0.66573  -0.65808  -0.65246  -0.64564  -0.63739
 Alpha  occ. eigenvalues --   -0.62443  -0.60670  -0.59721  -0.59215  -0.58771
 Alpha  occ. eigenvalues --   -0.58306  -0.57682  -0.57488  -0.57301  -0.57094
 Alpha  occ. eigenvalues --   -0.56654  -0.55800  -0.55448  -0.55158  -0.54445
 Alpha  occ. eigenvalues --   -0.53935  -0.53593  -0.53405  -0.53163  -0.52096
 Alpha  occ. eigenvalues --   -0.51629  -0.51120  -0.50949  -0.50628  -0.50355
 Alpha  occ. eigenvalues --   -0.50147  -0.49515  -0.49464  -0.48882  -0.48417
 Alpha  occ. eigenvalues --   -0.48022  -0.47726  -0.46976  -0.45829  -0.45553
 Alpha  occ. eigenvalues --   -0.44421  -0.44170  -0.42503  -0.41926  -0.41360
 Alpha  occ. eigenvalues --   -0.41232  -0.40133  -0.39612  -0.38560  -0.37725
 Alpha  occ. eigenvalues --   -0.37292  -0.37044  -0.36852  -0.36327  -0.34586
 Alpha  occ. eigenvalues --   -0.33123  -0.31832  -0.31647  -0.25663
 Alpha virt. eigenvalues --   -0.07185  -0.00875   0.00519   0.02439   0.03493
 Alpha virt. eigenvalues --    0.05160   0.05714   0.06024   0.06745   0.07021
 Alpha virt. eigenvalues --    0.07216   0.07430   0.07772   0.07910   0.08024

 Mulliken charges:
               1
     1  C    0.399025
     2  C   -0.137411
     3  C    0.128338
     4  C    0.187118
     5  C    0.361074
     6  C   -0.299329
     7  C    0.138261
     8  C    0.491713
     9  C    0.316327
    10  C   -0.672980
    11  C    0.300843
    12  C    0.082909
    13  C   -0.534377
    14  C   -0.673373
    15  H    0.187150
    16  H    0.187962
    17  H    0.199555
    18  N    0.022963
    19  N   -0.089895
    20  O   -0.267939
    21  O   -0.266223
    22  O   -0.277074
    23  O   -0.202678
    24  C   -0.255592
    25  H    0.200736
    26  H    0.182446
    27  H    0.200729
    28  C   -0.284258
    29  H    0.193765
    30  H    0.192664
    31  H    0.199862
    32  C    0.125297
    33  C   -0.496413
    34  S   -0.700963
    35  C   -0.147312
    36  H    0.154887
    37  C    0.672559
    38  O   -0.107212
    39  C    0.911468
    40  C   -0.315006
    41  C    0.018743
    42  S   -0.278746
    43  H    0.182313
    44  H    0.156427
    45  H    0.178492
    46  C   -0.649747
    47  O   -0.110304
    48  C   -0.343875
    49  H    0.157060
    50  C   -0.307663
    51  H    0.187448
    52  H    0.157576
    53  H    0.183584
    54  H    0.159077
 Sum of Mulliken charges =  -0.00000

 Dipole moment (field-independent basis, Debye):
    X=             -3.0766    Y=             -0.3048    Z=              0.2695  Tot=              3.1033
 Quadrupole moment (field-independent basis, Debye-Ang):
   XX=           -214.4943   YY=           -207.5458   ZZ=           -219.2808
   XY=              4.2519   XZ=              2.1336   YZ=             11.5533

 Normal termination of Gaussian 16 at Thu Nov 26 23:23:20 2020.
