 Gaussian 16, Revision C.01,
 Gaussian 16:  ES64L-G16RevC.01  3-Jul-2019

 --------------------------------------
 # opt=modredundant wb97xd/6-311+g(d,p)
 --------------------------------------

 ------------
 NDI_-130.pdb
 ------------
 Symbolic Z-matrix:
 Charge =  0 Multiplicity = 1

 SCF Done:  E(RwB97XD) =  -2358.75950142     A.U. after   21 cycles
 SCF Done:  E(RwB97XD) =  -2358.76396624     A.U. after   19 cycles
 SCF Done:  E(RwB97XD) =  -2358.77019186     A.U. after   17 cycles
 SCF Done:  E(RwB97XD) =  -2358.77140698     A.U. after   15 cycles
 SCF Done:  E(RwB97XD) =  -2358.77210934     A.U. after   18 cycles
 SCF Done:  E(RwB97XD) =  -2358.77282294     A.U. after   17 cycles
 SCF Done:  E(RwB97XD) =  -2358.77323534     A.U. after   16 cycles
 SCF Done:  E(RwB97XD) =  -2358.77349496     A.U. after   15 cycles
 SCF Done:  E(RwB97XD) =  -2358.77356715     A.U. after   14 cycles
 SCF Done:  E(RwB97XD) =  -2358.77360695     A.U. after   13 cycles
 SCF Done:  E(RwB97XD) =  -2358.77380477     A.U. after   13 cycles
 SCF Done:  E(RwB97XD) =  -2358.77380570     A.U. after   10 cycles
 SCF Done:  E(RwB97XD) =  -2358.77380591     A.U. after   12 cycles
 SCF Done:  E(RwB97XD) =  -2358.77380608     A.U. after   10 cycles
 SCF Done:  E(RwB97XD) =  -2358.77380617     A.U. after    9 cycles
 SCF Done:  E(RwB97XD) =  -2358.77380635     A.U. after   10 cycles
 SCF Done:  E(RwB97XD) =  -2358.77380644     A.U. after   11 cycles
 SCF Done:  E(RwB97XD) =  -2358.77380650     A.U. after    9 cycles
 SCF Done:  E(RwB97XD) =  -2358.77380653     A.U. after    9 cycles
 SCF Done:  E(RwB97XD) =  -2358.77380654     A.U. after    8 cycles
 Optimization completed.
    -- Stationary point found.

                         Standard orientation:
 ---------------------------------------------------------------------
 Center     Atomic      Atomic             Coordinates (Angstroms)
 Number     Number       Type             X           Y           Z
 ---------------------------------------------------------------------
      1          6           0       -3.520709   -2.682391    0.457578
      2          6           0       -2.757961   -1.447458    0.137284
      3          6           0       -3.412780   -0.199197    0.108486
      4          6           0       -4.787784   -0.098552    0.400185
      5          6           0       -5.573918   -1.317602    0.734082
      6          6           0       -1.411364   -1.520849   -0.092486
      7          6           0       -2.672205    0.955222   -0.219009
      8          6           0       -1.288915    0.855026   -0.517477
      9          6           0       -0.641878   -0.370175   -0.403105
     10          6           0       -0.607469    2.062770   -1.070773
     11          6           0       -2.592794    3.449298   -0.540323
     12          6           0       -3.336367    2.202187   -0.223718
     13          6           0       -4.677243    2.282868    0.075261
     14          6           0       -5.411151    1.127409    0.384090
     15          1           0       -6.467721    1.183621    0.615152
     16          1           0       -5.151512    3.256648    0.069953
     17          1           0       -0.915546   -2.480747   -0.010804
     18          7           0       -1.260835    3.291898   -0.908168
     19          7           0       -4.878768   -2.531078    0.736840
     20          8           0       -3.007093   -3.777876    0.479834
     21          8           0       -6.755293   -1.266538    0.988862
     22          8           0       -3.115988    4.540611   -0.498646
     23          8           0        0.446755    2.020800   -1.657167
     24          6           0       -0.524711    4.478726   -1.341348
     25          1           0        0.508113    4.394065   -1.010022
     26          1           0       -0.537277    4.560746   -2.429952
     27          1           0       -1.003417    5.350497   -0.904442
     28          6           0       -5.611087   -3.756549    1.054289
     29          1           0       -5.559678   -4.445598    0.211048
     30          1           0       -5.162884   -4.237615    1.923673
     31          1           0       -6.642623   -3.487276    1.260074
     32          6           0        0.810966   -0.568665   -0.513841
     33          6           0        1.448672   -1.489455   -1.296302
     34         16           0        1.911049    0.260618    0.522764
     35          6           0        2.851001   -1.491372   -1.088341
     36          1           0        0.930250   -2.113877   -2.010666
     37          6           0        3.275194   -0.602212   -0.123607
     38          8           0        3.754793   -2.268216   -1.730161
     39          6           0        4.629075   -0.382778    0.338168
     40          6           0        3.269869   -3.160067   -2.711685
     41          6           0        5.047152    0.502240    1.308491
     42         16           0        6.001181   -1.246393   -0.298974
     43          1           0        4.141394   -3.679789   -3.105615
     44          1           0        2.578984   -3.890858   -2.276788
     45          1           0        2.771495   -2.620673   -3.524606
     46          6           0        6.450913    0.489853    1.536577
     47          8           0        4.137966    1.277903    1.945355
     48          6           0        7.082887   -0.410214    0.733329
     49          1           0        6.964386    1.112150    2.255268
     50          6           0        4.617818    2.197562    2.903185
     51          1           0        8.139588   -0.627103    0.694606
     52          1           0        5.307378    2.917950    2.449752
     53          1           0        3.743763    2.724630    3.281767
     54          1           0        5.116435    1.682703    3.731709
 ---------------------------------------------------------------------

 The electronic state is 1-A.
 Alpha  occ. eigenvalues --  -89.04598 -89.04367 -19.28831 -19.28765 -19.25149
 Alpha  occ. eigenvalues --  -19.25116 -19.24711 -19.24695 -14.50702 -14.50224
 Alpha  occ. eigenvalues --  -10.42941 -10.42740 -10.42525 -10.42439 -10.35157
 Alpha  occ. eigenvalues --  -10.35123 -10.35070 -10.34455 -10.34446 -10.34354
 Alpha  occ. eigenvalues --  -10.34288 -10.34219 -10.33951 -10.33915 -10.33838
 Alpha  occ. eigenvalues --  -10.33052 -10.32969 -10.32943 -10.32899 -10.32517
 Alpha  occ. eigenvalues --  -10.32314 -10.32122 -10.32037 -10.31477 -10.29844
 Alpha  occ. eigenvalues --  -10.29417  -8.08621  -8.08389  -6.03477  -6.03232
 Alpha  occ. eigenvalues --   -6.03079  -6.02836  -6.02681  -6.02478  -1.19607
 Alpha  occ. eigenvalues --   -1.19304  -1.18545  -1.18459  -1.17706  -1.17358
 Alpha  occ. eigenvalues --   -1.06858  -1.06431  -1.03363  -1.00445  -0.98816
 Alpha  occ. eigenvalues --   -0.97198  -0.94852  -0.90571  -0.88803  -0.87239
 Alpha  occ. eigenvalues --   -0.85907  -0.85331  -0.84543  -0.82696  -0.82433
 Alpha  occ. eigenvalues --   -0.81211  -0.79635  -0.78288  -0.76935  -0.75653
 Alpha  occ. eigenvalues --   -0.75185  -0.74416  -0.70115  -0.68844  -0.67864
 Alpha  occ. eigenvalues --   -0.66749  -0.65807  -0.64859  -0.64300  -0.63418
 Alpha  occ. eigenvalues --   -0.62902  -0.60792  -0.59813  -0.59198  -0.58969
 Alpha  occ. eigenvalues --   -0.58144  -0.57758  -0.57366  -0.57255  -0.56907
 Alpha  occ. eigenvalues --   -0.56448  -0.56100  -0.55503  -0.55377  -0.54212
 Alpha  occ. eigenvalues --   -0.53957  -0.53822  -0.53362  -0.53197  -0.52509
 Alpha  occ. eigenvalues --   -0.51641  -0.51213  -0.50938  -0.50379  -0.50193
 Alpha  occ. eigenvalues --   -0.50008  -0.49592  -0.49412  -0.48935  -0.48440
 Alpha  occ. eigenvalues --   -0.48207  -0.47367  -0.46654  -0.45843  -0.45335
 Alpha  occ. eigenvalues --   -0.44349  -0.43870  -0.42218  -0.41539  -0.41223
 Alpha  occ. eigenvalues --   -0.41137  -0.40306  -0.39720  -0.38598  -0.37593
 Alpha  occ. eigenvalues --   -0.37426  -0.36998  -0.36786  -0.36225  -0.34948
 Alpha  occ. eigenvalues --   -0.33273  -0.31704  -0.31340  -0.25503
 Alpha virt. eigenvalues --   -0.07187  -0.00244   0.00470   0.02255   0.03150
 Alpha virt. eigenvalues --    0.05120   0.05822   0.06112   0.06625   0.06825
 Alpha virt. eigenvalues --    0.07139   0.07529   0.07567   0.07741   0.07889

 Mulliken charges:
               1
     1  C    0.476555
     2  C   -0.100230
     3  C    0.096387
     4  C    0.180868
     5  C    0.369146
     6  C   -0.494885
     7  C    0.093130
     8  C    0.078359
     9  C    0.299661
    10  C   -0.460247
    11  C    0.337638
    12  C    0.072143
    13  C   -0.487541
    14  C   -0.686898
    15  H    0.188224
    16  H    0.188700
    17  H    0.193029
    18  N    0.040800
    19  N   -0.094844
    20  O   -0.262651
    21  O   -0.268993
    22  O   -0.276301
    23  O   -0.174011
    24  C   -0.267389
    25  H    0.195062
    26  H    0.201794
    27  H    0.197515
    28  C   -0.282164
    29  H    0.193295
    30  H    0.194008
    31  H    0.200917
    32  C    0.427110
    33  C   -0.592385
    34  S   -0.522712
    35  C   -0.056631
    36  H    0.157479
    37  C    0.437317
    38  O   -0.111412
    39  C    0.914334
    40  C   -0.291325
    41  C    0.051520
    42  S   -0.289190
    43  H    0.182778
    44  H    0.162429
    45  H    0.163661
    46  C   -0.621111
    47  O   -0.120131
    48  C   -0.360628
    49  H    0.155017
    50  C   -0.305859
    51  H    0.185268
    52  H    0.158606
    53  H    0.179090
    54  H    0.155695
 Sum of Mulliken charges =  -0.00000

 Dipole moment (field-independent basis, Debye):
    X=              1.9611    Y=             -0.0751    Z=              0.4003  Tot=              2.0030
 Quadrupole moment (field-independent basis, Debye-Ang):
   XX=           -214.3927   YY=           -219.8389   ZZ=           -209.4039
   XY=              8.3687   XZ=              9.8467   YZ=             14.4029

 Normal termination of Gaussian 16 at Thu Nov 26 17:36:31 2020.
