 Gaussian 16, Revision C.01,
 Gaussian 16:  ES64L-G16RevC.01  3-Jul-2019

 --------------------------------------
 # opt=modredundant wb97xd/6-311+g(d,p)
 --------------------------------------

 ----------
 NDI_60.pdb
 ----------
 Symbolic Z-matrix:
 Charge =  0 Multiplicity = 1

 SCF Done:  E(RwB97XD) =  -2358.76569273     A.U. after   19 cycles
 SCF Done:  E(RwB97XD) =  -2358.77210044     A.U. after   17 cycles
 SCF Done:  E(RwB97XD) =  -2358.77297525     A.U. after   17 cycles
 SCF Done:  E(RwB97XD) =  -2358.77344664     A.U. after   15 cycles
 SCF Done:  E(RwB97XD) =  -2358.77359216     A.U. after   15 cycles
 SCF Done:  E(RwB97XD) =  -2358.77367997     A.U. after   16 cycles
 SCF Done:  E(RwB97XD) =  -2358.77375820     A.U. after   13 cycles
 SCF Done:  E(RwB97XD) =  -2358.77390566     A.U. after   16 cycles
 SCF Done:  E(RwB97XD) =  -2358.77396622     A.U. after   15 cycles
 SCF Done:  E(RwB97XD) =  -2358.77400021     A.U. after   15 cycles
 SCF Done:  E(RwB97XD) =  -2358.77412489     A.U. after   13 cycles
 SCF Done:  E(RwB97XD) =  -2358.77412541     A.U. after   13 cycles
 SCF Done:  E(RwB97XD) =  -2358.77412575     A.U. after   12 cycles
 SCF Done:  E(RwB97XD) =  -2358.77412601     A.U. after   12 cycles
 SCF Done:  E(RwB97XD) =  -2358.77412614     A.U. after   12 cycles
 SCF Done:  E(RwB97XD) =  -2358.77412622     A.U. after   12 cycles
 SCF Done:  E(RwB97XD) =  -2358.77412633     A.U. after   13 cycles
 SCF Done:  E(RwB97XD) =  -2358.77412644     A.U. after   13 cycles
 SCF Done:  E(RwB97XD) =  -2358.77412648     A.U. after   11 cycles
 SCF Done:  E(RwB97XD) =  -2358.77412649     A.U. after   11 cycles
 Optimization completed.
    -- Stationary point found.

                         Standard orientation:
 ---------------------------------------------------------------------
 Center     Atomic      Atomic             Coordinates (Angstroms)
 Number     Number       Type             X           Y           Z
 ---------------------------------------------------------------------
      1          6           0       -2.926093   -2.896284    0.571529
      2          6           0       -2.438190   -1.513350    0.324780
      3          6           0       -3.353546   -0.476096    0.054229
      4          6           0       -4.739369   -0.731205    0.022225
      5          6           0       -5.256412   -2.105571    0.268193
      6          6           0       -1.098840   -1.246415    0.388398
      7          6           0       -2.864212    0.824861   -0.188294
      8          6           0       -1.467040    1.081791   -0.160334
      9          6           0       -0.584178    0.058525    0.172437
     10          6           0       -0.994947    2.437237   -0.578577
     11          6           0       -3.343526    3.241653   -0.700819
     12          6           0       -3.799505    1.851799   -0.447754
     13          6           0       -5.149830    1.585991   -0.467071
     14          6           0       -5.626346    0.287793   -0.234300
     15          1           0       -6.687224    0.071064   -0.252035
     16          1           0       -5.834276    2.401819   -0.664773
     17          1           0       -0.416391   -2.051132    0.635460
     18          7           0       -1.966721    3.436451   -0.730661
     19          7           0       -4.305323   -3.097739    0.521561
     20          8           0       -2.178867   -3.818168    0.806082
     21          8           0       -6.439894   -2.355276    0.248704
     22          8           0       -4.121210    4.151869   -0.883089
     23          8           0        0.160511    2.708308   -0.801844
     24          6           0       -1.464387    4.768025   -1.067349
     25          1           0       -0.683752    5.049008   -0.361985
     26          1           0       -1.039230    4.767547   -2.072076
     27          1           0       -2.297373    5.462732   -1.015578
     28          6           0       -4.765650   -4.464319    0.765241
     29          1           0       -4.318796   -5.137831    0.033995
     30          1           0       -4.461883   -4.783602    1.762426
     31          1           0       -5.847942   -4.474662    0.678867
     32          6           0        0.864872    0.234267    0.357109
     33          6           0        1.498066    1.037135    1.259429
     34         16           0        1.981943   -0.739673   -0.527621
     35          6           0        2.905269    0.882365    1.221222
     36          1           0        0.970891    1.718229    1.911959
     37          6           0        3.344528   -0.043071    0.298095
     38          8           0        3.801761    1.538961    1.994534
     39          6           0        4.711848   -0.406268   -0.005806
     40          6           0        3.327421    2.632747    2.752378
     41          6           0        5.142126   -1.359597   -0.903301
     42         16           0        6.086166    0.356946    0.744286
     43          1           0        4.202700    3.079861    3.220437
     44          1           0        2.837120    3.372836    2.110806
     45          1           0        2.632344    2.302994    3.532611
     46          6           0        6.557015   -1.475749   -0.989747
     47          8           0        4.233417   -2.078725   -1.603572
     48          6           0        7.184976   -0.604624   -0.152192
     49          1           0        7.080604   -2.166466   -1.634879
     50          6           0        4.720122   -3.044567   -2.511510
     51          1           0        8.247849   -0.480557   -0.010582
     52          1           0        5.306390   -3.812828   -1.995662
     53          1           0        3.843068   -3.504428   -2.963444
     54          1           0        5.329697   -2.580125   -3.294287
 ---------------------------------------------------------------------

 The electronic state is 1-A.
 Alpha  occ. eigenvalues --  -89.04727 -89.04315 -19.28749 -19.28650 -19.25146
 Alpha  occ. eigenvalues --  -19.25086 -19.24797 -19.24733 -14.50692 -14.50380
 Alpha  occ. eigenvalues --  -10.42940 -10.42711 -10.42680 -10.42550 -10.35232
 Alpha  occ. eigenvalues --  -10.35060 -10.35011 -10.34555 -10.34441 -10.34328
 Alpha  occ. eigenvalues --  -10.34260 -10.34259 -10.33988 -10.33932 -10.33869
 Alpha  occ. eigenvalues --  -10.32986 -10.32976 -10.32921 -10.32790 -10.32465
 Alpha  occ. eigenvalues --  -10.32303 -10.32163 -10.32064 -10.31429 -10.29633
 Alpha  occ. eigenvalues --  -10.29363  -8.08743  -8.08337  -6.03596  -6.03198
 Alpha  occ. eigenvalues --   -6.03180  -6.02812  -6.02784  -6.02426  -1.19606
 Alpha  occ. eigenvalues --   -1.19413  -1.18455  -1.18352  -1.17700  -1.17461
 Alpha  occ. eigenvalues --   -1.06864  -1.06495  -1.03377  -1.00419  -0.98776
 Alpha  occ. eigenvalues --   -0.97194  -0.94881  -0.90540  -0.88833  -0.87213
 Alpha  occ. eigenvalues --   -0.85829  -0.85384  -0.84492  -0.82734  -0.82221
 Alpha  occ. eigenvalues --   -0.81503  -0.79432  -0.78261  -0.77003  -0.75694
 Alpha  occ. eigenvalues --   -0.75278  -0.74350  -0.70201  -0.68744  -0.67840
 Alpha  occ. eigenvalues --   -0.66754  -0.65625  -0.64895  -0.64640  -0.63311
 Alpha  occ. eigenvalues --   -0.62653  -0.60833  -0.59858  -0.59299  -0.58973
 Alpha  occ. eigenvalues --   -0.58124  -0.57774  -0.57402  -0.57169  -0.56820
 Alpha  occ. eigenvalues --   -0.56425  -0.56076  -0.55521  -0.55337  -0.54267
 Alpha  occ. eigenvalues --   -0.54067  -0.53542  -0.53444  -0.53213  -0.52399
 Alpha  occ. eigenvalues --   -0.51642  -0.51203  -0.51133  -0.50357  -0.50352
 Alpha  occ. eigenvalues --   -0.49839  -0.49601  -0.49314  -0.48974  -0.48420
 Alpha  occ. eigenvalues --   -0.48265  -0.47329  -0.46885  -0.45826  -0.45281
 Alpha  occ. eigenvalues --   -0.44190  -0.43773  -0.42278  -0.41606  -0.41200
 Alpha  occ. eigenvalues --   -0.40847  -0.40389  -0.39750  -0.38650  -0.37653
 Alpha  occ. eigenvalues --   -0.37449  -0.37064  -0.37023  -0.36203  -0.34752
 Alpha  occ. eigenvalues --   -0.33326  -0.31597  -0.31364  -0.25472
 Alpha virt. eigenvalues --   -0.07257  -0.00222   0.00487   0.02227   0.03051
 Alpha virt. eigenvalues --    0.04994   0.05878   0.06048   0.06786   0.06882
 Alpha virt. eigenvalues --    0.07302   0.07509   0.07623   0.07742   0.07797

 Mulliken charges:
               1
     1  C    0.468602
     2  C   -0.099042
     3  C    0.071644
     4  C    0.184113
     5  C    0.353078
     6  C   -0.827433
     7  C    0.133149
     8  C    0.207899
     9  C    0.563044
    10  C   -0.410100
    11  C    0.393326
    12  C    0.110224
    13  C   -0.572336
    14  C   -0.724993
    15  H    0.188295
    16  H    0.189252
    17  H    0.208902
    18  N   -0.055819
    19  N   -0.095820
    20  O   -0.260118
    21  O   -0.267583
    22  O   -0.274163
    23  O   -0.123999
    24  C   -0.264751
    25  H    0.188411
    26  H    0.201839
    27  H    0.201024
    28  C   -0.282552
    29  H    0.193048
    30  H    0.194887
    31  H    0.200764
    32  C    0.209877
    33  C   -0.295204
    34  S   -0.480366
    35  C   -0.335286
    36  H    0.147117
    37  C    0.465221
    38  O   -0.103909
    39  C    0.899434
    40  C   -0.306552
    41  C    0.030513
    42  S   -0.279856
    43  H    0.181599
    44  H    0.174170
    45  H    0.155075
    46  C   -0.513678
    47  O   -0.115320
    48  C   -0.355544
    49  H    0.155177
    50  C   -0.305484
    51  H    0.185327
    52  H    0.156480
    53  H    0.179801
    54  H    0.158618
 Sum of Mulliken charges =  -0.00000

 Dipole moment (field-independent basis, Debye):
    X=              1.7949    Y=              0.0058    Z=              0.1129  Tot=              1.7985
 Quadrupole moment (field-independent basis, Debye-Ang):
   XX=           -216.9612   YY=           -215.7251   ZZ=           -210.5378
   XY=             -2.3840   XZ=             -6.3768   YZ=             16.2910

 Normal termination of Gaussian 16 at Fri Nov 27 05:06:40 2020.
