 Gaussian 16, Revision C.01,
 Gaussian 16:  ES64L-G16RevC.01  3-Jul-2019

 --------------------------------------
 # opt=modredundant wb97xd/6-311+g(d,p)
 --------------------------------------

 -----------
 NDI_-50.pdb
 -----------
 Symbolic Z-matrix:
 Charge =  0 Multiplicity = 1

 SCF Done:  E(RwB97XD) =  -2358.76933070     A.U. after   19 cycles
 SCF Done:  E(RwB97XD) =  -2358.77296322     A.U. after   17 cycles
 SCF Done:  E(RwB97XD) =  -2358.77343695     A.U. after   16 cycles
 SCF Done:  E(RwB97XD) =  -2358.77397049     A.U. after   16 cycles
 SCF Done:  E(RwB97XD) =  -2358.77408023     A.U. after   14 cycles
 SCF Done:  E(RwB97XD) =  -2358.77414990     A.U. after   14 cycles
 SCF Done:  E(RwB97XD) =  -2358.77418876     A.U. after   14 cycles
 SCF Done:  E(RwB97XD) =  -2358.77421749     A.U. after   14 cycles
 SCF Done:  E(RwB97XD) =  -2358.77422788     A.U. after   14 cycles
 SCF Done:  E(RwB97XD) =  -2358.77424135     A.U. after   12 cycles
 SCF Done:  E(RwB97XD) =  -2358.77427244     A.U. after   11 cycles
 SCF Done:  E(RwB97XD) =  -2358.77427272     A.U. after   11 cycles
 SCF Done:  E(RwB97XD) =  -2358.77427288     A.U. after   10 cycles
 SCF Done:  E(RwB97XD) =  -2358.77427301     A.U. after   11 cycles
 SCF Done:  E(RwB97XD) =  -2358.77427309     A.U. after   12 cycles
 SCF Done:  E(RwB97XD) =  -2358.77427317     A.U. after   11 cycles
 SCF Done:  E(RwB97XD) =  -2358.77427323     A.U. after   11 cycles
 SCF Done:  E(RwB97XD) =  -2358.77427325     A.U. after    9 cycles
 SCF Done:  E(RwB97XD) =  -2358.77427326     A.U. after   11 cycles
 SCF Done:  E(RwB97XD) =  -2358.77427327     A.U. after    8 cycles
 Optimization completed.
    -- Stationary point found.

                         Standard orientation:
 ---------------------------------------------------------------------
 Center     Atomic      Atomic             Coordinates (Angstroms)
 Number     Number       Type             X           Y           Z
 ---------------------------------------------------------------------
      1          6           0        2.819177   -2.934782    0.509396
      2          6           0        2.381245   -1.532252    0.279664
      3          6           0        3.334864   -0.517099    0.061886
      4          6           0        4.712183   -0.813539    0.068935
      5          6           0        5.179969   -2.207866    0.300530
      6          6           0        1.050573   -1.226688    0.312675
      7          6           0        2.889477    0.802073   -0.167358
      8          6           0        1.499073    1.101252   -0.177575
      9          6           0        0.574739    0.097363    0.111244
     10          6           0        1.087537    2.473327   -0.603708
     11          6           0        3.461016    3.211452   -0.614844
     12          6           0        3.864243    1.804150   -0.374581
     13          6           0        5.206610    1.498402   -0.355145
     14          6           0        5.637779    0.182951   -0.135929
     15          1           0        6.691766   -0.065244   -0.124171
     16          1           0        5.920194    2.297852   -0.512540
     17          1           0        0.342784   -2.018335    0.528442
     18          7           0        2.093118    3.445463   -0.703072
     19          7           0        4.192538   -3.176158    0.502835
     20          8           0        2.037367   -3.839143    0.695017
     21          8           0        6.355480   -2.493225    0.312330
     22          8           0        4.271137    4.102652   -0.742978
     23          8           0       -0.047452    2.783589   -0.878905
     24          6           0        1.643906    4.794263   -1.045675
     25          1           0        1.241556    4.810641   -2.059464
     26          1           0        0.857795    5.101214   -0.357083
     27          1           0        2.499146    5.459363   -0.971935
     28          6           0        4.604722   -4.560630    0.730721
     29          1           0        4.235791   -4.899620    1.698826
     30          1           0        4.185284   -5.201965   -0.044632
     31          1           0        5.689654   -4.596206    0.705198
     32          6           0       -0.868930    0.302294    0.278906
     33          6           0       -1.505898    1.223196    1.060331
     34         16           0       -1.992294   -0.782662   -0.464244
     35          6           0       -2.910339    1.064701    1.046748
     36          1           0       -0.981587    1.988438    1.613411
     37          6           0       -3.351447    0.020467    0.258700
     38          8           0       -3.806546    1.821568    1.721738
     39          6           0       -4.719079   -0.378617    0.010059
     40          6           0       -3.330676    3.008831    2.322536
     41          6           0       -5.151994   -1.444889   -0.749155
     42         16           0       -6.091114    0.479685    0.654557
     43          1           0       -4.205985    3.518940    2.720859
     44          1           0       -2.639358    2.787659    3.143357
     45          1           0       -2.835286    3.650641    1.586145
     46          6           0       -6.567022   -1.571201   -0.814168
     47          8           0       -4.245945   -2.251354   -1.348955
     48          6           0       -7.192047   -0.594412   -0.099910
     49          1           0       -7.092913   -2.342569   -1.358020
     50          6           0       -4.734438   -3.336491   -2.109798
     51          1           0       -8.254528   -0.452102    0.026919
     52          1           0       -5.349180   -2.987630   -2.946635
     53          1           0       -3.858187   -3.853174   -2.497156
     54          1           0       -5.315822   -4.025651   -1.487766
 ---------------------------------------------------------------------

 The electronic state is 1-A.
 Alpha  occ. eigenvalues --  -89.04866 -89.04479 -19.28919 -19.28763 -19.25079
 Alpha  occ. eigenvalues --  -19.25028 -19.24688 -19.24620 -14.50629 -14.50298
 Alpha  occ. eigenvalues --  -10.42867 -10.42648 -10.42618 -10.42433 -10.35278
 Alpha  occ. eigenvalues --  -10.35222 -10.35204 -10.34468 -10.34438 -10.34310
 Alpha  occ. eigenvalues --  -10.34293 -10.34109 -10.33878 -10.33832 -10.33720
 Alpha  occ. eigenvalues --  -10.32890 -10.32851 -10.32833 -10.32777 -10.32760
 Alpha  occ. eigenvalues --  -10.32255 -10.32229 -10.32127 -10.31615 -10.29784
 Alpha  occ. eigenvalues --  -10.29517  -8.08887  -8.08500  -6.03737  -6.03343
 Alpha  occ. eigenvalues --   -6.03341  -6.02959  -6.02947  -6.02589  -1.19543
 Alpha  occ. eigenvalues --   -1.19326  -1.18626  -1.18482  -1.17635  -1.17360
 Alpha  occ. eigenvalues --   -1.06797  -1.06405  -1.03263  -1.00545  -0.98885
 Alpha  occ. eigenvalues --   -0.97160  -0.94774  -0.90540  -0.88739  -0.87316
 Alpha  occ. eigenvalues --   -0.85933  -0.85320  -0.84652  -0.82754  -0.82255
 Alpha  occ. eigenvalues --   -0.81511  -0.79515  -0.78306  -0.76945  -0.75606
 Alpha  occ. eigenvalues --   -0.75232  -0.74297  -0.70233  -0.68818  -0.67883
 Alpha  occ. eigenvalues --   -0.66679  -0.65692  -0.65005  -0.64627  -0.63465
 Alpha  occ. eigenvalues --   -0.62565  -0.60767  -0.59799  -0.59255  -0.58895
 Alpha  occ. eigenvalues --   -0.58210  -0.57731  -0.57356  -0.57282  -0.56921
 Alpha  occ. eigenvalues --   -0.56505  -0.55962  -0.55483  -0.55262  -0.54327
 Alpha  occ. eigenvalues --   -0.54024  -0.53498  -0.53406  -0.53268  -0.52314
 Alpha  occ. eigenvalues --   -0.51617  -0.51147  -0.51064  -0.50472  -0.50322
 Alpha  occ. eigenvalues --   -0.49969  -0.49560  -0.49387  -0.48926  -0.48389
 Alpha  occ. eigenvalues --   -0.48168  -0.47514  -0.46909  -0.45766  -0.45453
 Alpha  occ. eigenvalues --   -0.44254  -0.43916  -0.42371  -0.41732  -0.41288
 Alpha  occ. eigenvalues --   -0.40981  -0.40290  -0.39696  -0.38613  -0.37674
 Alpha  occ. eigenvalues --   -0.37389  -0.37042  -0.36982  -0.36253  -0.34684
 Alpha  occ. eigenvalues --   -0.33229  -0.31672  -0.31478  -0.25546
 Alpha virt. eigenvalues --   -0.07235  -0.00426   0.00458   0.02288   0.03264
 Alpha virt. eigenvalues --    0.05080   0.05814   0.06038   0.06798   0.06921
 Alpha virt. eigenvalues --    0.07288   0.07539   0.07674   0.07746   0.07892

 Mulliken charges:
               1
     1  C    0.454833
     2  C   -0.135737
     3  C    0.086348
     4  C    0.188452
     5  C    0.354596
     6  C   -0.619628
     7  C    0.140710
     8  C    0.245800
     9  C    0.450655
    10  C   -0.413386
    11  C    0.281298
    12  C    0.116047
    13  C   -0.512251
    14  C   -0.679804
    15  H    0.187860
    16  H    0.188287
    17  H    0.208527
    18  N   -0.038070
    19  N   -0.093493
    20  O   -0.263084
    21  O   -0.266749
    22  O   -0.273705
    23  O   -0.157713
    24  C   -0.269771
    25  H    0.200222
    26  H    0.186241
    27  H    0.200743
    28  C   -0.283385
    29  H    0.193810
    30  H    0.193475
    31  H    0.200123
    32  C    0.169722
    33  C   -0.400135
    34  S   -0.581918
    35  C   -0.091685
    36  H    0.151057
    37  C    0.630688
    38  O   -0.113907
    39  C    0.812515
    40  C   -0.309544
    41  C   -0.012642
    42  S   -0.295762
    43  H    0.181348
    44  H    0.154791
    45  H    0.175745
    46  C   -0.616525
    47  O   -0.113097
    48  C   -0.344334
    49  H    0.155935
    50  C   -0.305847
    51  H    0.185860
    52  H    0.158017
    53  H    0.181023
    54  H    0.157444
 Sum of Mulliken charges =  -0.00000

 Dipole moment (field-independent basis, Debye):
    X=             -2.2640    Y=             -0.1262    Z=              0.1598  Tot=              2.2732
 Quadrupole moment (field-independent basis, Debye-Ang):
   XX=           -216.1597   YY=           -212.1864   ZZ=           -214.1914
   XY=              3.2291   XZ=              5.0257   YZ=             15.1364

 Normal termination of Gaussian 16 at Thu Nov 26 21:57:49 2020.
