 Gaussian 16, Revision C.01,
 Gaussian 16:  ES64L-G16RevC.01  3-Jul-2019

 --------------------------------------
 # opt=modredundant wb97xd/6-311+g(d,p)
 --------------------------------------

 -----------
 NDI_-20.pdb
 -----------
 Symbolic Z-matrix:
 Charge =  0 Multiplicity = 1

 SCF Done:  E(RwB97XD) =  -2358.76461779     A.U. after   20 cycles
 SCF Done:  E(RwB97XD) =  -2358.75050316     A.U. after   20 cycles
 SCF Done:  E(RwB97XD) =  -2358.76777493     A.U. after   16 cycles
 SCF Done:  E(RwB97XD) =  -2358.76988877     A.U. after   18 cycles
 SCF Done:  E(RwB97XD) =  -2358.77113784     A.U. after   18 cycles
 SCF Done:  E(RwB97XD) =  -2358.77133259     A.U. after   16 cycles
 SCF Done:  E(RwB97XD) =  -2358.77174120     A.U. after   16 cycles
 SCF Done:  E(RwB97XD) =  -2358.77196678     A.U. after   17 cycles
 SCF Done:  E(RwB97XD) =  -2358.77204900     A.U. after   14 cycles
 SCF Done:  E(RwB97XD) =  -2358.77207875     A.U. after   14 cycles
 SCF Done:  E(RwB97XD) =  -2358.77210879     A.U. after   15 cycles
 SCF Done:  E(RwB97XD) =  -2358.77212293     A.U. after   14 cycles
 SCF Done:  E(RwB97XD) =  -2358.77213925     A.U. after   14 cycles
 SCF Done:  E(RwB97XD) =  -2358.77214980     A.U. after   14 cycles
 SCF Done:  E(RwB97XD) =  -2358.77216298     A.U. after   14 cycles
 SCF Done:  E(RwB97XD) =  -2358.77216710     A.U. after   13 cycles
 SCF Done:  E(RwB97XD) =  -2358.77216802     A.U. after   11 cycles
 SCF Done:  E(RwB97XD) =  -2358.77216843     A.U. after   13 cycles
 SCF Done:  E(RwB97XD) =  -2358.77216856     A.U. after   11 cycles
 SCF Done:  E(RwB97XD) =  -2358.77216861     A.U. after   10 cycles
 Optimization completed.
    -- Stationary point found.

                         Standard orientation:
 ---------------------------------------------------------------------
 Center     Atomic      Atomic             Coordinates (Angstroms)
 Number     Number       Type             X           Y           Z
 ---------------------------------------------------------------------
      1          6           0        2.627485   -3.010444    0.211821
      2          6           0        2.281228   -1.569808    0.086682
      3          6           0        3.298544   -0.594460    0.047187
      4          6           0        4.651991   -0.966558    0.144324
      5          6           0        5.029166   -2.400622    0.275065
      6          6           0        0.971986   -1.194226    0.061642
      7          6           0        2.931514    0.760203   -0.092658
      8          6           0        1.560682    1.136971   -0.193264
      9          6           0        0.558267    0.165980   -0.054757
     10          6           0        1.285583    2.544177   -0.605310
     11          6           0        3.659334    3.163906   -0.236292
     12          6           0        3.968760    1.720731   -0.107461
     13          6           0        5.288991    1.341969    0.005637
     14          6           0        5.639521   -0.007976    0.125593
     15          1           0        6.675132   -0.313433    0.206705
     16          1           0        6.047788    2.114841   -0.000126
     17          1           0        0.228761   -1.976067    0.163665
     18          7           0        2.324526    3.474984   -0.468593
     19          7           0        3.982267   -3.327495    0.293628
     20          8           0        1.788928   -3.882534    0.242359
     21          8           0        6.183476   -2.752618    0.359171
     22          8           0        4.512832    4.021184   -0.171262
     23          8           0        0.232909    2.921979   -1.068189
     24          6           0        1.984502    4.865301   -0.766397
     25          1           0        1.788125    4.987677   -1.832680
     26          1           0        1.087856    5.144786   -0.215265
     27          1           0        2.825536    5.484936   -0.469460
     28          6           0        4.306186   -4.748182    0.415274
     29          1           0        3.847529   -5.154830    1.316801
     30          1           0        3.916402   -5.289266   -0.447041
     31          1           0        5.386738   -4.842746    0.465141
     32          6           0       -0.873081    0.409266    0.127042
     33          6           0       -1.530571    1.531136    0.562030
     34         16           0       -2.010270   -0.845466   -0.273596
     35          6           0       -2.929111    1.374321    0.591526
     36          1           0       -1.028100    2.435535    0.860826
     37          6           0       -3.367719    0.135808    0.158427
     38          8           0       -3.829342    2.301207    0.990474
     39          6           0       -4.732487   -0.324800    0.053568
     40          6           0       -3.347148    3.604888    1.250573
     41          6           0       -5.162934   -1.568312   -0.362051
     42         16           0       -6.105966    0.672254    0.448205
     43          1           0       -4.223643    4.214819    1.461526
     44          1           0       -2.683683    3.613411    2.122417
     45          1           0       -2.817977    4.008816    0.381031
     46          6           0       -6.576657   -1.718300   -0.363524
     47          8           0       -4.256292   -2.503672   -0.720463
     48          6           0       -7.202274   -0.581885    0.052308
     49          1           0       -7.101239   -2.616492   -0.655500
     50          6           0       -4.738774   -3.768819   -1.125873
     51          1           0       -8.264734   -0.416784    0.148671
     52          1           0       -5.369062   -3.683412   -2.017475
     53          1           0       -3.859705   -4.365871   -1.360972
     54          1           0       -5.301511   -4.252916   -0.320623
 ---------------------------------------------------------------------

 The electronic state is 1-A.
 Alpha  occ. eigenvalues --  -89.05148 -89.04885 -19.29315 -19.29059 -19.24918
 Alpha  occ. eigenvalues --  -19.24892 -19.24527 -19.24461 -14.50480 -14.50133
 Alpha  occ. eigenvalues --  -10.42694 -10.42519 -10.42500 -10.42172 -10.35731
 Alpha  occ. eigenvalues --  -10.35536 -10.35470 -10.34687 -10.34449 -10.34249
 Alpha  occ. eigenvalues --  -10.33959 -10.33740 -10.33610 -10.33570 -10.33439
 Alpha  occ. eigenvalues --  -10.33385 -10.33154 -10.32742 -10.32624 -10.32518
 Alpha  occ. eigenvalues --  -10.32429 -10.32144 -10.32133 -10.32067 -10.30055
 Alpha  occ. eigenvalues --  -10.29890  -8.09181  -8.08906  -6.04028  -6.03749
 Alpha  occ. eigenvalues --   -6.03630  -6.03352  -6.03256  -6.02994  -1.19388
 Alpha  occ. eigenvalues --   -1.19193  -1.19042  -1.18797  -1.17478  -1.17180
 Alpha  occ. eigenvalues --   -1.06639  -1.06268  -1.03014  -1.00838  -0.99161
 Alpha  occ. eigenvalues --   -0.97055  -0.94539  -0.90560  -0.88542  -0.87568
 Alpha  occ. eigenvalues --   -0.86179  -0.85189  -0.85008  -0.82926  -0.82270
 Alpha  occ. eigenvalues --   -0.81525  -0.79732  -0.78397  -0.76825  -0.75422
 Alpha  occ. eigenvalues --   -0.75163  -0.74167  -0.70329  -0.69033  -0.67970
 Alpha  occ. eigenvalues --   -0.66537  -0.65850  -0.65351  -0.64544  -0.63850
 Alpha  occ. eigenvalues --   -0.62399  -0.60639  -0.59703  -0.59212  -0.58728
 Alpha  occ. eigenvalues --   -0.58337  -0.57675  -0.57564  -0.57291  -0.57156
 Alpha  occ. eigenvalues --   -0.56710  -0.55766  -0.55431  -0.55129  -0.54493
 Alpha  occ. eigenvalues --   -0.53887  -0.53667  -0.53405  -0.53108  -0.51958
 Alpha  occ. eigenvalues --   -0.51667  -0.51141  -0.50927  -0.50671  -0.50418
 Alpha  occ. eigenvalues --   -0.50176  -0.49509  -0.49470  -0.48880  -0.48445
 Alpha  occ. eigenvalues --   -0.47969  -0.47785  -0.46980  -0.45924  -0.45494
 Alpha  occ. eigenvalues --   -0.44542  -0.44240  -0.42546  -0.41981  -0.41392
 Alpha  occ. eigenvalues --   -0.41301  -0.40075  -0.39581  -0.38542  -0.37765
 Alpha  occ. eigenvalues --   -0.37251  -0.37047  -0.36794  -0.36358  -0.34556
 Alpha  occ. eigenvalues --   -0.33112  -0.31905  -0.31705  -0.25705
 Alpha virt. eigenvalues --   -0.07159  -0.01089   0.00560   0.02507   0.03561
 Alpha virt. eigenvalues --    0.05197   0.05685   0.06027   0.06724   0.07064
 Alpha virt. eigenvalues --    0.07167   0.07378   0.07816   0.08010   0.08088

 Mulliken charges:
               1
     1  C    0.373645
     2  C   -0.120776
     3  C    0.153167
     4  C    0.186128
     5  C    0.364719
     6  C   -0.088063
     7  C    0.151819
     8  C    0.559232
     9  C    0.225782
    10  C   -0.869910
    11  C    0.298372
    12  C    0.081980
    13  C   -0.539056
    14  C   -0.663778
    15  H    0.186764
    16  H    0.187857
    17  H    0.193261
    18  N    0.046599
    19  N   -0.088645
    20  O   -0.269863
    21  O   -0.265774
    22  O   -0.278799
    23  O   -0.221643
    24  C   -0.250559
    25  H    0.201250
    26  H    0.180974
    27  H    0.200885
    28  C   -0.285104
    29  H    0.193477
    30  H    0.192570
    31  H    0.199698
    32  C    0.005704
    33  C   -0.412916
    34  S   -0.742964
    35  C   -0.177989
    36  H    0.158128
    37  C    0.681230
    38  O   -0.105781
    39  C    0.964364
    40  C   -0.315403
    41  C    0.040393
    42  S   -0.264481
    43  H    0.182908
    44  H    0.156836
    45  H    0.179459
    46  C   -0.661097
    47  O   -0.110000
    48  C   -0.353567
    49  H    0.157543
    50  C   -0.308585
    51  H    0.188265
    52  H    0.157539
    53  H    0.184904
    54  H    0.159301
 Sum of Mulliken charges =  -0.00000

 Dipole moment (field-independent basis, Debye):
    X=             -3.4102    Y=             -0.3605    Z=              0.3200  Tot=              3.4441
 Quadrupole moment (field-independent basis, Debye-Ang):
   XX=           -213.8153   YY=           -205.8116   ZZ=           -221.1827
   XY=              4.6359   XZ=              0.6459   YZ=              9.3086

 Normal termination of Gaussian 16 at Thu Nov 26 23:40:30 2020.
