 Gaussian 16, Revision C.01,
 Gaussian 16:  ES64L-G16RevC.01  3-Jul-2019

 --------------------------------------
 # opt=modredundant wb97xd/6-311+g(d,p)
 --------------------------------------

 ----------
 NDI_25.pdb
 ----------
 Symbolic Z-matrix:
 Charge =  0 Multiplicity = 1

 SCF Done:  E(RwB97XD) =  -2358.75896088     A.U. after   19 cycles
 SCF Done:  E(RwB97XD) =  -2358.75186224     A.U. after   20 cycles
 SCF Done:  E(RwB97XD) =  -2358.76607262     A.U. after   16 cycles
 SCF Done:  E(RwB97XD) =  -2358.76983391     A.U. after   17 cycles
 SCF Done:  E(RwB97XD) =  -2358.76986052     A.U. after   16 cycles
 SCF Done:  E(RwB97XD) =  -2358.77083617     A.U. after   15 cycles
 SCF Done:  E(RwB97XD) =  -2358.77113666     A.U. after   15 cycles
 SCF Done:  E(RwB97XD) =  -2358.77146036     A.U. after   17 cycles
 SCF Done:  E(RwB97XD) =  -2358.77197794     A.U. after   16 cycles
 SCF Done:  E(RwB97XD) =  -2358.77215794     A.U. after   18 cycles
 SCF Done:  E(RwB97XD) =  -2358.77284947     A.U. after   14 cycles
 SCF Done:  E(RwB97XD) =  -2358.77285405     A.U. after   13 cycles
 SCF Done:  E(RwB97XD) =  -2358.77285670     A.U. after   14 cycles
 SCF Done:  E(RwB97XD) =  -2358.77285728     A.U. after   11 cycles
 SCF Done:  E(RwB97XD) =  -2358.77285743     A.U. after   12 cycles
 SCF Done:  E(RwB97XD) =  -2358.77285753     A.U. after    9 cycles
 SCF Done:  E(RwB97XD) =  -2358.77285758     A.U. after    9 cycles
 SCF Done:  E(RwB97XD) =  -2358.77285761     A.U. after   11 cycles
 SCF Done:  E(RwB97XD) =  -2358.77285762     A.U. after   10 cycles
 SCF Done:  E(RwB97XD) =  -2358.77285764     A.U. after   11 cycles
 Optimization completed.
    -- Stationary point found.

                         Standard orientation:
 ---------------------------------------------------------------------
 Center     Atomic      Atomic             Coordinates (Angstroms)
 Number     Number       Type             X           Y           Z
 ---------------------------------------------------------------------
      1          6           0       -2.661500   -3.000654    0.270406
      2          6           0       -2.298760   -1.566069    0.123692
      3          6           0       -3.305506   -0.581575    0.051514
      4          6           0       -4.664187   -0.939034    0.133743
      5          6           0       -5.057700   -2.366759    0.284753
      6          6           0       -0.985094   -1.203807    0.108343
      7          6           0       -2.924361    0.767447   -0.106139
      8          6           0       -1.548996    1.129295   -0.191600
      9          6           0       -0.560275    0.150465   -0.025415
     10          6           0       -1.248478    2.529543   -0.611777
     11          6           0       -3.625905    3.174785   -0.308602
     12          6           0       -3.951693    1.737211   -0.156641
     13          6           0       -5.276980    1.372657   -0.059154
     14          6           0       -5.641785    0.028185    0.080800
     15          1           0       -6.681441   -0.266236    0.150423
     16          1           0       -6.028645    2.151728   -0.093151
     17          1           0       -0.247464   -1.987644    0.233568
     18          7           0       -2.283629    3.470158   -0.517842
     19          7           0       -4.020567   -3.303138    0.336381
     20          8           0       -1.832286   -3.879983    0.330897
     21          8           0       -6.216686   -2.705694    0.357495
     22          8           0       -4.473069    4.040223   -0.278484
     23          8           0       -0.178771    2.893111   -1.045133
     24          6           0       -1.923873    4.852626   -0.829005
     25          1           0       -1.044926    5.136995   -0.252340
     26          1           0       -1.689528    4.953336   -1.889828
     27          1           0       -2.770414    5.482885   -0.573011
     28          6           0       -4.360094   -4.718228    0.479237
     29          1           0       -3.957260   -5.279576   -0.363864
     30          1           0       -3.924104   -5.111018    1.398033
     31          1           0       -5.442225   -4.802571    0.508330
     32          6           0        0.872412    0.387220    0.154273
     33          6           0        1.524001    1.486269    0.648875
     34         16           0        2.009198   -0.844785   -0.305166
     35          6           0        2.923670    1.331574    0.670512
     36          1           0        1.015540    2.371787    0.993081
     37          6           0        3.364978    0.117490    0.175978
     38          8           0        3.821876    2.238799    1.116897
     39          6           0        4.731139   -0.333169    0.045332
     40          6           0        3.339113    3.530606    1.429184
     41          6           0        5.164037   -1.555270   -0.426807
     42         16           0        6.102882    0.650522    0.477422
     43          1           0        4.214756    4.130592    1.670178
     44          1           0        2.814818    3.971161    0.574557
     45          1           0        2.671239    3.503257    2.297289
     46          6           0        6.578305   -1.699835   -0.441540
     47          8           0        4.258803   -2.477274   -0.822655
     48          6           0        7.202041   -0.580679    0.021103
     49          1           0        7.104549   -2.582403   -0.775260
     50          6           0        4.743866   -3.723428   -1.280030
     51          1           0        8.264326   -0.416152    0.120205
     52          1           0        5.311415   -4.237405   -0.496951
     53          1           0        3.865927   -4.313786   -1.535478
     54          1           0        5.370335   -3.600507   -2.169974
 ---------------------------------------------------------------------

 The electronic state is 1-A.
 Alpha  occ. eigenvalues --  -89.05115 -89.04827 -19.29261 -19.29018 -19.24939
 Alpha  occ. eigenvalues --  -19.24911 -19.24519 -19.24489 -14.50501 -14.50150
 Alpha  occ. eigenvalues --  -10.42718 -10.42524 -10.42520 -10.42206 -10.35658
 Alpha  occ. eigenvalues --  -10.35495 -10.35421 -10.34655 -10.34433 -10.34278
 Alpha  occ. eigenvalues --  -10.33997 -10.33794 -10.33648 -10.33610 -10.33430
 Alpha  occ. eigenvalues --  -10.33347 -10.33086 -10.32756 -10.32567 -10.32561
 Alpha  occ. eigenvalues --  -10.32476 -10.32160 -10.32124 -10.32003 -10.30035
 Alpha  occ. eigenvalues --  -10.29837  -8.09146  -8.08848  -6.03993  -6.03691
 Alpha  occ. eigenvalues --   -6.03596  -6.03294  -6.03221  -6.02936  -1.19409
 Alpha  occ. eigenvalues --   -1.19199  -1.18984  -1.18755  -1.17499  -1.17196
 Alpha  occ. eigenvalues --   -1.06660  -1.06276  -1.03046  -1.00799  -0.99122
 Alpha  occ. eigenvalues --   -0.97071  -0.94570  -0.90555  -0.88566  -0.87533
 Alpha  occ. eigenvalues --   -0.86146  -0.85203  -0.84964  -0.82894  -0.82271
 Alpha  occ. eigenvalues --   -0.81521  -0.79701  -0.78386  -0.76836  -0.75444
 Alpha  occ. eigenvalues --   -0.75167  -0.74185  -0.70313  -0.69001  -0.67955
 Alpha  occ. eigenvalues --   -0.66553  -0.65831  -0.65300  -0.64552  -0.63796
 Alpha  occ. eigenvalues --   -0.62420  -0.60654  -0.59710  -0.59212  -0.58748
 Alpha  occ. eigenvalues --   -0.58321  -0.57676  -0.57529  -0.57294  -0.57127
 Alpha  occ. eigenvalues --   -0.56683  -0.55778  -0.55440  -0.55141  -0.54469
 Alpha  occ. eigenvalues --   -0.53912  -0.53630  -0.53404  -0.53133  -0.52029
 Alpha  occ. eigenvalues --   -0.51645  -0.51128  -0.50935  -0.50651  -0.50386
 Alpha  occ. eigenvalues --   -0.50163  -0.49511  -0.49467  -0.48878  -0.48431
 Alpha  occ. eigenvalues --   -0.47993  -0.47757  -0.46981  -0.45878  -0.45525
 Alpha  occ. eigenvalues --   -0.44476  -0.44212  -0.42525  -0.41954  -0.41362
 Alpha  occ. eigenvalues --   -0.41289  -0.40102  -0.39595  -0.38550  -0.37744
 Alpha  occ. eigenvalues --   -0.37271  -0.37044  -0.36823  -0.36342  -0.34568
 Alpha  occ. eigenvalues --   -0.33114  -0.31867  -0.31677  -0.25684
 Alpha virt. eigenvalues --   -0.07172  -0.00983   0.00540   0.02474   0.03530
 Alpha virt. eigenvalues --    0.05179   0.05698   0.06025   0.06734   0.07045
 Alpha virt. eigenvalues --    0.07193   0.07402   0.07795   0.07962   0.08055

 Mulliken charges:
               1
     1  C    0.384700
     2  C   -0.130606
     3  C    0.143038
     4  C    0.185932
     5  C    0.362514
     6  C   -0.191246
     7  C    0.145332
     8  C    0.534746
     9  C    0.270348
    10  C   -0.772569
    11  C    0.299791
    12  C    0.079850
    13  C   -0.537468
    14  C   -0.669865
    15  H    0.186955
    16  H    0.187902
    17  H    0.196401
    18  N    0.035106
    19  N   -0.089231
    20  O   -0.268936
    21  O   -0.266031
    22  O   -0.277940
    23  O   -0.212532
    24  C   -0.253080
    25  H    0.181696
    26  H    0.200957
    27  H    0.200817
    28  C   -0.284704
    29  H    0.192494
    30  H    0.193720
    31  H    0.199764
    32  C    0.067950
    33  C   -0.467751
    34  S   -0.725371
    35  C   -0.148766
    36  H    0.156485
    37  C    0.676994
    38  O   -0.106475
    39  C    0.935970
    40  C   -0.315163
    41  C    0.029327
    42  S   -0.272795
    43  H    0.182603
    44  H    0.179068
    45  H    0.156693
    46  C   -0.656812
    47  O   -0.110052
    48  C   -0.347846
    49  H    0.157300
    50  C   -0.308070
    51  H    0.187850
    52  H    0.159238
    53  H    0.184236
    54  H    0.157533
 Sum of Mulliken charges =  -0.00000

 Dipole moment (field-independent basis, Debye):
    X=              3.2496    Y=             -0.3363    Z=              0.2976  Tot=              3.2804
 Quadrupole moment (field-independent basis, Debye-Ang):
   XX=           -214.1565   YY=           -206.6395   ZZ=           -220.2599
   XY=             -4.4527   XZ=             -1.3951   YZ=             10.4768

 Normal termination of Gaussian 16 at Fri Nov 27 05:08:33 2020.
