 Gaussian 16, Revision C.01,
 Gaussian 16:  ES64L-G16RevC.01  3-Jul-2019

 --------------------------------------
 # opt=modredundant wb97xd/6-311+g(d,p)
 --------------------------------------

 -----------
 NDI_175.pdb
 -----------
 Symbolic Z-matrix:
 Charge =  0 Multiplicity = 1

 SCF Done:  E(RwB97XD) =  -2358.72080467     A.U. after   19 cycles
 SCF Done:  E(RwB97XD) =  -2358.75248629     A.U. after   20 cycles
 SCF Done:  E(RwB97XD) =  -2358.76322232     A.U. after   18 cycles
 SCF Done:  E(RwB97XD) =  -2358.76559028     A.U. after   15 cycles
 SCF Done:  E(RwB97XD) =  -2358.76647013     A.U. after   17 cycles
 SCF Done:  E(RwB97XD) =  -2358.76671730     A.U. after   17 cycles
 SCF Done:  E(RwB97XD) =  -2358.76680826     A.U. after   17 cycles
 SCF Done:  E(RwB97XD) =  -2358.76712912     A.U. after   14 cycles
 SCF Done:  E(RwB97XD) =  -2358.76757404     A.U. after   17 cycles
 SCF Done:  E(RwB97XD) =  -2358.76745385     A.U. after   18 cycles
 SCF Done:  E(RwB97XD) =  -2358.76863008     A.U. after   13 cycles
 SCF Done:  E(RwB97XD) =  -2358.76863595     A.U. after   13 cycles
 SCF Done:  E(RwB97XD) =  -2358.76863795     A.U. after   13 cycles
 SCF Done:  E(RwB97XD) =  -2358.76863964     A.U. after   12 cycles
 SCF Done:  E(RwB97XD) =  -2358.76864031     A.U. after   11 cycles
 SCF Done:  E(RwB97XD) =  -2358.76864039     A.U. after   11 cycles
 SCF Done:  E(RwB97XD) =  -2358.76864041     A.U. after   10 cycles
 SCF Done:  E(RwB97XD) =  -2358.76864044     A.U. after    8 cycles
 SCF Done:  E(RwB97XD) =  -2358.76864046     A.U. after    9 cycles
 SCF Done:  E(RwB97XD) =  -2358.76864048     A.U. after    9 cycles
 Optimization completed.
    -- Stationary point found.

                         Standard orientation:
 ---------------------------------------------------------------------
 Center     Atomic      Atomic             Coordinates (Angstroms)
 Number     Number       Type             X           Y           Z
 ---------------------------------------------------------------------
      1          6           0       -3.610709   -2.627756   -0.097196
      2          6           0       -2.813376   -1.387783    0.091298
      3          6           0       -3.419401   -0.125009   -0.065232
      4          6           0       -4.775658   -0.014515   -0.420432
      5          6           0       -5.599173   -1.238362   -0.615606
      6          6           0       -1.480749   -1.482221    0.360093
      7          6           0       -2.632614    1.025484    0.138762
      8          6           0       -1.261354    0.911392    0.500732
      9          6           0       -0.642253   -0.344150    0.552052
     10          6           0       -0.595518    2.157236    0.968114
     11          6           0       -2.467428    3.535984    0.122274
     12          6           0       -3.245004    2.285103   -0.052833
     13          6           0       -4.570769    2.377567   -0.417420
     14          6           0       -5.347361    1.225569   -0.596107
     15          1           0       -6.391675    1.292146   -0.874435
     16          1           0       -4.996517    3.362645   -0.564417
     17          1           0       -1.059997   -2.477210    0.389498
     18          7           0       -1.172680    3.379227    0.602142
     19          7           0       -4.953667   -2.466955   -0.432366
     20          8           0       -3.136561   -3.734876    0.030385
     21          8           0       -6.769494   -1.181712   -0.915885
     22          8           0       -2.932372    4.630265   -0.110114
     23          8           0        0.394625    2.158865    1.663014
     24          6           0       -0.417514    4.582499    0.946111
     25          1           0       -0.496679    4.792166    2.014596
     26          1           0        0.630621    4.425447    0.699456
     27          1           0       -0.831003    5.411573    0.378790
     28          6           0       -5.725538   -3.695975   -0.611080
     29          1           0       -5.288802   -4.292538   -1.412288
     30          1           0       -5.703995   -4.280655    0.308666
     31          1           0       -6.745357   -3.418231   -0.859732
     32          6           0        0.799020   -0.627948    0.613323
     33          6           0        1.343511   -1.889343    0.761672
     34         16           0        2.019669    0.483730    0.091446
     35          6           0        2.721181   -1.942377    0.487036
     36          1           0        0.779290   -2.751217    1.085261
     37          6           0        3.249862   -0.733075    0.074676
     38          8           0        3.523637   -3.027733    0.589316
     39          6           0        4.622308   -0.451961   -0.276817
     40          6           0        2.929709   -4.243891    0.993369
     41          6           0        5.145073    0.751431   -0.705781
     42         16           0        5.886246   -1.650137   -0.206304
     43          1           0        3.730543   -4.980748    1.010913
     44          1           0        2.494517   -4.158147    1.995164
     45          1           0        2.158974   -4.563592    0.283285
     46          6           0        6.541365    0.712199   -0.970117
     47          8           0        4.334593    1.823534   -0.841031
     48          6           0        7.061410   -0.525692   -0.740133
     49          1           0        7.128059    1.552264   -1.312571
     50          6           0        4.924974    3.052209   -1.213019
     51          1           0        8.087707   -0.837872   -0.861255
     52          1           0        5.382667    2.986435   -2.205936
     53          1           0        4.116456    3.780514   -1.237228
     54          1           0        5.675580    3.367165   -0.480399
 ---------------------------------------------------------------------

 The electronic state is 1-A.
 Alpha  occ. eigenvalues --  -89.04944 -89.04885 -19.29386 -19.29174 -19.24962
 Alpha  occ. eigenvalues --  -19.24936 -19.24458 -19.24332 -14.50511 -14.49953
 Alpha  occ. eigenvalues --  -10.42706 -10.42560 -10.42249 -10.42043 -10.35824
 Alpha  occ. eigenvalues --  -10.35526 -10.35514 -10.34834 -10.34669 -10.34105
 Alpha  occ. eigenvalues --  -10.33737 -10.33639 -10.33551 -10.33505 -10.33467
 Alpha  occ. eigenvalues --  -10.33378 -10.33337 -10.32798 -10.32670 -10.32467
 Alpha  occ. eigenvalues --  -10.32408 -10.32174 -10.32152 -10.31960 -10.30536
 Alpha  occ. eigenvalues --  -10.29955  -8.08966  -8.08898  -6.03808  -6.03750
 Alpha  occ. eigenvalues --   -6.03412  -6.03337  -6.03055  -6.02970  -1.19406
 Alpha  occ. eigenvalues --   -1.19137  -1.19067  -1.18899  -1.17503  -1.17060
 Alpha  occ. eigenvalues --   -1.06647  -1.06190  -1.02984  -1.00838  -0.99196
 Alpha  occ. eigenvalues --   -0.97052  -0.94489  -0.90609  -0.88482  -0.87530
 Alpha  occ. eigenvalues --   -0.86303  -0.85167  -0.85045  -0.83039  -0.82352
 Alpha  occ. eigenvalues --   -0.81079  -0.80047  -0.78471  -0.76725  -0.75408
 Alpha  occ. eigenvalues --   -0.75013  -0.74337  -0.70180  -0.69168  -0.68053
 Alpha  occ. eigenvalues --   -0.66573  -0.65910  -0.65363  -0.64239  -0.63821
 Alpha  occ. eigenvalues --   -0.62845  -0.60534  -0.59593  -0.59026  -0.58929
 Alpha  occ. eigenvalues --   -0.58224  -0.57702  -0.57624  -0.57322  -0.57237
 Alpha  occ. eigenvalues --   -0.56770  -0.55872  -0.55366  -0.55191  -0.54274
 Alpha  occ. eigenvalues --   -0.53918  -0.53708  -0.53591  -0.53023  -0.52322
 Alpha  occ. eigenvalues --   -0.51540  -0.51256  -0.50770  -0.50626  -0.50417
 Alpha  occ. eigenvalues --   -0.50075  -0.49738  -0.49395  -0.48995  -0.48480
 Alpha  occ. eigenvalues --   -0.48000  -0.47796  -0.46710  -0.45783  -0.45377
 Alpha  occ. eigenvalues --   -0.44763  -0.44315  -0.42557  -0.41938  -0.41655
 Alpha  occ. eigenvalues --   -0.41203  -0.39869  -0.39517  -0.38401  -0.37893
 Alpha  occ. eigenvalues --   -0.37242  -0.37125  -0.36471  -0.36392  -0.34571
 Alpha  occ. eigenvalues --   -0.33065  -0.31984  -0.31559  -0.25746
 Alpha virt. eigenvalues --   -0.07058  -0.01214   0.00680   0.02508   0.03581
 Alpha virt. eigenvalues --    0.05142   0.05696   0.05910   0.06656   0.07040
 Alpha virt. eigenvalues --    0.07093   0.07345   0.07746   0.07877   0.08224

 Mulliken charges:
               1
     1  C    0.432943
     2  C   -0.084299
     3  C    0.117424
     4  C    0.211252
     5  C    0.341038
     6  C    0.097552
     7  C    0.003764
     8  C    0.413436
     9  C    0.320693
    10  C   -0.734604
    11  C    0.348548
    12  C    0.066220
    13  C   -0.523548
    14  C   -0.660861
    15  H    0.186463
    16  H    0.187614
    17  H    0.172522
    18  N    0.111426
    19  N   -0.098032
    20  O   -0.270309
    21  O   -0.264820
    22  O   -0.279938
    23  O   -0.197239
    24  C   -0.269584
    25  H    0.201341
    26  H    0.189839
    27  H    0.197920
    28  C   -0.279101
    29  H    0.192845
    30  H    0.192196
    31  H    0.199962
    32  C    0.041013
    33  C   -0.447212
    34  S   -0.780510
    35  C   -0.448805
    36  H    0.150861
    37  C    0.620965
    38  O   -0.113361
    39  C    0.968451
    40  C   -0.298278
    41  C   -0.005902
    42  S   -0.264171
    43  H    0.185602
    44  H    0.163260
    45  H    0.162390
    46  C   -0.532171
    47  O   -0.101765
    48  C   -0.356547
    49  H    0.156923
    50  C   -0.311157
    51  H    0.188059
    52  H    0.156422
    53  H    0.180476
    54  H    0.162796
 Sum of Mulliken charges =  -0.00000

 Dipole moment (field-independent basis, Debye):
    X=              3.5336    Y=             -0.4538    Z=             -0.7203  Tot=              3.6347
 Quadrupole moment (field-independent basis, Debye-Ang):
   XX=           -208.9471   YY=           -209.5009   ZZ=           -223.0102
   XY=             11.3347   XZ=             -9.5334   YZ=             -6.4660

 Normal termination of Gaussian 16 at Fri Nov 27 06:26:22 2020.
