 Gaussian 16, Revision C.01,
 Gaussian 16:  ES64L-G16RevC.01  3-Jul-2019

 --------------------------------------
 # opt=modredundant wb97xd/6-311+g(d,p)
 --------------------------------------

 ----------
 NDI_75.pdb
 ----------
 Symbolic Z-matrix:
 Charge =  0 Multiplicity = 1

 SCF Done:  E(RwB97XD) =  -2358.76464391     A.U. after   19 cycles
 SCF Done:  E(RwB97XD) =  -2358.77158097     A.U. after   16 cycles
 SCF Done:  E(RwB97XD) =  -2358.77275762     A.U. after   17 cycles
 SCF Done:  E(RwB97XD) =  -2358.77319532     A.U. after   14 cycles
 SCF Done:  E(RwB97XD) =  -2358.77332272     A.U. after   15 cycles
 SCF Done:  E(RwB97XD) =  -2358.77343429     A.U. after   13 cycles
 SCF Done:  E(RwB97XD) =  -2358.77348866     A.U. after   13 cycles
 SCF Done:  E(RwB97XD) =  -2358.77352736     A.U. after   14 cycles
 SCF Done:  E(RwB97XD) =  -2358.77353991     A.U. after   13 cycles
 SCF Done:  E(RwB97XD) =  -2358.77355185     A.U. after   13 cycles
 SCF Done:  E(RwB97XD) =  -2358.77366525     A.U. after   14 cycles
 SCF Done:  E(RwB97XD) =  -2358.77366763     A.U. after   11 cycles
 SCF Done:  E(RwB97XD) =  -2358.77366821     A.U. after   12 cycles
 SCF Done:  E(RwB97XD) =  -2358.77366841     A.U. after   11 cycles
 SCF Done:  E(RwB97XD) =  -2358.77360502     A.U. after   10 cycles
 SCF Done:  E(RwB97XD) =  -2358.77360500     A.U. after   11 cycles
 SCF Done:  E(RwB97XD) =  -2358.77360451     A.U. after   11 cycles
 SCF Done:  E(RwB97XD) =  -2358.77360513     A.U. after   11 cycles
 SCF Done:  E(RwB97XD) =  -2358.77360514     A.U. after    9 cycles
 SCF Done:  E(RwB97XD) =  -2358.77360514     A.U. after    8 cycles
 Optimization completed.
    -- Stationary point found.

                         Standard orientation:
 ---------------------------------------------------------------------
 Center     Atomic      Atomic             Coordinates (Angstroms)
 Number     Number       Type             X           Y           Z
 ---------------------------------------------------------------------
      1          6           0       -3.094400   -2.848002    0.554178
      2          6           0       -2.529582   -1.489310    0.339369
      3          6           0       -3.379447   -0.409825    0.026305
      4          6           0       -4.772406   -0.600112   -0.083805
      5          6           0       -5.365526   -1.949493    0.126595
      6          6           0       -1.181678   -1.286814    0.462724
      7          6           0       -2.820412    0.869237   -0.179123
      8          6           0       -1.417751    1.060930   -0.070144
      9          6           0       -0.601149   -0.007381    0.278057
     10          6           0       -0.858463    2.411179   -0.387331
     11          6           0       -3.155520    3.307967   -0.706990
     12          6           0       -3.690009    1.939701   -0.486350
     13          6           0       -5.047105    1.735912   -0.585145
     14          6           0       -5.594544    0.459549   -0.385197
     15          1           0       -6.661620    0.291992   -0.463959
     16          1           0       -5.681697    2.581699   -0.819674
     17          1           0       -0.544153   -2.123238    0.723983
     18          7           0       -1.773097    3.444118   -0.633798
     19          7           0       -4.477069   -2.984625    0.429336
     20          8           0       -2.404797   -3.803787    0.825800
     21          8           0       -6.556364   -2.143540    0.039791
     22          8           0       -3.878969    4.249306   -0.944583
     23          8           0        0.323431    2.648627   -0.449090
     24          6           0       -1.188758    4.758320   -0.900014
     25          1           0       -0.539091    5.043469   -0.073127
     26          1           0       -0.592175    4.722823   -1.812084
     27          1           0       -2.001749    5.469700   -1.009070
     28          6           0       -5.013189   -4.328408    0.643412
     29          1           0       -4.567500   -5.019957   -0.071598
     30          1           0       -4.769597   -4.665894    1.650976
     31          1           0       -6.089761   -4.285634    0.508834
     32          6           0        0.856586    0.094170    0.493746
     33          6           0        1.496806    0.629713    1.569331
     34         16           0        1.956268   -0.616224   -0.626557
     35          6           0        2.906397    0.487607    1.476284
     36          1           0        0.977115    1.119768    2.380344
     37          6           0        3.332111   -0.164548    0.340950
     38          8           0        3.812487    0.917247    2.386536
     39          6           0        4.695060   -0.446899   -0.058345
     40          6           0        3.346148    1.753679    3.424324
     41          6           0        5.113031   -1.126242   -1.181549
     42         16           0        6.079131    0.071234    0.863066
     43          1           0        4.225927    2.052030    3.991907
     44          1           0        2.852389    2.644467    3.021110
     45          1           0        2.656498    1.218129    4.086329
     46          6           0        6.526610   -1.228848   -1.303402
     47          8           0        4.194872   -1.621840   -2.046004
     48          6           0        7.166353   -0.623096   -0.265068
     49          1           0        7.041071   -1.724550   -2.114038
     50          6           0        4.670801   -2.299504   -3.189183
     51          1           0        8.230781   -0.551913   -0.100720
     52          1           0        5.252349   -3.185453   -2.911374
     53          1           0        3.788781   -2.609022   -3.747187
     54          1           0        5.282132   -1.640002   -3.814931
 ---------------------------------------------------------------------

 The electronic state is 1-A.
 Alpha  occ. eigenvalues --  -89.04487 -89.04089 -19.28519 -19.28479 -19.25243
 Alpha  occ. eigenvalues --  -19.25175 -19.24931 -19.24860 -14.50785 -14.50496
 Alpha  occ. eigenvalues --  -10.43044 -10.42804 -10.42758 -10.42703 -10.35220
 Alpha  occ. eigenvalues --  -10.34839 -10.34731 -10.34703 -10.34656 -10.34455
 Alpha  occ. eigenvalues --  -10.34178 -10.34151 -10.34131 -10.34061 -10.34057
 Alpha  occ. eigenvalues --  -10.33165 -10.33100 -10.33090 -10.32690 -10.32373
 Alpha  occ. eigenvalues --  -10.32173 -10.32072 -10.31843 -10.31179 -10.29400
 Alpha  occ. eigenvalues --  -10.29154  -8.08498  -8.08112  -6.03354  -6.02955
 Alpha  occ. eigenvalues --   -6.02955  -6.02563  -6.02559  -6.02201  -1.19702
 Alpha  occ. eigenvalues --   -1.19531  -1.18234  -1.18152  -1.17797  -1.17594
 Alpha  occ. eigenvalues --   -1.06965  -1.06607  -1.03522  -1.00231  -0.98633
 Alpha  occ. eigenvalues --   -0.97209  -0.95018  -0.90539  -0.88958  -0.87074
 Alpha  occ. eigenvalues --   -0.85679  -0.85455  -0.84256  -0.82741  -0.82167
 Alpha  occ. eigenvalues --   -0.81452  -0.79317  -0.78185  -0.77081  -0.75810
 Alpha  occ. eigenvalues --   -0.75344  -0.74420  -0.70165  -0.68643  -0.67764
 Alpha  occ. eigenvalues --   -0.66851  -0.65554  -0.64809  -0.64537  -0.63097
 Alpha  occ. eigenvalues --   -0.62776  -0.60924  -0.59946  -0.59369  -0.59076
 Alpha  occ. eigenvalues --   -0.57972  -0.57822  -0.57459  -0.57017  -0.56677
 Alpha  occ. eigenvalues --   -0.56385  -0.56151  -0.55610  -0.55392  -0.54218
 Alpha  occ. eigenvalues --   -0.54068  -0.53635  -0.53506  -0.53108  -0.52447
 Alpha  occ. eigenvalues --   -0.51704  -0.51298  -0.51242  -0.50421  -0.50163
 Alpha  occ. eigenvalues --   -0.49685  -0.49607  -0.49182  -0.48997  -0.48465
 Alpha  occ. eigenvalues --   -0.48387  -0.47007  -0.46855  -0.45893  -0.45043
 Alpha  occ. eigenvalues --   -0.44124  -0.43582  -0.42094  -0.41401  -0.41053
 Alpha  occ. eigenvalues --   -0.40703  -0.40523  -0.39808  -0.38687  -0.37644
 Alpha  occ. eigenvalues --   -0.37543  -0.37165  -0.37023  -0.36097  -0.34825
 Alpha  occ. eigenvalues --   -0.33507  -0.31450  -0.31183  -0.25344
 Alpha virt. eigenvalues --   -0.07306  -0.00083   0.00607   0.02234   0.02706
 Alpha virt. eigenvalues --    0.04972   0.05974   0.06128   0.06712   0.06890
 Alpha virt. eigenvalues --    0.07365   0.07444   0.07584   0.07742   0.07924

 Mulliken charges:
               1
     1  C    0.472873
     2  C   -0.027955
     3  C    0.151282
     4  C    0.176376
     5  C    0.344612
     6  C   -0.652207
     7  C    0.148362
     8  C    0.083504
     9  C    0.445120
    10  C   -0.365582
    11  C    0.259021
    12  C    0.163921
    13  C   -0.537901
    14  C   -0.715203
    15  H    0.188677
    16  H    0.189036
    17  H    0.202824
    18  N   -0.094417
    19  N   -0.097542
    20  O   -0.257391
    21  O   -0.267423
    22  O   -0.269984
    23  O   -0.096835
    24  C   -0.292201
    25  H    0.191929
    26  H    0.199744
    27  H    0.201668
    28  C   -0.284613
    29  H    0.193531
    30  H    0.194573
    31  H    0.200028
    32  C    0.202547
    33  C   -0.465522
    34  S   -0.285553
    35  C   -0.090649
    36  H    0.143510
    37  C    0.356672
    38  O   -0.121324
    39  C    0.820871
    40  C   -0.299172
    41  C    0.031018
    42  S   -0.306720
    43  H    0.180875
    44  H    0.172267
    45  H    0.153114
    46  C   -0.568333
    47  O   -0.120505
    48  C   -0.378893
    49  H    0.154391
    50  C   -0.302158
    51  H    0.184036
    52  H    0.155121
    53  H    0.178481
    54  H    0.158098
 Sum of Mulliken charges =  -0.00000

 Dipole moment (field-independent basis, Debye):
    X=              1.1754    Y=              0.1795    Z=              0.0103  Tot=              1.1890
 Quadrupole moment (field-independent basis, Debye-Ang):
   XX=           -218.0105   YY=           -223.1466   ZZ=           -202.9919
   XY=             -0.5500   XZ=             -8.3928   YZ=             14.8366

 Normal termination of Gaussian 16 at Fri Nov 27 02:52:20 2020.
