 Gaussian 16, Revision C.01,
 Gaussian 16:  ES64L-G16RevC.01  3-Jul-2019

 --------------------------------------
 # opt=modredundant wb97xd/6-311+g(d,p)
 --------------------------------------

 -----------
 NDI_125.pdb
 -----------
 Symbolic Z-matrix:
 Charge =  0 Multiplicity = 1

 SCF Done:  E(RwB97XD) =  -2358.76362160     A.U. after   22 cycles
 SCF Done:  E(RwB97XD) =  -2358.77028326     A.U. after   19 cycles
 SCF Done:  E(RwB97XD) =  -2358.77242085     A.U. after   16 cycles
 SCF Done:  E(RwB97XD) =  -2358.77352118     A.U. after   16 cycles
 SCF Done:  E(RwB97XD) =  -2358.77356691     A.U. after   14 cycles
 SCF Done:  E(RwB97XD) =  -2358.77368601     A.U. after   15 cycles
 SCF Done:  E(RwB97XD) =  -2358.77373028     A.U. after   14 cycles
 SCF Done:  E(RwB97XD) =  -2358.77376244     A.U. after   14 cycles
 SCF Done:  E(RwB97XD) =  -2358.77377919     A.U. after   13 cycles
 SCF Done:  E(RwB97XD) =  -2358.77379828     A.U. after   13 cycles
 SCF Done:  E(RwB97XD) =  -2358.77386648     A.U. after   13 cycles
 SCF Done:  E(RwB97XD) =  -2358.77386717     A.U. after   11 cycles
 SCF Done:  E(RwB97XD) =  -2358.77386785     A.U. after   13 cycles
 SCF Done:  E(RwB97XD) =  -2358.77385739     A.U. after   13 cycles
 SCF Done:  E(RwB97XD) =  -2358.77386874     A.U. after   13 cycles
 SCF Done:  E(RwB97XD) =  -2358.77386904     A.U. after   11 cycles
 SCF Done:  E(RwB97XD) =  -2358.77386932     A.U. after   12 cycles
 SCF Done:  E(RwB97XD) =  -2358.77386955     A.U. after   10 cycles
 SCF Done:  E(RwB97XD) =  -2358.77386957     A.U. after    9 cycles
 SCF Done:  E(RwB97XD) =  -2358.77386959     A.U. after    8 cycles
 Optimization completed.
    -- Stationary point found.

                         Standard orientation:
 ---------------------------------------------------------------------
 Center     Atomic      Atomic             Coordinates (Angstroms)
 Number     Number       Type             X           Y           Z
 ---------------------------------------------------------------------
      1          6           0        3.513749   -2.689705    0.457684
      2          6           0        2.754510   -1.451244    0.142479
      3          6           0        3.414852   -0.206202    0.108745
      4          6           0        4.792843   -0.112275    0.389676
      5          6           0        5.575755   -1.335062    0.717644
      6          6           0        1.406214   -1.518615   -0.081640
      7          6           0        2.677945    0.952314   -0.212836
      8          6           0        1.292304    0.858754   -0.501535
      9          6           0        0.642095   -0.364122   -0.388351
     10          6           0        0.606140    2.073064   -1.035172
     11          6           0        2.608184    3.447012   -0.532975
     12          6           0        3.348149    2.196013   -0.222798
     13          6           0        4.691747    2.269820    0.064783
     14          6           0        5.422091    1.110401    0.367995
     15          1           0        6.480811    1.161226    0.590381
     16          1           0        5.171182    3.241029    0.055106
     17          1           0        0.905638   -2.476235   -0.001975
     18          7           0        1.270347    3.297575   -0.882506
     19          7           0        4.874588   -2.544852    0.727184
     20          8           0        2.995130   -3.782642    0.483855
     21          8           0        6.759485   -1.289534    0.962382
     22          8           0        3.138707    4.534996   -0.499587
     23          8           0       -0.461903    2.039928   -1.596353
     24          6           0        0.533636    4.489688   -1.300136
     25          1           0        0.525787    4.572702   -2.388697
     26          1           0       -0.493136    4.411194   -0.949089
     27          1           0        1.026163    5.357932   -0.871724
     28          6           0        5.603216   -3.773804    1.039729
     29          1           0        5.155991   -4.254599    1.909717
     30          1           0        5.546297   -4.461181    0.195440
     31          1           0        6.636546   -3.509001    1.242285
     32          6           0       -0.812340   -0.555146   -0.509839
     33          6           0       -1.454531   -1.406607   -1.361783
     34         16           0       -1.907444    0.209963    0.579684
     35          6           0       -2.858773   -1.407626   -1.160254
     36          1           0       -0.938922   -1.980469   -2.119163
     37          6           0       -3.278543   -0.586481   -0.135932
     38          8           0       -3.766952   -2.126321   -1.861071
     39          6           0       -4.632606   -0.385823    0.334834
     40          6           0       -3.287109   -2.942900   -2.908274
     41          6           0       -5.046238    0.428336    1.366919
     42         16           0       -6.011032   -1.180949   -0.373847
     43          1           0       -4.162043   -3.422528   -3.343392
     44          1           0       -2.781855   -2.346092   -3.675538
     45          1           0       -2.603860   -3.711652   -2.530484
     46          6           0       -6.451536    0.416335    1.585752
     47          8           0       -4.131877    1.142910    2.065538
     48          6           0       -7.089444   -0.411887    0.713024
     49          1           0       -6.961883    0.988597    2.347003
     50          6           0       -4.606828    1.990257    3.089992
     51          1           0       -8.148412   -0.611934    0.652167
     52          1           0       -5.114972    1.417998    3.873910
     53          1           0       -3.729264    2.476866    3.512160
     54          1           0       -5.286621    2.751194    2.691259
 ---------------------------------------------------------------------

 The electronic state is 1-A.
 Alpha  occ. eigenvalues --  -89.04544 -89.04295 -19.28758 -19.28704 -19.25174
 Alpha  occ. eigenvalues --  -19.25136 -19.24757 -19.24741 -14.50725 -14.50270
 Alpha  occ. eigenvalues --  -10.42968 -10.42762 -10.42568 -10.42487 -10.35121
 Alpha  occ. eigenvalues --  -10.35090 -10.34983 -10.34501 -10.34393 -10.34366
 Alpha  occ. eigenvalues --  -10.34308 -10.34279 -10.33996 -10.33953 -10.33895
 Alpha  occ. eigenvalues --  -10.33073 -10.33025 -10.32951 -10.32891 -10.32400
 Alpha  occ. eigenvalues --  -10.32332 -10.32057 -10.32055 -10.31400 -10.29751
 Alpha  occ. eigenvalues --  -10.29351  -8.08566  -8.08317  -6.03422  -6.03160
 Alpha  occ. eigenvalues --   -6.03024  -6.02764  -6.02625  -6.02406  -1.19632
 Alpha  occ. eigenvalues --   -1.19349  -1.18473  -1.18391  -1.17731  -1.17406
 Alpha  occ. eigenvalues --   -1.06884  -1.06470  -1.03404  -1.00384  -0.98766
 Alpha  occ. eigenvalues --   -0.97204  -0.94894  -0.90563  -0.88840  -0.87197
 Alpha  occ. eigenvalues --   -0.85853  -0.85358  -0.84470  -0.82681  -0.82414
 Alpha  occ. eigenvalues --   -0.81230  -0.79579  -0.78261  -0.76965  -0.75689
 Alpha  occ. eigenvalues --   -0.75210  -0.74427  -0.70112  -0.68802  -0.67839
 Alpha  occ. eigenvalues --   -0.66775  -0.65782  -0.64792  -0.64340  -0.63348
 Alpha  occ. eigenvalues --   -0.62906  -0.60822  -0.59842  -0.59231  -0.58992
 Alpha  occ. eigenvalues --   -0.58098  -0.57780  -0.57385  -0.57198  -0.56852
 Alpha  occ. eigenvalues --   -0.56404  -0.56147  -0.55533  -0.55388  -0.54204
 Alpha  occ. eigenvalues --   -0.53975  -0.53817  -0.53352  -0.53198  -0.52511
 Alpha  occ. eigenvalues --   -0.51660  -0.51232  -0.50981  -0.50378  -0.50183
 Alpha  occ. eigenvalues --   -0.49936  -0.49592  -0.49384  -0.48934  -0.48451
 Alpha  occ. eigenvalues --   -0.48241  -0.47294  -0.46655  -0.45840  -0.45278
 Alpha  occ. eigenvalues --   -0.44305  -0.43800  -0.42171  -0.41478  -0.41183
 Alpha  occ. eigenvalues --   -0.41077  -0.40355  -0.39746  -0.38626  -0.37597
 Alpha  occ. eigenvalues --   -0.37450  -0.36994  -0.36822  -0.36171  -0.34982
 Alpha  occ. eigenvalues --   -0.33320  -0.31654  -0.31297  -0.25465
 Alpha virt. eigenvalues --   -0.07206  -0.00167   0.00476   0.02237   0.03064
 Alpha virt. eigenvalues --    0.05105   0.05845   0.06144   0.06616   0.06847
 Alpha virt. eigenvalues --    0.07156   0.07515   0.07544   0.07734   0.07909

 Mulliken charges:
               1
     1  C    0.478308
     2  C   -0.080073
     3  C    0.106282
     4  C    0.172823
     5  C    0.369265
     6  C   -0.527226
     7  C    0.099799
     8  C    0.047430
     9  C    0.277386
    10  C   -0.433266
    11  C    0.332898
    12  C    0.085867
    13  C   -0.481886
    14  C   -0.699336
    15  H    0.188392
    16  H    0.188887
    17  H    0.193707
    18  N    0.029118
    19  N   -0.094617
    20  O   -0.261602
    21  O   -0.269337
    22  O   -0.275613
    23  O   -0.165481
    24  C   -0.266164
    25  H    0.201840
    26  H    0.195223
    27  H    0.197390
    28  C   -0.282692
    29  H    0.193918
    30  H    0.193613
    31  H    0.200957
    32  C    0.448764
    33  C   -0.555117
    34  S   -0.470856
    35  C   -0.082739
    36  H    0.154655
    37  C    0.389851
    38  O   -0.110412
    39  C    0.902451
    40  C   -0.290679
    41  C    0.052212
    42  S   -0.293006
    43  H    0.182492
    44  H    0.164299
    45  H    0.161488
    46  C   -0.609539
    47  O   -0.120858
    48  C   -0.366312
    49  H    0.154793
    50  C   -0.304723
    51  H    0.184906
    52  H    0.155612
    53  H    0.178682
    54  H    0.158226
 Sum of Mulliken charges =  -0.00000

 Dipole moment (field-independent basis, Debye):
    X=             -1.7768    Y=             -0.0277    Z=              0.3466  Tot=              1.8105
 Quadrupole moment (field-independent basis, Debye-Ang):
   XX=           -214.9546   YY=           -221.7336   ZZ=           -207.1848
   XY=             -7.9626   XZ=             -9.8021   YZ=             14.1882

 Normal termination of Gaussian 16 at Fri Nov 27 04:00:14 2020.
