 Gaussian 16, Revision C.01,
 Gaussian 16:  ES64L-G16RevC.01  3-Jul-2019

 --------------------------------------
 # opt=modredundant wb97xd/6-311+g(d,p)
 --------------------------------------

 -----------
 NDI_150.pdb
 -----------
 Symbolic Z-matrix:
 Charge =  0 Multiplicity = 1

 SCF Done:  E(RwB97XD) =  -2358.74524395     A.U. after   20 cycles
 SCF Done:  E(RwB97XD) =  -2358.75603361     A.U. after   20 cycles
 SCF Done:  E(RwB97XD) =  -2358.76374995     A.U. after   18 cycles
 SCF Done:  E(RwB97XD) =  -2358.76746567     A.U. after   17 cycles
 SCF Done:  E(RwB97XD) =  -2358.76960597     A.U. after   18 cycles
 SCF Done:  E(RwB97XD) =  -2358.77011267     A.U. after   18 cycles
 SCF Done:  E(RwB97XD) =  -2358.77052230     A.U. after   14 cycles
 SCF Done:  E(RwB97XD) =  -2358.77083076     A.U. after   16 cycles
 SCF Done:  E(RwB97XD) =  -2358.77128030     A.U. after   18 cycles
 SCF Done:  E(RwB97XD) =  -2358.77157999     A.U. after   16 cycles
 SCF Done:  E(RwB97XD) =  -2358.77260268     A.U. after   14 cycles
 SCF Done:  E(RwB97XD) =  -2358.77260813     A.U. after   13 cycles
 SCF Done:  E(RwB97XD) =  -2358.77261085     A.U. after   13 cycles
 SCF Done:  E(RwB97XD) =  -2358.77261349     A.U. after   13 cycles
 SCF Done:  E(RwB97XD) =  -2358.77261372     A.U. after   10 cycles
 SCF Done:  E(RwB97XD) =  -2358.77261389     A.U. after   11 cycles
 SCF Done:  E(RwB97XD) =  -2358.77261399     A.U. after    9 cycles
 SCF Done:  E(RwB97XD) =  -2358.77261405     A.U. after    9 cycles
 SCF Done:  E(RwB97XD) =  -2358.77261409     A.U. after   10 cycles
 SCF Done:  E(RwB97XD) =  -2358.77261411     A.U. after    8 cycles
 Optimization completed.
    -- Stationary point found.

                         Standard orientation:
 ---------------------------------------------------------------------
 Center     Atomic      Atomic             Coordinates (Angstroms)
 Number     Number       Type             X           Y           Z
 ---------------------------------------------------------------------
      1          6           0        3.534563   -2.669918    0.358632
      2          6           0        2.765518   -1.433083    0.062313
      3          6           0        3.404657   -0.176642    0.098281
      4          6           0        4.768141   -0.069690    0.433018
      5          6           0        5.561295   -1.290946    0.740233
      6          6           0        1.426566   -1.514615   -0.195705
      7          6           0        2.653989    0.977041   -0.206185
      8          6           0        1.279832    0.869874   -0.546581
      9          6           0        0.639468   -0.366662   -0.485381
     10          6           0        0.621116    2.082609   -1.112348
     11          6           0        2.550227    3.480285   -0.433385
     12          6           0        3.300464    2.231844   -0.142454
     13          6           0        4.630985    2.319594    0.200824
     14          6           0        5.374099    1.164701    0.484746
     15          1           0        6.422501    1.226743    0.748804
     16          1           0        5.088925    3.300009    0.248887
     17          1           0        0.950240   -2.485656   -0.140808
     18          7           0        1.241103    3.316373   -0.872415
     19          7           0        4.883239   -2.513058    0.675257
     20          8           0        3.033730   -3.771614    0.330200
     21          8           0        6.734419   -1.236028    1.029808
     22          8           0        3.050461    4.577430   -0.319233
     23          8           0       -0.386930    2.043144   -1.776380
     24          6           0        0.510857    4.504406   -1.311364
     25          1           0        0.573950    4.613588   -2.395796
     26          1           0       -0.535679    4.399948   -1.032388
     27          1           0        0.956953    5.370219   -0.830276
     28          6           0        5.624109   -3.740396    0.963901
     29          1           0        5.172962   -4.251591    1.814531
     30          1           0        5.586873   -4.404248    0.100080
     31          1           0        6.650917   -3.467529    1.187862
     32          6           0       -0.808337   -0.589042   -0.570660
     33          6           0       -1.417642   -1.708986   -1.078530
     34         16           0       -1.940342    0.408146    0.267827
     35          6           0       -2.809378   -1.729713   -0.836487
     36          1           0       -0.884460   -2.469848   -1.631617
     37          6           0       -3.262744   -0.653593   -0.098907
     38          8           0       -3.683047   -2.678647   -1.246448
     39          6           0       -4.618537   -0.389876    0.328734
     40          6           0       -3.166242   -3.768321   -1.981391
     41          6           0       -5.063849    0.677063    1.080565
     42         16           0       -5.958874   -1.430943   -0.065138
     43          1           0       -4.015779   -4.408902   -2.210819
     44          1           0       -2.703805   -3.431431   -2.915650
     45          1           0       -2.435836   -4.333273   -1.391652
     46          6           0       -6.462964    0.661228    1.333986
     47          8           0       -4.182752    1.611929    1.504661
     48          6           0       -7.063366   -0.423786    0.770593
     49          1           0       -6.995305    1.410281    1.902177
     50          6           0       -4.692507    2.716745    2.222007
     51          1           0       -8.109823   -0.686347    0.805691
     52          1           0       -5.162955    2.397670    3.158366
     53          1           0       -3.837566    3.351597    2.447741
     54          1           0       -5.414030    3.279890    1.620349
 ---------------------------------------------------------------------

 The electronic state is 1-A.
 Alpha  occ. eigenvalues --  -89.04793 -89.04649 -19.29117 -19.28987 -19.25048
 Alpha  occ. eigenvalues --  -19.25040 -19.24536 -19.24516 -14.50610 -14.50061
 Alpha  occ. eigenvalues --  -10.42830 -10.42656 -10.42364 -10.42252 -10.35427
 Alpha  occ. eigenvalues --  -10.35391 -10.35198 -10.34649 -10.34522 -10.34281
 Alpha  occ. eigenvalues --  -10.33992 -10.33967 -10.33771 -10.33749 -10.33607
 Alpha  occ. eigenvalues --  -10.33155 -10.32985 -10.32952 -10.32740 -10.32685
 Alpha  occ. eigenvalues --  -10.32397 -10.32246 -10.31970 -10.31795 -10.30182
 Alpha  occ. eigenvalues --  -10.29679  -8.08819  -8.08671  -6.03673  -6.03514
 Alpha  occ. eigenvalues --   -6.03272  -6.03117  -6.02882  -6.02760  -1.19511
 Alpha  occ. eigenvalues --   -1.19145  -1.18834  -1.18703  -1.17610  -1.17185
 Alpha  occ. eigenvalues --   -1.06755  -1.06284  -1.03193  -1.00670  -0.99016
 Alpha  occ. eigenvalues --   -0.97149  -0.94684  -0.90603  -0.88654  -0.87392
 Alpha  occ. eigenvalues --   -0.86114  -0.85228  -0.84819  -0.82855  -0.82413
 Alpha  occ. eigenvalues --   -0.81136  -0.79849  -0.78392  -0.76823  -0.75519
 Alpha  occ. eigenvalues --   -0.75098  -0.74371  -0.70144  -0.69006  -0.67958
 Alpha  occ. eigenvalues --   -0.66650  -0.65879  -0.65117  -0.64178  -0.63680
 Alpha  occ. eigenvalues --   -0.62880  -0.60670  -0.59703  -0.59086  -0.58908
 Alpha  occ. eigenvalues --   -0.58259  -0.57681  -0.57482  -0.57299  -0.57117
 Alpha  occ. eigenvalues --   -0.56626  -0.55919  -0.55422  -0.55305  -0.54260
 Alpha  occ. eigenvalues --   -0.53856  -0.53817  -0.53516  -0.53113  -0.52452
 Alpha  occ. eigenvalues --   -0.51581  -0.51170  -0.50804  -0.50446  -0.50318
 Alpha  occ. eigenvalues --   -0.50119  -0.49668  -0.49438  -0.48941  -0.48422
 Alpha  occ. eigenvalues --   -0.48089  -0.47621  -0.46655  -0.45852  -0.45474
 Alpha  occ. eigenvalues --   -0.44533  -0.44139  -0.42387  -0.41771  -0.41423
 Alpha  occ. eigenvalues --   -0.41282  -0.40112  -0.39616  -0.38492  -0.37649
 Alpha  occ. eigenvalues --   -0.37334  -0.37073  -0.36650  -0.36344  -0.34776
 Alpha  occ. eigenvalues --   -0.33130  -0.31877  -0.31475  -0.25637
 Alpha virt. eigenvalues --   -0.07125  -0.00657   0.00529   0.02354   0.03415
 Alpha virt. eigenvalues --    0.05149   0.05754   0.05991   0.06663   0.06798
 Alpha virt. eigenvalues --    0.07092   0.07519   0.07702   0.07728   0.07956

 Mulliken charges:
               1
     1  C    0.463497
     2  C   -0.096139
     3  C    0.085114
     4  C    0.222693
     5  C    0.360557
     6  C   -0.262822
     7  C    0.067116
     8  C    0.204590
     9  C    0.297744
    10  C   -0.573275
    11  C    0.372689
    12  C    0.042663
    13  C   -0.535283
    14  C   -0.656288
    15  H    0.187517
    16  H    0.188072
    17  H    0.187594
    18  N    0.077329
    19  N   -0.096124
    20  O   -0.267204
    21  O   -0.267395
    22  O   -0.278764
    23  O   -0.193799
    24  C   -0.278884
    25  H    0.201623
    26  H    0.194061
    27  H    0.197996
    28  C   -0.279293
    29  H    0.194032
    30  H    0.192297
    31  H    0.200645
    32  C    0.273813
    33  C   -0.727150
    34  S   -0.713342
    35  C   -0.037078
    36  H    0.162872
    37  C    0.639882
    38  O   -0.116069
    39  C    0.965961
    40  C   -0.294634
    41  C    0.023914
    42  S   -0.270626
    43  H    0.184092
    44  H    0.162073
    45  H    0.164663
    46  C   -0.638583
    47  O   -0.115445
    48  C   -0.346795
    49  H    0.155934
    50  C   -0.309703
    51  H    0.186843
    52  H    0.156341
    53  H    0.180091
    54  H    0.160387
 Sum of Mulliken charges =  -0.00000

 Dipole moment (field-independent basis, Debye):
    X=             -2.6968    Y=             -0.2678    Z=              0.6067  Tot=              2.7771
 Quadrupole moment (field-independent basis, Debye-Ang):
   XX=           -212.0663   YY=           -214.1144   ZZ=           -216.4497
   XY=             -9.6090   XZ=            -10.1775   YZ=             12.6772

 Normal termination of Gaussian 16 at Fri Nov 27 06:54:30 2020.
