 Gaussian 16, Revision C.01,
 Gaussian 16:  ES64L-G16RevC.01  3-Jul-2019

 --------------------------------------
 # opt=modredundant wb97xd/6-311+g(d,p)
 --------------------------------------

 ----------
 NDI_45.pdb
 ----------
 Symbolic Z-matrix:
 Charge =  0 Multiplicity = 1

 SCF Done:  E(RwB97XD) =  -2358.76635782     A.U. after   19 cycles
 SCF Done:  E(RwB97XD) =  -2358.77119083     A.U. after   17 cycles
 SCF Done:  E(RwB97XD) =  -2358.77228517     A.U. after   16 cycles
 SCF Done:  E(RwB97XD) =  -2358.77325617     A.U. after   16 cycles
 SCF Done:  E(RwB97XD) =  -2358.77352148     A.U. after   14 cycles
 SCF Done:  E(RwB97XD) =  -2358.77367716     A.U. after   17 cycles
 SCF Done:  E(RwB97XD) =  -2358.77382329     A.U. after   13 cycles
 SCF Done:  E(RwB97XD) =  -2358.77395818     A.U. after   15 cycles
 SCF Done:  E(RwB97XD) =  -2358.77404445     A.U. after   15 cycles
 SCF Done:  E(RwB97XD) =  -2358.77411630     A.U. after   16 cycles
 SCF Done:  E(RwB97XD) =  -2358.77424643     A.U. after   14 cycles
 SCF Done:  E(RwB97XD) =  -2358.77424783     A.U. after   11 cycles
 SCF Done:  E(RwB97XD) =  -2358.77424877     A.U. after   13 cycles
 SCF Done:  E(RwB97XD) =  -2358.77424934     A.U. after   13 cycles
 SCF Done:  E(RwB97XD) =  -2358.77424974     A.U. after   11 cycles
 SCF Done:  E(RwB97XD) =  -2358.77425001     A.U. after   10 cycles
 SCF Done:  E(RwB97XD) =  -2358.77425017     A.U. after   11 cycles
 SCF Done:  E(RwB97XD) =  -2358.77425033     A.U. after   12 cycles
 SCF Done:  E(RwB97XD) =  -2358.77425042     A.U. after   12 cycles
 SCF Done:  E(RwB97XD) =  -2358.77425044     A.U. after    8 cycles
 Optimization completed.
    -- Stationary point found.

                         Standard orientation:
 ---------------------------------------------------------------------
 Center     Atomic      Atomic             Coordinates (Angstroms)
 Number     Number       Type             X           Y           Z
 ---------------------------------------------------------------------
      1          6           0       -2.785356   -2.950444    0.468603
      2          6           0       -2.363393   -1.540969    0.251824
      3          6           0       -3.328902   -0.531429    0.061665
      4          6           0       -4.703018   -0.840183    0.085398
      5          6           0       -5.155003   -2.241644    0.304674
      6          6           0       -1.035837   -1.223849    0.273403
      7          6           0       -2.897209    0.794191   -0.156447
      8          6           0       -1.509236    1.106021   -0.183284
      9          6           0       -0.571204    0.106655    0.082637
     10          6           0       -1.119888    2.483304   -0.612553
     11          6           0       -3.497721    3.203865   -0.561420
     12          6           0       -3.884171    1.790060   -0.334534
     13          6           0       -5.223656    1.472443   -0.298157
     14          6           0       -5.640544    0.150767   -0.091119
     15          1           0       -6.692041   -0.106783   -0.066592
     16          1           0       -5.946102    2.268074   -0.432795
     17          1           0       -0.321110   -2.013461    0.473119
     18          7           0       -2.133877    3.449819   -0.674627
     19          7           0       -4.156348   -3.203944    0.478991
     20          8           0       -1.992877   -3.850248    0.629998
     21          8           0       -6.327637   -2.537771    0.330134
     22          8           0       -4.316999    4.090478   -0.660507
     23          8           0        0.003868    2.803685   -0.921532
     24          6           0       -1.703350    4.805221   -1.014812
     25          1           0       -0.893506    5.105918   -0.351561
     26          1           0       -1.339107    4.838226   -2.042593
     27          1           0       -2.558089    5.465190   -0.900148
     28          6           0       -4.553435   -4.594813    0.694088
     29          1           0       -4.140286   -5.222069   -0.096014
     30          1           0       -4.167400   -4.943635    1.651982
     31          1           0       -5.638329   -4.639010    0.684065
     32          6           0        0.869899    0.319411    0.250055
     33          6           0        1.507814    1.286526    0.974331
     34         16           0        1.997569   -0.802367   -0.432996
     35          6           0        2.911382    1.130184    0.969422
     36          1           0        0.984662    2.081526    1.484197
     37          6           0        3.354401    0.042940    0.241737
     38          8           0        3.806469    1.926211    1.598932
     39          6           0        4.722402   -0.368326    0.018096
     40          6           0        3.327430    3.143369    2.134272
     41          6           0        5.156925   -1.474405   -0.681328
     42         16           0        6.092999    0.523206    0.619081
     43          1           0        4.201832    3.678318    2.500662
     44          1           0        2.827007    3.740877    1.364783
     45          1           0        2.639491    2.965266    2.968282
     46          6           0        6.571992   -1.604400   -0.735345
     47          8           0        4.252261   -2.311485   -1.238943
     48          6           0        7.195221   -0.590492   -0.073029
     49          1           0        7.099216   -2.403968   -1.235387
     50          6           0        4.741622   -3.438739   -1.935642
     51          1           0        8.257431   -0.441606    0.048517
     52          1           0        5.320488   -4.091897   -1.273772
     53          1           0        3.865755   -3.975635   -2.295311
     54          1           0        5.358910   -3.138430   -2.789217
 ---------------------------------------------------------------------

 The electronic state is 1-A.
 Alpha  occ. eigenvalues --  -89.04925 -89.04556 -19.28996 -19.28817 -19.25048
 Alpha  occ. eigenvalues --  -19.25002 -19.24641 -19.24584 -14.50600 -14.50261
 Alpha  occ. eigenvalues --  -10.42834 -10.42619 -10.42593 -10.42380 -10.35318
 Alpha  occ. eigenvalues --  -10.35299 -10.35270 -10.34487 -10.34427 -10.34338
 Alpha  occ. eigenvalues --  -10.34226 -10.34041 -10.33827 -10.33785 -10.33655
 Alpha  occ. eigenvalues --  -10.32893 -10.32886 -10.32853 -10.32772 -10.32711
 Alpha  occ. eigenvalues --  -10.32304 -10.32233 -10.32121 -10.31700 -10.29851
 Alpha  occ. eigenvalues --  -10.29588  -8.08949  -8.08578  -6.03798  -6.03421
 Alpha  occ. eigenvalues --   -6.03402  -6.03025  -6.03022  -6.02666  -1.19515
 Alpha  occ. eigenvalues --   -1.19291  -1.18705  -1.18542  -1.17606  -1.17318
 Alpha  occ. eigenvalues --   -1.06767  -1.06370  -1.03213  -1.00603  -0.98938
 Alpha  occ. eigenvalues --   -0.97143  -0.94728  -0.90542  -0.88698  -0.87363
 Alpha  occ. eigenvalues --   -0.85982  -0.85292  -0.84724  -0.82775  -0.82265
 Alpha  occ. eigenvalues --   -0.81514  -0.79556  -0.78326  -0.76919  -0.75567
 Alpha  occ. eigenvalues --   -0.75213  -0.74274  -0.70249  -0.68856  -0.67900
 Alpha  occ. eigenvalues --   -0.66648  -0.65724  -0.65066  -0.64612  -0.63539
 Alpha  occ. eigenvalues --   -0.62530  -0.60739  -0.59776  -0.59241  -0.58860
 Alpha  occ. eigenvalues --   -0.58242  -0.57714  -0.57347  -0.57328  -0.56968
 Alpha  occ. eigenvalues --   -0.56545  -0.55913  -0.55472  -0.55230  -0.54359
 Alpha  occ. eigenvalues --   -0.54004  -0.53502  -0.53403  -0.53258  -0.52266
 Alpha  occ. eigenvalues --   -0.51613  -0.51131  -0.51028  -0.50520  -0.50316
 Alpha  occ. eigenvalues --   -0.50029  -0.49544  -0.49417  -0.48911  -0.48388
 Alpha  occ. eigenvalues --   -0.48126  -0.47583  -0.46928  -0.45753  -0.45515
 Alpha  occ. eigenvalues --   -0.44292  -0.43985  -0.42410  -0.41787  -0.41318
 Alpha  occ. eigenvalues --   -0.41047  -0.40247  -0.39674  -0.38599  -0.37682
 Alpha  occ. eigenvalues --   -0.37363  -0.37044  -0.36947  -0.36275  -0.34656
 Alpha  occ. eigenvalues --   -0.33192  -0.31711  -0.31527  -0.25580
 Alpha virt. eigenvalues --   -0.07223  -0.00537   0.00466   0.02325   0.03338
 Alpha virt. eigenvalues --    0.05102   0.05785   0.06032   0.06787   0.06945
 Alpha virt. eigenvalues --    0.07272   0.07525   0.07693   0.07775   0.07925

 Mulliken charges:
               1
     1  C    0.441859
     2  C   -0.142801
     3  C    0.091059
     4  C    0.189813
     5  C    0.355107
     6  C   -0.567140
     7  C    0.136594
     8  C    0.306205
     9  C    0.432145
    10  C   -0.452611
    11  C    0.289167
    12  C    0.110041
    13  C   -0.518266
    14  C   -0.677579
    15  H    0.187682
    16  H    0.188214
    17  H    0.207175
    18  N   -0.022609
    19  N   -0.092621
    20  O   -0.264333
    21  O   -0.266628
    22  O   -0.274450
    23  O   -0.170407
    24  C   -0.265868
    25  H    0.185128
    26  H    0.200327
    27  H    0.200631
    28  C   -0.283447
    29  H    0.193418
    30  H    0.193668
    31  H    0.200131
    32  C    0.179285
    33  C   -0.443909
    34  S   -0.611758
    35  C   -0.116404
    36  H    0.151928
    37  C    0.650723
    38  O   -0.111766
    39  C    0.835723
    40  C   -0.311211
    41  C   -0.007660
    42  S   -0.291984
    43  H    0.181567
    44  H    0.176339
    45  H    0.155225
    46  C   -0.625243
    47  O   -0.112184
    48  C   -0.341885
    49  H    0.156245
    50  C   -0.306338
    51  H    0.186244
    52  H    0.157908
    53  H    0.181642
    54  H    0.157910
 Sum of Mulliken charges =  -0.00000

 Dipole moment (field-independent basis, Debye):
    X=              2.4800    Y=             -0.1778    Z=              0.1915  Tot=              2.4938
 Quadrupole moment (field-independent basis, Debye-Ang):
   XX=           -215.7226   YY=           -210.8450   ZZ=           -215.6542
   XY=             -3.5383   XZ=             -4.3419   YZ=             14.3903

 Normal termination of Gaussian 16 at Fri Nov 27 03:23:35 2020.
