 Gaussian 16, Revision C.01,
 Gaussian 16:  ES64L-G16RevC.01  3-Jul-2019

 --------------------------------------
 # opt=modredundant wb97xd/6-311+g(d,p)
 --------------------------------------

 -----------
 NDI_110.pdb
 -----------
 Symbolic Z-matrix:
 Charge =  0 Multiplicity = 1

 SCF Done:  E(RwB97XD) =  -2358.76550239     A.U. after   20 cycles
 SCF Done:  E(RwB97XD) =  -2358.77240395     A.U. after   16 cycles
 SCF Done:  E(RwB97XD) =  -2358.77304680     A.U. after   18 cycles
 SCF Done:  E(RwB97XD) =  -2358.77344752     A.U. after   15 cycles
 SCF Done:  E(RwB97XD) =  -2358.77356462     A.U. after   14 cycles
 SCF Done:  E(RwB97XD) =  -2358.77360272     A.U. after   13 cycles
 SCF Done:  E(RwB97XD) =  -2358.77362345     A.U. after   13 cycles
 SCF Done:  E(RwB97XD) =  -2358.77364041     A.U. after   13 cycles
 SCF Done:  E(RwB97XD) =  -2358.77366464     A.U. after   14 cycles
 SCF Done:  E(RwB97XD) =  -2358.77367998     A.U. after   13 cycles
 SCF Done:  E(RwB97XD) =  -2358.77376991     A.U. after   12 cycles
 SCF Done:  E(RwB97XD) =  -2358.77377014     A.U. after   10 cycles
 SCF Done:  E(RwB97XD) =  -2358.77377032     A.U. after   11 cycles
 SCF Done:  E(RwB97XD) =  -2358.77377036     A.U. after   11 cycles
 SCF Done:  E(RwB97XD) =  -2358.77377046     A.U. after   10 cycles
 SCF Done:  E(RwB97XD) =  -2358.77371442     A.U. after   11 cycles
 SCF Done:  E(RwB97XD) =  -2358.77371444     A.U. after   11 cycles
 SCF Done:  E(RwB97XD) =  -2358.77371448     A.U. after   10 cycles
 SCF Done:  E(RwB97XD) =  -2358.77371448     A.U. after    8 cycles
 SCF Done:  E(RwB97XD) =  -2358.77371464     A.U. after   10 cycles
 Optimization completed.
    -- Stationary point found.

                         Standard orientation:
 ---------------------------------------------------------------------
 Center     Atomic      Atomic             Coordinates (Angstroms)
 Number     Number       Type             X           Y           Z
 ---------------------------------------------------------------------
      1          6           0        3.450945   -2.746224    0.320233
      2          6           0        2.721637   -1.473065    0.080462
      3          6           0        3.414870   -0.246373    0.097088
      4          6           0        4.800712   -0.205366    0.354666
      5          6           0        5.554930   -1.464150    0.605437
      6          6           0        1.369890   -1.493362   -0.136469
      7          6           0        2.705642    0.947982   -0.148257
      8          6           0        1.312491    0.907607   -0.413036
      9          6           0        0.636835   -0.304755   -0.374441
     10          6           0        0.628806    2.178266   -0.802474
     11          6           0        2.705509    3.457990   -0.340139
     12          6           0        3.412193    2.170956   -0.109878
     13          6           0        4.762886    2.191852    0.150404
     14          6           0        5.464637    0.998158    0.380445
     15          1           0        6.528576    1.007718    0.582725
     16          1           0        5.270744    3.148149    0.177050
     17          1           0        0.844013   -2.440406   -0.114424
     18          7           0        1.350279    3.368380   -0.640201
     19          7           0        4.820185   -2.652758    0.570146
     20          8           0        2.901743   -3.824010    0.303352
     21          8           0        6.743976   -1.462665    0.827748
     22          8           0        3.276080    4.524116   -0.278813
     23          8           0       -0.490427    2.221079   -1.251866
     24          6           0        0.626588    4.602021   -0.946219
     25          1           0        0.453873    4.683141   -2.020693
     26          1           0       -0.336990    4.586578   -0.439944
     27          1           0        1.229666    5.438085   -0.604613
     28          6           0        5.518841   -3.915464    0.807892
     29          1           0        5.074696   -4.425388    1.662743
     30          1           0        5.425548   -4.558911   -0.067204
     31          1           0        6.563196   -3.690071    1.001498
     32          6           0       -0.822595   -0.454760   -0.542531
     33          6           0       -1.473933   -1.008693   -1.602845
     34         16           0       -1.906522    0.010035    0.713239
     35          6           0       -2.881793   -1.028367   -1.412066
     36          1           0       -0.965281   -1.355214   -2.491385
     37          6           0       -3.291745   -0.514069   -0.202548
     38          8           0       -3.799054   -1.502287   -2.288062
     39          6           0       -4.645731   -0.412362    0.301068
     40          6           0       -3.332039   -1.961246   -3.538797
     41          6           0       -5.049368    0.094663    1.516791
     42         16           0       -6.036523   -0.936217   -0.606885
     43          1           0       -4.214240   -2.270289   -4.096679
     44          1           0       -2.817741   -1.163540   -4.085880
     45          1           0       -2.660546   -2.819113   -3.421292
     46          6           0       -6.457247    0.064996    1.717729
     47          8           0       -4.123854    0.559786    2.390700
     48          6           0       -7.107330   -0.467574    0.646193
     49          1           0       -6.960678    0.418213    2.606181
     50          6           0       -4.587606    1.088689    3.614350
     51          1           0       -8.170582   -0.610499    0.527249
     52          1           0       -5.118213    0.329054    4.198980
     53          1           0       -3.702478    1.409299    4.161151
     54          1           0       -5.243926    1.950494    3.450446
 ---------------------------------------------------------------------

 The electronic state is 1-A.
 Alpha  occ. eigenvalues --  -89.04393 -89.04106 -19.28556 -19.28527 -19.25246
 Alpha  occ. eigenvalues --  -19.25194 -19.24872 -19.24860 -14.50793 -14.50409
 Alpha  occ. eigenvalues --  -10.43046 -10.42823 -10.42681 -10.42638 -10.35156
 Alpha  occ. eigenvalues --  -10.34881 -10.34747 -10.34651 -10.34599 -10.34442
 Alpha  occ. eigenvalues --  -10.34241 -10.34176 -10.34116 -10.34051 -10.34047
 Alpha  occ. eigenvalues --  -10.33170 -10.33120 -10.33080 -10.32737 -10.32384
 Alpha  occ. eigenvalues --  -10.32097 -10.32074 -10.31863 -10.31191 -10.29488
 Alpha  occ. eigenvalues --  -10.29174  -8.08409  -8.08129  -6.03268  -6.02972
 Alpha  occ. eigenvalues --   -6.02869  -6.02576  -6.02468  -6.02219  -1.19703
 Alpha  occ. eigenvalues --   -1.19473  -1.18277  -1.18195  -1.17801  -1.17539
 Alpha  occ. eigenvalues --   -1.06962  -1.06572  -1.03515  -1.00223  -0.98643
 Alpha  occ. eigenvalues --   -0.97207  -0.95004  -0.90545  -0.88942  -0.87082
 Alpha  occ. eigenvalues --   -0.85707  -0.85425  -0.84267  -0.82694  -0.82303
 Alpha  occ. eigenvalues --   -0.81285  -0.79416  -0.78184  -0.77046  -0.75788
 Alpha  occ. eigenvalues --   -0.75289  -0.74451  -0.70113  -0.68682  -0.67765
 Alpha  occ. eigenvalues --   -0.66846  -0.65690  -0.64609  -0.64477  -0.63150
 Alpha  occ. eigenvalues --   -0.62902  -0.60905  -0.59924  -0.59319  -0.59067
 Alpha  occ. eigenvalues --   -0.57939  -0.57843  -0.57440  -0.57043  -0.56704
 Alpha  occ. eigenvalues --   -0.56342  -0.56217  -0.55620  -0.55402  -0.54202
 Alpha  occ. eigenvalues --   -0.53998  -0.53778  -0.53414  -0.53133  -0.52494
 Alpha  occ. eigenvalues --   -0.51712  -0.51296  -0.51137  -0.50402  -0.50104
 Alpha  occ. eigenvalues --   -0.49744  -0.49609  -0.49267  -0.48924  -0.48468
 Alpha  occ. eigenvalues --   -0.48349  -0.47080  -0.46671  -0.45851  -0.45093
 Alpha  occ. eigenvalues --   -0.44197  -0.43617  -0.42038  -0.41308  -0.41074
 Alpha  occ. eigenvalues --   -0.40899  -0.40485  -0.39803  -0.38677  -0.37620
 Alpha  occ. eigenvalues --   -0.37525  -0.37057  -0.36921  -0.36010  -0.35025
 Alpha  occ. eigenvalues --   -0.33478  -0.31495  -0.31166  -0.25351
 Alpha virt. eigenvalues --   -0.07272  -0.00049   0.00565   0.02230   0.02786
 Alpha virt. eigenvalues --    0.05043   0.05927   0.06229   0.06590   0.06892
 Alpha virt. eigenvalues --    0.07233   0.07441   0.07558   0.07721   0.07978

 Mulliken charges:
               1
     1  C    0.480372
     2  C    0.022508
     3  C    0.156793
     4  C    0.164309
     5  C    0.376525
     6  C   -0.617397
     7  C    0.122637
     8  C   -0.050155
     9  C    0.227591
    10  C   -0.335086
    11  C    0.316719
    12  C    0.140152
    13  C   -0.521753
    14  C   -0.709011
    15  H    0.188774
    16  H    0.189407
    17  H    0.195371
    18  N   -0.032163
    19  N   -0.094723
    20  O   -0.258750
    21  O   -0.269244
    22  O   -0.272887
    23  O   -0.133816
    24  C   -0.275967
    25  H    0.200190
    26  H    0.195592
    27  H    0.199268
    28  C   -0.284698
    29  H    0.194121
    30  H    0.194066
    31  H    0.200837
    32  C    0.363996
    33  C   -0.403802
    34  S   -0.319352
    35  C   -0.122663
    36  H    0.146294
    37  C    0.263134
    38  O   -0.111474
    39  C    0.862529
    40  C   -0.290451
    41  C    0.053621
    42  S   -0.302054
    43  H    0.181704
    44  H    0.166455
    45  H    0.158392
    46  C   -0.577111
    47  O   -0.124037
    48  C   -0.381987
    49  H    0.154204
    50  C   -0.301368
    51  H    0.183967
    52  H    0.155294
    53  H    0.177706
    54  H    0.157421
 Sum of Mulliken charges =  -0.00000

 Dipole moment (field-independent basis, Debye):
    X=             -1.2593    Y=              0.1207    Z=              0.1684  Tot=              1.2762
 Quadrupole moment (field-independent basis, Debye-Ang):
   XX=           -216.6082   YY=           -228.2820   ZZ=           -199.5730
   XY=             -6.2387   XZ=             -9.9184   YZ=             10.1185

 Normal termination of Gaussian 16 at Fri Nov 27 03:17:44 2020.
