 Gaussian 16, Revision C.01,
 Gaussian 16:  ES64L-G16RevC.01  3-Jul-2019

 --------------------------------------
 # opt=modredundant wb97xd/6-311+g(d,p)
 --------------------------------------

 -----------
 NDI_-10.pdb
 -----------
 Symbolic Z-matrix:
 Charge =  0 Multiplicity = 1

 SCF Done:  E(RwB97XD) =  -2358.75779183     A.U. after   20 cycles
 SCF Done:  E(RwB97XD) =  -2358.74597995     A.U. after   20 cycles
 SCF Done:  E(RwB97XD) =  -2358.76485057     A.U. after   17 cycles
 SCF Done:  E(RwB97XD) =  -2358.76780383     A.U. after   17 cycles
 SCF Done:  E(RwB97XD) =  -2358.76904472     A.U. after   18 cycles
 SCF Done:  E(RwB97XD) =  -2358.76954489     A.U. after   17 cycles
 SCF Done:  E(RwB97XD) =  -2358.76978578     A.U. after   16 cycles
 SCF Done:  E(RwB97XD) =  -2358.77014773     A.U. after   17 cycles
 SCF Done:  E(RwB97XD) =  -2358.77033093     A.U. after   16 cycles
 SCF Done:  E(RwB97XD) =  -2358.77042735     A.U. after   16 cycles
 SCF Done:  E(RwB97XD) =  -2358.77058863     A.U. after   12 cycles
 SCF Done:  E(RwB97XD) =  -2358.77058888     A.U. after   13 cycles
 SCF Done:  E(RwB97XD) =  -2358.77058895     A.U. after   10 cycles
 SCF Done:  E(RwB97XD) =  -2358.77058899     A.U. after   10 cycles
 SCF Done:  E(RwB97XD) =  -2358.77058900     A.U. after   10 cycles
 SCF Done:  E(RwB97XD) =  -2358.77058902     A.U. after    8 cycles
 SCF Done:  E(RwB97XD) =  -2358.77058904     A.U. after   10 cycles
 SCF Done:  E(RwB97XD) =  -2358.77058905     A.U. after    8 cycles
 SCF Done:  E(RwB97XD) =  -2358.77058906     A.U. after    9 cycles
 SCF Done:  E(RwB97XD) =  -2358.77058908     A.U. after    9 cycles
 Optimization completed.
    -- Stationary point found.

                         Standard orientation:
 ---------------------------------------------------------------------
 Center     Atomic      Atomic             Coordinates (Angstroms)
 Number     Number       Type             X           Y           Z
 ---------------------------------------------------------------------
      1          6           0       -2.534767   -3.026515   -0.072041
      2          6           0       -2.233693   -1.572288    0.001939
      3          6           0       -3.278060   -0.626370   -0.035231
      4          6           0       -4.615665   -1.040719   -0.166482
      5          6           0       -4.948082   -2.489314   -0.248481
      6          6           0       -0.937879   -1.158949    0.052980
      7          6           0       -2.949971    0.741476    0.062459
      8          6           0       -1.593211    1.160953    0.198412
      9          6           0       -0.555744    0.215486    0.127248
     10          6           0       -1.383166    2.588110    0.572699
     11          6           0       -3.749182    3.126872    0.067386
     12          6           0       -4.012838    1.671601   -0.006248
     13          6           0       -5.317447    1.251655   -0.154495
     14          6           0       -5.628686   -0.110612   -0.227428
     15          1           0       -6.651990   -0.447734   -0.334570
     16          1           0       -6.094762    2.003574   -0.214087
     17          1           0       -0.179206   -1.931112    0.012344
     18          7           0       -2.434889    3.484625    0.343588
     19          7           0       -3.876313   -3.385744   -0.187216
     20          8           0       -1.671772   -3.874404   -0.035864
     21          8           0       -6.088133   -2.878184   -0.359972
     22          8           0       -4.620632    3.956489   -0.074081
     23          8           0       -0.370042    3.012659    1.083301
     24          6           0       -2.146230    4.894677    0.599546
     25          1           0       -2.017006    5.068037    1.669072
     26          1           0       -1.225413    5.173727    0.089728
     27          1           0       -2.982879    5.478337    0.226862
     28          6           0       -4.157186   -4.818951   -0.257808
     29          1           0       -3.665256   -5.249002   -1.130572
     30          1           0       -3.774073   -5.312577    0.635324
     31          1           0       -5.233155   -4.946208   -0.329791
     32          6           0        0.875713    0.476788   -0.040697
     33          6           0        1.551202    1.632966   -0.347716
     34         16           0        2.008247   -0.824643    0.218906
     35          6           0        2.946592    1.464805   -0.402239
     36          1           0        1.065637    2.574068   -0.534309
     37          6           0        3.373655    0.181722   -0.110551
     38          8           0        3.855549    2.421267   -0.697441
     39          6           0        4.732851   -0.303091   -0.069503
     40          6           0        3.379776    3.743049   -0.860728
     41          6           0        5.151875   -1.587054    0.215462
     42         16           0        6.114183    0.710935   -0.386114
     43          1           0        4.260094    4.362958   -1.020169
     44          1           0        2.720790    3.819703   -1.732545
     45          1           0        2.847313    4.083177    0.033665
     46          6           0        6.563169   -1.753778    0.179851
     47          8           0        4.238027   -2.541467    0.494196
     48          6           0        7.198169   -0.589689   -0.132714
     49          1           0        7.079553   -2.682548    0.374561
     50          6           0        4.708132   -3.846720    0.765744
     51          1           0        8.261398   -0.428979   -0.228238
     52          1           0        5.352325   -3.857328    1.651365
     53          1           0        3.823946   -4.452439    0.954800
     54          1           0        5.252269   -4.256030   -0.092013
 ---------------------------------------------------------------------

 The electronic state is 1-A.
 Alpha  occ. eigenvalues --  -89.05177 -89.04982 -19.29401 -19.29115 -19.24887
 Alpha  occ. eigenvalues --  -19.24869 -19.24575 -19.24410 -14.50451 -14.50113
 Alpha  occ. eigenvalues --  -10.42660 -10.42535 -10.42473 -10.42110 -10.35855
 Alpha  occ. eigenvalues --  -10.35620 -10.35578 -10.34734 -10.34460 -10.34210
 Alpha  occ. eigenvalues --  -10.33931 -10.33648 -10.33580 -10.33548 -10.33497
 Alpha  occ. eigenvalues --  -10.33328 -10.33311 -10.32718 -10.32716 -10.32441
 Alpha  occ. eigenvalues --  -10.32346 -10.32178 -10.32142 -10.32123 -10.30021
 Alpha  occ. eigenvalues --  -10.29977  -8.09217  -8.09002  -6.04065  -6.03845
 Alpha  occ. eigenvalues --   -6.03664  -6.03448  -6.03291  -6.03091  -1.19359
 Alpha  occ. eigenvalues --   -1.19207  -1.19136  -1.18852  -1.17448  -1.17168
 Alpha  occ. eigenvalues --   -1.06612  -1.06266  -1.02960  -1.00893  -0.99219
 Alpha  occ. eigenvalues --   -0.97026  -0.94489  -0.90567  -0.88505  -0.87627
 Alpha  occ. eigenvalues --   -0.86228  -0.85173  -0.85064  -0.82976  -0.82264
 Alpha  occ. eigenvalues --   -0.81535  -0.79776  -0.78408  -0.76819  -0.75389
 Alpha  occ. eigenvalues --   -0.75168  -0.74137  -0.70354  -0.69081  -0.68007
 Alpha  occ. eigenvalues --   -0.66511  -0.65875  -0.65436  -0.64540  -0.63926
 Alpha  occ. eigenvalues --   -0.62361  -0.60618  -0.59704  -0.59222  -0.58707
 Alpha  occ. eigenvalues --   -0.58375  -0.57677  -0.57610  -0.57287  -0.57190
 Alpha  occ. eigenvalues --   -0.56750  -0.55786  -0.55403  -0.55101  -0.54542
 Alpha  occ. eigenvalues --   -0.53833  -0.53730  -0.53419  -0.53072  -0.51816
 Alpha  occ. eigenvalues --   -0.51699  -0.51176  -0.50936  -0.50709  -0.50465
 Alpha  occ. eigenvalues --   -0.50178  -0.49519  -0.49471  -0.48890  -0.48453
 Alpha  occ. eigenvalues --   -0.47939  -0.47828  -0.46932  -0.46011  -0.45389
 Alpha  occ. eigenvalues --   -0.44718  -0.44242  -0.42578  -0.41970  -0.41542
 Alpha  occ. eigenvalues --   -0.41205  -0.40034  -0.39565  -0.38526  -0.37824
 Alpha  occ. eigenvalues --   -0.37217  -0.37058  -0.36730  -0.36390  -0.34548
 Alpha  occ. eigenvalues --   -0.33132  -0.31970  -0.31755  -0.25738
 Alpha virt. eigenvalues --   -0.07132  -0.01290   0.00590   0.02563   0.03632
 Alpha virt. eigenvalues --    0.05242   0.05675   0.06037   0.06718   0.07081
 Alpha virt. eigenvalues --    0.07126   0.07336   0.07853   0.08082   0.08178

 Mulliken charges:
               1
     1  C    0.377544
     2  C   -0.075919
     3  C    0.156135
     4  C    0.191044
     5  C    0.377743
     6  C    0.065679
     7  C    0.136294
     8  C    0.517119
     9  C    0.165419
    10  C   -0.946698
    11  C    0.311855
    12  C    0.105161
    13  C   -0.553239
    14  C   -0.657187
    15  H    0.186473
    16  H    0.187933
    17  H    0.189325
    18  N    0.058322
    19  N   -0.088631
    20  O   -0.270939
    21  O   -0.265287
    22  O   -0.279470
    23  O   -0.240299
    24  C   -0.246732
    25  H    0.201823
    26  H    0.180281
    27  H    0.201260
    28  C   -0.284479
    29  H    0.193805
    30  H    0.192028
    31  H    0.199739
    32  C   -0.053146
    33  C   -0.213349
    34  S   -0.737074
    35  C   -0.484805
    36  H    0.164000
    37  C    0.655209
    38  O   -0.104114
    39  C    1.048624
    40  C   -0.317446
    41  C    0.053423
    42  S   -0.241306
    43  H    0.183667
    44  H    0.156717
    45  H    0.178793
    46  C   -0.632076
    47  O   -0.109470
    48  C   -0.373311
    49  H    0.157826
    50  C   -0.310624
    51  H    0.188973
    52  H    0.157605
    53  H    0.186365
    54  H    0.159420
 Sum of Mulliken charges =  -0.00000

 Dipole moment (field-independent basis, Debye):
    X=              3.6718    Y=             -0.4214    Z=             -0.3883  Tot=              3.7162
 Quadrupole moment (field-independent basis, Debye-Ang):
   XX=           -213.3790   YY=           -204.1706   ZZ=           -222.8854
   XY=             -5.0157   XZ=             -1.2747   YZ=             -6.5502

 Normal termination of Gaussian 16 at Fri Nov 27 02:03:49 2020.
