 Gaussian 16, Revision C.01,
 Gaussian 16:  ES64L-G16RevC.01  3-Jul-2019

 --------------------------------------
 # opt=modredundant wb97xd/6-311+g(d,p)
 --------------------------------------

 ----------
 NDI_30.pdb
 ----------
 Symbolic Z-matrix:
 Charge =  0 Multiplicity = 1

 SCF Done:  E(RwB97XD) =  -2358.76201476     A.U. after   19 cycles
 SCF Done:  E(RwB97XD) =  -2358.75354826     A.U. after   20 cycles
 SCF Done:  E(RwB97XD) =  -2358.76620838     A.U. after   17 cycles
 SCF Done:  E(RwB97XD) =  -2358.77053761     A.U. after   17 cycles
 SCF Done:  E(RwB97XD) =  -2358.77072418     A.U. after   17 cycles
 SCF Done:  E(RwB97XD) =  -2358.77168972     A.U. after   15 cycles
 SCF Done:  E(RwB97XD) =  -2358.77213678     A.U. after   16 cycles
 SCF Done:  E(RwB97XD) =  -2358.77234102     A.U. after   17 cycles
 SCF Done:  E(RwB97XD) =  -2358.77257450     A.U. after   16 cycles
 SCF Done:  E(RwB97XD) =  -2358.77291126     A.U. after   17 cycles
 SCF Done:  E(RwB97XD) =  -2358.77336332     A.U. after   14 cycles
 SCF Done:  E(RwB97XD) =  -2358.77338393     A.U. after   14 cycles
 SCF Done:  E(RwB97XD) =  -2358.77339857     A.U. after   13 cycles
 SCF Done:  E(RwB97XD) =  -2358.77340458     A.U. after   14 cycles
 SCF Done:  E(RwB97XD) =  -2358.77340583     A.U. after   13 cycles
 SCF Done:  E(RwB97XD) =  -2358.77340643     A.U. after   11 cycles
 SCF Done:  E(RwB97XD) =  -2358.77340666     A.U. after   13 cycles
 SCF Done:  E(RwB97XD) =  -2358.77340678     A.U. after   11 cycles
 SCF Done:  E(RwB97XD) =  -2358.77340682     A.U. after   12 cycles
 SCF Done:  E(RwB97XD) =  -2358.77340686     A.U. after   12 cycles
 Optimization completed.
    -- Stationary point found.

                         Standard orientation:
 ---------------------------------------------------------------------
 Center     Atomic      Atomic             Coordinates (Angstroms)
 Number     Number       Type             X           Y           Z
 ---------------------------------------------------------------------
      1          6           0       -2.693753   -2.990041    0.323454
      2          6           0       -2.315479   -1.561551    0.157350
      3          6           0       -3.311847   -0.569234    0.055235
      4          6           0       -4.675101   -0.913158    0.124230
      5          6           0       -5.083980   -2.334483    0.294101
      6          6           0       -0.997818   -1.211661    0.150464
      7          6           0       -2.917405    0.774069   -0.119227
      8          6           0       -1.538169    1.122098   -0.191386
      9          6           0       -0.562548    0.136674    0.000795
     10          6           0       -1.214319    2.515740   -0.617974
     11          6           0       -3.593400    3.183723   -0.375270
     12          6           0       -3.934894    1.751866   -0.202205
     13          6           0       -5.264436    1.400427   -0.118563
     14          6           0       -5.642805    0.061493    0.040034
     15          1           0       -6.685954   -0.222695    0.099486
     16          1           0       -6.008945    2.184802   -0.178196
     17          1           0       -0.265971   -1.997445    0.295949
     18          7           0       -2.244800    3.464782   -0.562718
     19          7           0       -4.056432   -3.279072    0.375947
     20          8           0       -1.873727   -3.875646    0.410302
     21          8           0       -6.247000   -2.661413    0.356616
     22          8           0       -4.433885    4.056114   -0.377668
     23          8           0       -0.130089    2.866397   -1.024000
     24          6           0       -1.866666    4.839907   -0.884725
     25          1           0       -1.002918    5.127808   -0.287167
     26          1           0       -1.600591    4.921878   -1.939622
     27          1           0       -2.715961    5.479574   -0.663654
     28          6           0       -4.410881   -4.688427    0.538219
     29          1           0       -4.000223   -5.267945   -0.288635
     30          1           0       -3.992578   -5.068850    1.470349
     31          1           0       -5.494040   -4.762815    0.552042
     32          6           0        0.871817    0.367555    0.177244
     33          6           0        1.517972    1.440413    0.730189
     34         16           0        2.007936   -0.840430   -0.337171
     35          6           0        2.918743    1.287091    0.745781
     36          1           0        1.004052    2.305770    1.116977
     37          6           0        3.362374    0.099712    0.192888
     38          8           0        3.814758    2.172280    1.238937
     39          6           0        4.729611   -0.341469    0.039437
     40          6           0        3.332193    3.451855    1.597881
     41          6           0        5.164371   -1.539578   -0.488616
     42         16           0        6.099950    0.624702    0.513068
     43          1           0        4.207119    4.040399    1.868042
     44          1           0        2.814720    3.926305    0.757326
     45          1           0        2.658341    3.392474    2.459761
     46          6           0        6.578979   -1.680025   -0.512835
     47          8           0        4.260338   -2.445091   -0.924383
     48          6           0        7.201251   -0.581732   -0.000969
     49          1           0        7.106421   -2.545343   -0.887399
     50          6           0        4.747928   -3.667582   -1.438923
     51          1           0        8.263325   -0.419464    0.103822
     52          1           0        5.318289   -4.215292   -0.681124
     53          1           0        3.871217   -4.248226   -1.719687
     54          1           0        5.372578   -3.502480   -2.323337
 ---------------------------------------------------------------------

 The electronic state is 1-A.
 Alpha  occ. eigenvalues --  -89.05077 -89.04767 -19.29203 -19.28972 -19.24963
 Alpha  occ. eigenvalues --  -19.24931 -19.24525 -19.24522 -14.50523 -14.50172
 Alpha  occ. eigenvalues --  -10.42744 -10.42542 -10.42536 -10.42244 -10.35581
 Alpha  occ. eigenvalues --  -10.35448 -10.35382 -10.34619 -10.34412 -10.34312
 Alpha  occ. eigenvalues --  -10.34045 -10.33851 -10.33688 -10.33652 -10.33480
 Alpha  occ. eigenvalues --  -10.33248 -10.33027 -10.32775 -10.32609 -10.32529
 Alpha  occ. eigenvalues --  -10.32509 -10.32178 -10.32120 -10.31934 -10.30006
 Alpha  occ. eigenvalues --  -10.29782  -8.09106  -8.08788  -6.03953  -6.03631
 Alpha  occ. eigenvalues --   -6.03557  -6.03235  -6.03180  -6.02877  -1.19432
 Alpha  occ. eigenvalues --   -1.19214  -1.18923  -1.18706  -1.17523  -1.17218
 Alpha  occ. eigenvalues --   -1.06684  -1.06292  -1.03082  -1.00756  -0.99082
 Alpha  occ. eigenvalues --   -0.97089  -0.94604  -0.90551  -0.88595  -0.87495
 Alpha  occ. eigenvalues --   -0.86110  -0.85221  -0.84914  -0.82863  -0.82273
 Alpha  occ. eigenvalues --   -0.81518  -0.79670  -0.78374  -0.76853  -0.75471
 Alpha  occ. eigenvalues --   -0.75174  -0.74205  -0.70298  -0.68969  -0.67941
 Alpha  occ. eigenvalues --   -0.66573  -0.65808  -0.65246  -0.64564  -0.63739
 Alpha  occ. eigenvalues --   -0.62443  -0.60671  -0.59721  -0.59215  -0.58771
 Alpha  occ. eigenvalues --   -0.58306  -0.57682  -0.57488  -0.57301  -0.57093
 Alpha  occ. eigenvalues --   -0.56655  -0.55800  -0.55448  -0.55158  -0.54445
 Alpha  occ. eigenvalues --   -0.53936  -0.53593  -0.53406  -0.53163  -0.52096
 Alpha  occ. eigenvalues --   -0.51629  -0.51121  -0.50949  -0.50628  -0.50355
 Alpha  occ. eigenvalues --   -0.50146  -0.49515  -0.49464  -0.48882  -0.48417
 Alpha  occ. eigenvalues --   -0.48022  -0.47726  -0.46976  -0.45830  -0.45553
 Alpha  occ. eigenvalues --   -0.44421  -0.44169  -0.42504  -0.41927  -0.41360
 Alpha  occ. eigenvalues --   -0.41230  -0.40133  -0.39612  -0.38559  -0.37725
 Alpha  occ. eigenvalues --   -0.37292  -0.37044  -0.36853  -0.36328  -0.34586
 Alpha  occ. eigenvalues --   -0.33123  -0.31832  -0.31647  -0.25663
 Alpha virt. eigenvalues --   -0.07185  -0.00875   0.00519   0.02439   0.03492
 Alpha virt. eigenvalues --    0.05160   0.05714   0.06024   0.06745   0.07021
 Alpha virt. eigenvalues --    0.07216   0.07430   0.07772   0.07910   0.08024

 Mulliken charges:
               1
     1  C    0.399214
     2  C   -0.137196
     3  C    0.128376
     4  C    0.187065
     5  C    0.361054
     6  C   -0.299028
     7  C    0.138386
     8  C    0.491337
     9  C    0.315800
    10  C   -0.673152
    11  C    0.300846
    12  C    0.082693
    13  C   -0.534263
    14  C   -0.673154
    15  H    0.187149
    16  H    0.187961
    17  H    0.199587
    18  N    0.022945
    19  N   -0.089897
    20  O   -0.267951
    21  O   -0.266235
    22  O   -0.277034
    23  O   -0.202713
    24  C   -0.255657
    25  H    0.182451
    26  H    0.200732
    27  H    0.200743
    28  C   -0.284252
    29  H    0.192542
    30  H    0.193880
    31  H    0.199857
    32  C    0.124919
    33  C   -0.495959
    34  S   -0.700491
    35  C   -0.146654
    36  H    0.154855
    37  C    0.672030
    38  O   -0.107217
    39  C    0.911645
    40  C   -0.315161
    41  C    0.018363
    42  S   -0.278890
    43  H    0.182297
    44  H    0.178558
    45  H    0.156403
    46  C   -0.649781
    47  O   -0.110277
    48  C   -0.343787
    49  H    0.157060
    50  C   -0.307667
    51  H    0.187447
    52  H    0.159053
    53  H    0.183581
    54  H    0.157586
 Sum of Mulliken charges =  -0.00000

 Dipole moment (field-independent basis, Debye):
    X=              3.0765    Y=             -0.3046    Z=              0.2678  Tot=              3.1031
 Quadrupole moment (field-independent basis, Debye-Ang):
   XX=           -214.4945   YY=           -207.5350   ZZ=           -219.2934
   XY=             -4.2525   XZ=             -2.1421   YZ=             11.5543

 Normal termination of Gaussian 16 at Fri Nov 27 03:07:52 2020.
