 Gaussian 16, Revision C.01,
 Gaussian 16:  ES64L-G16RevC.01  3-Jul-2019

 --------------------------------------
 # opt=modredundant wb97xd/6-311+g(d,p)
 --------------------------------------

 ------------
 NDI_-135.pdb
 ------------
 Symbolic Z-matrix:
 Charge =  0 Multiplicity = 1

 SCF Done:  E(RwB97XD) =  -2358.75707221     A.U. after   19 cycles
 SCF Done:  E(RwB97XD) =  -2358.75930298     A.U. after   19 cycles
 SCF Done:  E(RwB97XD) =  -2358.76552701     A.U. after   15 cycles
 SCF Done:  E(RwB97XD) =  -2358.77065751     A.U. after   15 cycles
 SCF Done:  E(RwB97XD) =  -2358.77170350     A.U. after   16 cycles
 SCF Done:  E(RwB97XD) =  -2358.77219105     A.U. after   17 cycles
 SCF Done:  E(RwB97XD) =  -2358.77244710     A.U. after   16 cycles
 SCF Done:  E(RwB97XD) =  -2358.77304995     A.U. after   15 cycles
 SCF Done:  E(RwB97XD) =  -2358.77322841     A.U. after   15 cycles
 SCF Done:  E(RwB97XD) =  -2358.77329359     A.U. after   14 cycles
 SCF Done:  E(RwB97XD) =  -2358.77366048     A.U. after   13 cycles
 SCF Done:  E(RwB97XD) =  -2358.77366412     A.U. after   13 cycles
 SCF Done:  E(RwB97XD) =  -2358.77366688     A.U. after   12 cycles
 SCF Done:  E(RwB97XD) =  -2358.77366684     A.U. after   13 cycles
 SCF Done:  E(RwB97XD) =  -2358.77366779     A.U. after   12 cycles
 SCF Done:  E(RwB97XD) =  -2358.77366788     A.U. after   10 cycles
 SCF Done:  E(RwB97XD) =  -2358.77366817     A.U. after    9 cycles
 SCF Done:  E(RwB97XD) =  -2358.77366834     A.U. after   10 cycles
 SCF Done:  E(RwB97XD) =  -2358.77366845     A.U. after   10 cycles
 SCF Done:  E(RwB97XD) =  -2358.77366852     A.U. after   10 cycles
 Optimization completed.
    -- Stationary point found.

                         Standard orientation:
 ---------------------------------------------------------------------
 Center     Atomic      Atomic             Coordinates (Angstroms)
 Number     Number       Type             X           Y           Z
 ---------------------------------------------------------------------
      1          6           0       -3.525231   -2.677705    0.444516
      2          6           0       -2.760148   -1.444150    0.124685
      3          6           0       -3.410409   -0.193140    0.106928
      4          6           0       -4.782421   -0.088450    0.409680
      5          6           0       -5.570876   -1.306106    0.742912
      6          6           0       -1.415386   -1.521429   -0.111664
      7          6           0       -2.666996    0.959373   -0.220524
      8          6           0       -1.286057    0.855127   -0.529451
      9          6           0       -0.641288   -0.372720   -0.421330
     10          6           0       -0.610522    2.060156   -1.094965
     11          6           0       -2.580089    3.454565   -0.529911
     12          6           0       -3.326060    2.209033   -0.213489
     13          6           0       -4.664221    2.293942    0.097111
     14          6           0       -5.400833    1.140322    0.405368
     15          1           0       -6.455275    1.199838    0.645082
     16          1           0       -5.133970    3.269920    0.101164
     17          1           0       -0.923998   -2.483770   -0.032597
     18          7           0       -1.254248    3.292294   -0.917084
     19          7           0       -4.880644   -2.522541    0.733810
     20          8           0       -3.015626   -3.775316    0.458076
     21          8           0       -6.750082   -1.251932    1.006914
     22          8           0       -3.096731    4.548431   -0.474065
     23          8           0        0.430195    2.013969   -1.704999
     24          6           0       -0.519684    4.476622   -1.359446
     25          1           0        0.517950    4.386675   -1.044889
     26          1           0       -0.549202    4.561145   -2.447534
     27          1           0       -0.987445    5.349490   -0.912939
     28          6           0       -5.615640   -3.746660    1.050186
     29          1           0       -5.570684   -4.432585    0.204052
     30          1           0       -5.164989   -4.232677    1.915569
     31          1           0       -6.645205   -3.474571    1.262064
     32          6           0        0.810076   -0.577453   -0.523005
     33          6           0        1.442304   -1.558560   -1.236028
     34         16           0        1.916144    0.305067    0.462545
     35          6           0        2.842447   -1.563075   -1.020741
     36          1           0        0.920590   -2.225652   -1.908272
     37          6           0        3.272032   -0.616141   -0.114275
     38          8           0        3.740779   -2.390617   -1.604050
     39          6           0        4.626003   -0.381388    0.338559
     40          6           0        3.249959   -3.344641   -2.522234
     41          6           0        5.048751    0.559541    1.252888
     42         16           0        5.992004   -1.296836   -0.236099
     43          1           0        4.117461   -3.899140   -2.875482
     44          1           0        2.550617   -4.036316   -2.039521
     45          1           0        2.759322   -2.858923   -3.372833
     46          6           0        6.451409    0.548428    1.487568
     47          8           0        4.144629    1.382107    1.835068
     48          6           0        7.077560   -0.406915    0.745856
     49          1           0        6.968265    1.210083    2.167609
     50          6           0        4.629649    2.359936    2.730868
     51          1           0        8.132205   -0.636050    0.726002
     52          1           0        5.327168    3.041997    2.232640
     53          1           0        3.759098    2.918886    3.069648
     54          1           0        5.120660    1.897480    3.594073
 ---------------------------------------------------------------------

 The electronic state is 1-A.
 Alpha  occ. eigenvalues --  -89.04653 -89.04439 -19.28905 -19.28825 -19.25123
 Alpha  occ. eigenvalues --  -19.25096 -19.24663 -19.24649 -14.50678 -14.50178
 Alpha  occ. eigenvalues --  -10.42912 -10.42719 -10.42482 -10.42391 -10.35224
 Alpha  occ. eigenvalues --  -10.35159 -10.35132 -10.34499 -10.34410 -10.34398
 Alpha  occ. eigenvalues --  -10.34211 -10.34158 -10.33906 -10.33876 -10.33780
 Alpha  occ. eigenvalues --  -10.33030 -10.32996 -10.32911 -10.32846 -10.32638
 Alpha  occ. eigenvalues --  -10.32296 -10.32192 -10.32017 -10.31557 -10.29935
 Alpha  occ. eigenvalues --  -10.29484  -8.08678  -8.08462  -6.03534  -6.03305
 Alpha  occ. eigenvalues --   -6.03135  -6.02908  -6.02738  -6.02550  -1.19582
 Alpha  occ. eigenvalues --   -1.19259  -1.18619  -1.18526  -1.17681  -1.17310
 Alpha  occ. eigenvalues --   -1.06830  -1.06390  -1.03320  -1.00506  -0.98868
 Alpha  occ. eigenvalues --   -0.97190  -0.94810  -0.90580  -0.88765  -0.87280
 Alpha  occ. eigenvalues --   -0.85963  -0.85303  -0.84617  -0.82726  -0.82440
 Alpha  occ. eigenvalues --   -0.81192  -0.79691  -0.78316  -0.76906  -0.75617
 Alpha  occ. eigenvalues --   -0.75161  -0.74405  -0.70120  -0.68887  -0.67889
 Alpha  occ. eigenvalues --   -0.66723  -0.65830  -0.64926  -0.64262  -0.63488
 Alpha  occ. eigenvalues --   -0.62898  -0.60761  -0.59784  -0.59167  -0.58947
 Alpha  occ. eigenvalues --   -0.58185  -0.57736  -0.57348  -0.57313  -0.56962
 Alpha  occ. eigenvalues --   -0.56496  -0.56051  -0.55476  -0.55364  -0.54224
 Alpha  occ. eigenvalues --   -0.53935  -0.53823  -0.53392  -0.53182  -0.52501
 Alpha  occ. eigenvalues --   -0.51624  -0.51196  -0.50898  -0.50390  -0.50198
 Alpha  occ. eigenvalues --   -0.50074  -0.49600  -0.49433  -0.48936  -0.48431
 Alpha  occ. eigenvalues --   -0.48174  -0.47439  -0.46652  -0.45846  -0.45386
 Alpha  occ. eigenvalues --   -0.44396  -0.43941  -0.42264  -0.41602  -0.41266
 Alpha  occ. eigenvalues --   -0.41192  -0.40256  -0.39693  -0.38570  -0.37595
 Alpha  occ. eigenvalues --   -0.37401  -0.37011  -0.36749  -0.36271  -0.34908
 Alpha  occ. eigenvalues --   -0.33228  -0.31754  -0.31381  -0.25540
 Alpha virt. eigenvalues --   -0.07170  -0.00337   0.00474   0.02276   0.03227
 Alpha virt. eigenvalues --    0.05133   0.05802   0.06081   0.06635   0.06805
 Alpha virt. eigenvalues --    0.07123   0.07534   0.07603   0.07746   0.07881

 Mulliken charges:
               1
     1  C    0.474251
     2  C   -0.112234
     3  C    0.088954
     4  C    0.190646
     5  C    0.368630
     6  C   -0.454783
     7  C    0.085891
     8  C    0.108329
     9  C    0.315260
    10  C   -0.484140
    11  C    0.344222
    12  C    0.060507
    13  C   -0.498694
    14  C   -0.673691
    15  H    0.188048
    16  H    0.188519
    17  H    0.192281
    18  N    0.050549
    19  N   -0.095196
    20  O   -0.263754
    21  O   -0.268574
    22  O   -0.277029
    23  O   -0.181297
    24  C   -0.269696
    25  H    0.194846
    26  H    0.201719
    27  H    0.197670
    28  C   -0.281526
    29  H    0.193068
    30  H    0.193997
    31  H    0.200859
    32  C    0.395525
    33  C   -0.625812
    34  S   -0.580168
    35  C   -0.036005
    36  H    0.160027
    37  C    0.490506
    38  O   -0.112668
    39  C    0.926671
    40  C   -0.292044
    41  C    0.049492
    42  S   -0.285118
    43  H    0.183077
    44  H    0.163213
    45  H    0.163170
    46  C   -0.630638
    47  O   -0.119163
    48  C   -0.355964
    49  H    0.155240
    50  C   -0.306878
    51  H    0.185650
    52  H    0.159015
    53  H    0.179413
    54  H    0.155830
 Sum of Mulliken charges =  -0.00000

 Dipole moment (field-independent basis, Debye):
    X=              2.1488    Y=             -0.1258    Z=              0.4577  Tot=              2.2005
 Quadrupole moment (field-independent basis, Debye-Ang):
   XX=           -213.8227   YY=           -218.1828   ZZ=           -211.3870
   XY=              8.7089   XZ=              9.9147   YZ=             14.2837

 Normal termination of Gaussian 16 at Fri Nov 27 01:55:21 2020.
