 Gaussian 16, Revision C.01,
 Gaussian 16:  ES64L-G16RevC.01  3-Jul-2019

 --------------------------------------
 # opt=modredundant wb97xd/6-311+g(d,p)
 --------------------------------------

 ----------
 NDI_90.pdb
 ----------
 Symbolic Z-matrix:
 Charge =  0 Multiplicity = 1

 SCF Done:  E(RwB97XD) =  -2358.76465060     A.U. after   19 cycles
 SCF Done:  E(RwB97XD) =  -2358.77189367     A.U. after   17 cycles
 SCF Done:  E(RwB97XD) =  -2358.77290424     A.U. after   16 cycles
 SCF Done:  E(RwB97XD) =  -2358.77312825     A.U. after   15 cycles
 SCF Done:  E(RwB97XD) =  -2358.77324526     A.U. after   14 cycles
 SCF Done:  E(RwB97XD) =  -2358.77329141     A.U. after   13 cycles
 SCF Done:  E(RwB97XD) =  -2358.77331028     A.U. after   13 cycles
 SCF Done:  E(RwB97XD) =  -2358.77332451     A.U. after   12 cycles
 SCF Done:  E(RwB97XD) =  -2358.77333347     A.U. after   12 cycles
 SCF Done:  E(RwB97XD) =  -2358.77334132     A.U. after   12 cycles
 SCF Done:  E(RwB97XD) =  -2358.77336714     A.U. after   11 cycles
 SCF Done:  E(RwB97XD) =  -2358.77336734     A.U. after   10 cycles
 SCF Done:  E(RwB97XD) =  -2358.77336745     A.U. after   10 cycles
 SCF Done:  E(RwB97XD) =  -2358.77336751     A.U. after    9 cycles
 SCF Done:  E(RwB97XD) =  -2358.77336755     A.U. after    9 cycles
 SCF Done:  E(RwB97XD) =  -2358.77336757     A.U. after    8 cycles
 SCF Done:  E(RwB97XD) =  -2358.77336759     A.U. after    8 cycles
 SCF Done:  E(RwB97XD) =  -2358.77336763     A.U. after    8 cycles
 SCF Done:  E(RwB97XD) =  -2358.77336766     A.U. after    8 cycles
 SCF Done:  E(RwB97XD) =  -2358.77336767     A.U. after    8 cycles
 Optimization completed.
    -- Stationary point found.

                         Standard orientation:
 ---------------------------------------------------------------------
 Center     Atomic      Atomic             Coordinates (Angstroms)
 Number     Number       Type             X           Y           Z
 ---------------------------------------------------------------------
      1          6           0       -3.256212   -2.832387    0.269017
      2          6           0       -2.617307   -1.490800    0.213872
      3          6           0       -3.398018   -0.343306   -0.027619
      4          6           0       -4.790561   -0.449880   -0.225640
      5          6           0       -5.456468   -1.780817   -0.179927
      6          6           0       -1.265933   -1.372765    0.399641
      7          6           0       -2.771176    0.919990   -0.071491
      8          6           0       -1.370079    1.028031    0.128709
      9          6           0       -0.617455   -0.114333    0.363937
     10          6           0       -0.743861    2.385407    0.079807
     11          6           0       -2.960873    3.411475   -0.384310
     12          6           0       -3.570769    2.058176   -0.320356
     13          6           0       -4.927337    1.934499   -0.511679
     14          6           0       -5.543940    0.674606   -0.463924
     15          1           0       -6.611488    0.570802   -0.613947
     16          1           0       -5.507183    2.829507   -0.700913
     17          1           0       -0.676473   -2.263440    0.582062
     18          7           0       -1.585319    3.473341   -0.187683
     19          7           0       -4.635209   -2.884551    0.064772
     20          8           0       -2.627807   -3.844023    0.480200
     21          8           0       -6.648393   -1.903867   -0.345549
     22          8           0       -3.621894    4.403426   -0.596135
     23          8           0        0.433392    2.584114    0.256377
     24          6           0       -0.932244    4.781249   -0.241252
     25          1           0       -0.479055    5.009135    0.723829
     26          1           0       -0.147623    4.768336   -0.997330
     27          1           0       -1.687359    5.521481   -0.487851
     28          6           0       -5.244641   -4.212954    0.119995
     29          1           0       -4.793680   -4.855789   -0.636000
     30          1           0       -5.072603   -4.656721    1.100743
     31          1           0       -6.309082   -4.101610   -0.063171
     32          6           0        0.845458   -0.122842    0.588954
     33          6           0        1.497495   -0.016236    1.778278
     34         16           0        1.928189   -0.380160   -0.725635
     35          6           0        2.906992   -0.118332    1.623187
     36          1           0        0.989243    0.153885    2.716698
     37          6           0        3.316826   -0.317146    0.325026
     38          8           0        3.825013   -0.048512    2.616556
     39          6           0        4.673294   -0.458992   -0.162683
     40          6           0        3.366692    0.300456    3.905423
     41          6           0        5.076204   -0.672365   -1.462385
     42         16           0        6.068001   -0.365699    0.876091
     43          1           0        4.251839    0.358125    4.536571
     44          1           0        2.862603    1.273010    3.895654
     45          1           0        2.688576   -0.461567    4.305690
     46          6           0        6.486894   -0.758626   -1.624549
     47          8           0        4.147447   -0.780248   -2.443776
     48          6           0        7.139846   -0.609221   -0.438956
     49          1           0        6.990330   -0.922635   -2.566456
     50          6           0        4.609134   -0.982773   -3.761939
     51          1           0        8.205377   -0.631731   -0.268085
     52          1           0        5.167534   -1.921611   -3.846910
     53          1           0        3.721178   -1.034904   -4.389681
     54          1           0        5.238697   -0.149851   -4.094027
 ---------------------------------------------------------------------

 The electronic state is 1-A.
 Alpha  occ. eigenvalues --  -89.04342 -89.03989 -19.28422 -19.28403 -19.25292
 Alpha  occ. eigenvalues --  -19.25226 -19.24973 -19.24909 -14.50834 -14.50529
 Alpha  occ. eigenvalues --  -10.43096 -10.42856 -10.42781 -10.42751 -10.35221
 Alpha  occ. eigenvalues --  -10.34802 -10.34737 -10.34735 -10.34605 -10.34546
 Alpha  occ. eigenvalues --  -10.34196 -10.34142 -10.34125 -10.34115 -10.34092
 Alpha  occ. eigenvalues --  -10.33253 -10.33159 -10.33147 -10.32642 -10.32413
 Alpha  occ. eigenvalues --  -10.32147 -10.31886 -10.31743 -10.31065 -10.29304
 Alpha  occ. eigenvalues --  -10.29062  -8.08352  -8.08012  -6.03210  -6.02855
 Alpha  occ. eigenvalues --   -6.02810  -6.02459  -6.02413  -6.02101  -1.19751
 Alpha  occ. eigenvalues --   -1.19571  -1.18144  -1.18061  -1.17846  -1.17640
 Alpha  occ. eigenvalues --   -1.07014  -1.06645  -1.03587  -1.00135  -0.98573
 Alpha  occ. eigenvalues --   -0.97202  -0.95078  -0.90541  -0.89013  -0.87011
 Alpha  occ. eigenvalues --   -0.85634  -0.85457  -0.84142  -0.82741  -0.82180
 Alpha  occ. eigenvalues --   -0.81371  -0.79283  -0.78143  -0.77109  -0.75860
 Alpha  occ. eigenvalues --   -0.75367  -0.74456  -0.70143  -0.68602  -0.67721
 Alpha  occ. eigenvalues --   -0.66894  -0.65574  -0.64696  -0.64472  -0.63008
 Alpha  occ. eigenvalues --   -0.62861  -0.60961  -0.59985  -0.59394  -0.59124
 Alpha  occ. eigenvalues --   -0.57916  -0.57804  -0.57477  -0.56954  -0.56625
 Alpha  occ. eigenvalues --   -0.56398  -0.56145  -0.55669  -0.55402  -0.54224
 Alpha  occ. eigenvalues --   -0.54008  -0.53737  -0.53495  -0.53074  -0.52457
 Alpha  occ. eigenvalues --   -0.51743  -0.51347  -0.51266  -0.50446  -0.50064
 Alpha  occ. eigenvalues --   -0.49681  -0.49553  -0.49157  -0.48944  -0.48475
 Alpha  occ. eigenvalues --   -0.48442  -0.46904  -0.46751  -0.45899  -0.44953
 Alpha  occ. eigenvalues --   -0.44124  -0.43498  -0.41971  -0.41250  -0.41009
 Alpha  occ. eigenvalues --   -0.40724  -0.40555  -0.39835  -0.38704  -0.37635
 Alpha  occ. eigenvalues --   -0.37593  -0.37191  -0.36995  -0.36000  -0.34907
 Alpha  occ. eigenvalues --   -0.33603  -0.31375  -0.31089  -0.25274
 Alpha virt. eigenvalues --   -0.07331  -0.00058   0.00664   0.02401   0.02422
 Alpha virt. eigenvalues --    0.04962   0.06004   0.06227   0.06610   0.06888
 Alpha virt. eigenvalues --    0.07369   0.07404   0.07577   0.07723   0.08032

 Mulliken charges:
               1
     1  C    0.469966
     2  C    0.078145
     3  C    0.210759
     4  C    0.178437
     5  C    0.363388
     6  C   -0.720945
     7  C    0.145570
     8  C   -0.017935
     9  C    0.422683
    10  C   -0.331506
    11  C    0.261130
    12  C    0.201201
    13  C   -0.594008
    14  C   -0.727167
    15  H    0.188884
    16  H    0.189639
    17  H    0.197929
    18  N   -0.109814
    19  N   -0.097458
    20  O   -0.256394
    21  O   -0.267608
    22  O   -0.267439
    23  O   -0.088458
    24  C   -0.303032
    25  H    0.195140
    26  H    0.197057
    27  H    0.201997
    28  C   -0.285929
    29  H    0.194074
    30  H    0.194457
    31  H    0.200337
    32  C    0.179954
    33  C   -0.465671
    34  S   -0.102643
    35  C   -0.092769
    36  H    0.141124
    37  C    0.182286
    38  O   -0.120976
    39  C    0.834421
    40  C   -0.294399
    41  C    0.076143
    42  S   -0.306292
    43  H    0.181099
    44  H    0.169583
    45  H    0.154365
    46  C   -0.561684
    47  O   -0.127734
    48  C   -0.397594
    49  H    0.153885
    50  C   -0.299866
    51  H    0.183493
    52  H    0.154917
    53  H    0.177753
    54  H    0.157503
 Sum of Mulliken charges =  -0.00000

 Dipole moment (field-independent basis, Debye):
    X=              0.9077    Y=              0.2340    Z=             -0.0504  Tot=              0.9387
 Quadrupole moment (field-independent basis, Debye-Ang):
   XX=           -218.1768   YY=           -230.6990   ZZ=           -195.8054
   XY=              2.1221   XZ=             -9.8180   YZ=              6.3194

 Normal termination of Gaussian 16 at Fri Nov 27 03:42:07 2020.
