 Gaussian 16, Revision C.01,
 Gaussian 16:  ES64L-G16RevC.01  3-Jul-2019

 --------------------------------------
 # opt=modredundant wb97xd/6-311+g(d,p)
 --------------------------------------

 -----------
 NDI_-80.pdb
 -----------
 Symbolic Z-matrix:
 Charge =  0 Multiplicity = 1

 SCF Done:  E(RwB97XD) =  -2358.76540677     A.U. after   19 cycles
 SCF Done:  E(RwB97XD) =  -2358.77263396     A.U. after   16 cycles
 SCF Done:  E(RwB97XD) =  -2358.77328736     A.U. after   14 cycles
 SCF Done:  E(RwB97XD) =  -2358.77335769     A.U. after   15 cycles
 SCF Done:  E(RwB97XD) =  -2358.77345654     A.U. after   14 cycles
 SCF Done:  E(RwB97XD) =  -2358.77346951     A.U. after   13 cycles
 SCF Done:  E(RwB97XD) =  -2358.77347778     A.U. after   12 cycles
 SCF Done:  E(RwB97XD) =  -2358.77347960     A.U. after   11 cycles
 SCF Done:  E(RwB97XD) =  -2358.77348126     A.U. after   12 cycles
 SCF Done:  E(RwB97XD) =  -2358.77348275     A.U. after   12 cycles
 SCF Done:  E(RwB97XD) =  -2358.77348391     A.U. after   12 cycles
 SCF Done:  E(RwB97XD) =  -2358.77348562     A.U. after   11 cycles
 SCF Done:  E(RwB97XD) =  -2358.77348650     A.U. after   11 cycles
 SCF Done:  E(RwB97XD) =  -2358.77348697     A.U. after   11 cycles
 SCF Done:  E(RwB97XD) =  -2358.77348733     A.U. after   11 cycles
 SCF Done:  E(RwB97XD) =  -2358.77348743     A.U. after   10 cycles
 SCF Done:  E(RwB97XD) =  -2358.77348747     A.U. after    9 cycles
 SCF Done:  E(RwB97XD) =  -2358.77348749     A.U. after    8 cycles
 SCF Done:  E(RwB97XD) =  -2358.77348749     A.U. after    8 cycles
 Optimization completed.
    -- Stationary point found.

                         Standard orientation:
 ---------------------------------------------------------------------
 Center     Atomic      Atomic             Coordinates (Angstroms)
 Number     Number       Type             X           Y           Z
 ---------------------------------------------------------------------
      1          6           0        3.143969   -2.841803    0.496086
      2          6           0        2.556584   -1.487557    0.316672
      3          6           0        3.385693   -0.390064    0.011476
      4          6           0        4.779066   -0.558627   -0.127492
      5          6           0        5.394395   -1.903316    0.045659
      6          6           0        1.207270   -1.307534    0.460693
      7          6           0        2.806024    0.885234   -0.156934
      8          6           0        1.403396    1.055252   -0.017883
      9          6           0        0.606370   -0.033585    0.309673
     10          6           0        0.821711    2.410507   -0.266718
     11          6           0        3.097760    3.337895   -0.645738
     12          6           0        3.654942    1.973397   -0.459950
     13          6           0        5.012339    1.790258   -0.588899
     14          6           0        5.580746    0.517943   -0.423369
     15          1           0        6.648329    0.366825   -0.525263
     16          1           0        5.630918    2.648631   -0.820383
     17          1           0        0.583974   -2.158610    0.708457
     18          7           0        1.716617    3.456303   -0.529821
     19          7           0        4.526174   -2.956114    0.346017
     20          8           0        2.472508   -3.812325    0.760787
     21          8           0        6.585883   -2.079006   -0.067469
     22          8           0        3.803025    4.291515   -0.888804
     23          8           0       -0.362934    2.641628   -0.257784
     24          6           0        1.110634    4.770424   -0.743156
     25          1           0        0.461935    4.742292   -1.619044
     26          1           0        0.508876    5.041422    0.123915
     27          1           0        1.912279    5.487908   -0.889855
     28          6           0        5.084979   -4.295740    0.525437
     29          1           0        4.854955   -4.659134    1.527081
     30          1           0        4.644531   -4.978463   -0.201315
     31          1           0        6.159556   -4.232664    0.382866
     32          6           0       -0.853739    0.036739    0.531849
     33          6           0       -1.497796    0.450579    1.657082
     34         16           0       -1.947263   -0.548599   -0.663554
     35          6           0       -2.907577    0.316788    1.543748
     36          1           0       -0.982105    0.851958    2.517850
     37          6           0       -3.327810   -0.209024    0.343260
     38          8           0       -3.817773    0.643810    2.491856
     39          6           0       -4.688698   -0.454442   -0.087057
     40          6           0       -3.354173    1.346798    3.625182
     41          6           0       -5.102036   -1.003010   -1.281128
     42         16           0       -6.076268   -0.059341    0.888617
     43          1           0       -4.235929    1.577837    4.220420
     44          1           0       -2.669502    0.732671    4.220827
     45          1           0       -2.855656    2.278156    3.335327
     46          6           0       -6.514845   -1.103988   -1.413503
     47          8           0       -4.180615   -1.387712   -2.197419
     48          6           0       -7.158767   -0.628559   -0.311884
     49          1           0       -7.025848   -1.507189   -2.275970
     50          6           0       -4.652375   -1.931217   -3.411598
     51          1           0       -8.223594   -0.586230   -0.140348
     52          1           0       -5.269189   -1.208053   -3.956474
     53          1           0       -3.768583   -2.167147   -4.001874
     54          1           0       -5.227099   -2.847875   -3.238976
 ---------------------------------------------------------------------

 The electronic state is 1-A.
 Alpha  occ. eigenvalues --  -89.04425 -89.04037 -19.28467 -19.28443 -19.25267
 Alpha  occ. eigenvalues --  -19.25198 -19.24957 -19.24886 -14.50808 -14.50518
 Alpha  occ. eigenvalues --  -10.43069 -10.42828 -10.42775 -10.42732 -10.35224
 Alpha  occ. eigenvalues --  -10.34788 -10.34752 -10.34701 -10.34668 -10.34501
 Alpha  occ. eigenvalues --  -10.34164 -10.34146 -10.34125 -10.34104 -10.34085
 Alpha  occ. eigenvalues --  -10.33209 -10.33127 -10.33123 -10.32667 -10.32391
 Alpha  occ. eigenvalues --  -10.32167 -10.31982 -10.31794 -10.31120 -10.29349
 Alpha  occ. eigenvalues --  -10.29105  -8.08435  -8.08060  -6.03293  -6.02903
 Alpha  occ. eigenvalues --   -6.02892  -6.02507  -6.02499  -6.02149  -1.19726
 Alpha  occ. eigenvalues --   -1.19555  -1.18188  -1.18106  -1.17821  -1.17621
 Alpha  occ. eigenvalues --   -1.06989  -1.06629  -1.03555  -1.00186  -0.98601
 Alpha  occ. eigenvalues --   -0.97207  -0.95049  -0.90541  -0.88986  -0.87042
 Alpha  occ. eigenvalues --   -0.85653  -0.85462  -0.84200  -0.82744  -0.82162
 Alpha  occ. eigenvalues --   -0.81427  -0.79294  -0.78164  -0.77098  -0.75836
 Alpha  occ. eigenvalues --   -0.75359  -0.74436  -0.70157  -0.68620  -0.67743
 Alpha  occ. eigenvalues --   -0.66873  -0.65551  -0.64781  -0.64501  -0.63049
 Alpha  occ. eigenvalues --   -0.62811  -0.60944  -0.59967  -0.59384  -0.59101
 Alpha  occ. eigenvalues --   -0.57942  -0.57818  -0.57471  -0.56985  -0.56648
 Alpha  occ. eigenvalues --   -0.56394  -0.56148  -0.55637  -0.55397  -0.54221
 Alpha  occ. eigenvalues --   -0.54050  -0.53673  -0.53508  -0.53088  -0.52451
 Alpha  occ. eigenvalues --   -0.51722  -0.51324  -0.51259  -0.50436  -0.50116
 Alpha  occ. eigenvalues --   -0.49681  -0.49578  -0.49158  -0.48986  -0.48475
 Alpha  occ. eigenvalues --   -0.48413  -0.46927  -0.46843  -0.45902  -0.44993
 Alpha  occ. eigenvalues --   -0.44118  -0.43539  -0.42038  -0.41338  -0.41024
 Alpha  occ. eigenvalues --   -0.40696  -0.40547  -0.39822  -0.38697  -0.37641
 Alpha  occ. eigenvalues --   -0.37567  -0.37186  -0.37016  -0.36064  -0.34848
 Alpha  occ. eigenvalues --   -0.33555  -0.31412  -0.31138  -0.25310
 Alpha virt. eigenvalues --   -0.07320  -0.00071   0.00638   0.02273   0.02600
 Alpha virt. eigenvalues --    0.04963   0.05993   0.06163   0.06678   0.06889
 Alpha virt. eigenvalues --    0.07375   0.07429   0.07580   0.07732   0.07969

 Mulliken charges:
               1
     1  C    0.471361
     2  C    0.005424
     3  C    0.178454
     4  C    0.175388
     5  C    0.347326
     6  C   -0.673092
     7  C    0.148429
     8  C    0.059251
     9  C    0.448707
    10  C   -0.361068
    11  C    0.258045
    12  C    0.181141
    13  C   -0.559698
    14  C   -0.722557
    15  H    0.188769
    16  H    0.189270
    17  H    0.200920
    18  N   -0.104477
    19  N   -0.097619
    20  O   -0.256872
    21  O   -0.267447
    22  O   -0.268774
    23  O   -0.090521
    24  C   -0.297812
    25  H    0.199136
    26  H    0.192736
    27  H    0.201900
    28  C   -0.284894
    29  H    0.194204
    30  H    0.194064
    31  H    0.200147
    32  C    0.200735
    33  C   -0.489769
    34  S   -0.206005
    35  C   -0.098753
    36  H    0.142373
    37  C    0.290258
    38  O   -0.121572
    39  C    0.827965
    40  C   -0.297057
    41  C    0.048796
    42  S   -0.306276
    43  H    0.180948
    44  H    0.153374
    45  H    0.171235
    46  C   -0.563666
    47  O   -0.123094
    48  C   -0.386943
    49  H    0.154132
    50  C   -0.301286
    51  H    0.183770
    52  H    0.157937
    53  H    0.178180
    54  H    0.154877
 Sum of Mulliken charges =  -0.00000

 Dipole moment (field-independent basis, Debye):
    X=             -1.0350    Y=              0.2122    Z=             -0.0013  Tot=              1.0565
 Quadrupole moment (field-independent basis, Debye-Ang):
   XX=           -218.1852   YY=           -225.9241   ZZ=           -200.2560
   XY=             -0.1841   XZ=              8.9806   YZ=             12.9956

 Normal termination of Gaussian 16 at Thu Nov 26 19:31:52 2020.
