 Gaussian 16, Revision C.01,
 Gaussian 16:  ES64L-G16RevC.01  3-Jul-2019

 --------------------------------------
 # opt=modredundant wb97xd/6-311+g(d,p)
 --------------------------------------

 ------------
 NDI_-105.pdb
 ------------
 Symbolic Z-matrix:
 Charge =  0 Multiplicity = 1

 SCF Done:  E(RwB97XD) =  -2358.76387584     A.U. after   20 cycles
 SCF Done:  E(RwB97XD) =  -2358.77214722     A.U. after   17 cycles
 SCF Done:  E(RwB97XD) =  -2358.77306319     A.U. after   17 cycles
 SCF Done:  E(RwB97XD) =  -2358.77330821     A.U. after   17 cycles
 SCF Done:  E(RwB97XD) =  -2358.77350185     A.U. after   16 cycles
 SCF Done:  E(RwB97XD) =  -2358.77356964     A.U. after   15 cycles
 SCF Done:  E(RwB97XD) =  -2358.77360117     A.U. after   13 cycles
 SCF Done:  E(RwB97XD) =  -2358.77361770     A.U. after   12 cycles
 SCF Done:  E(RwB97XD) =  -2358.77362554     A.U. after   13 cycles
 SCF Done:  E(RwB97XD) =  -2358.77363150     A.U. after   14 cycles
 SCF Done:  E(RwB97XD) =  -2358.77361302     A.U. after   13 cycles
 SCF Done:  E(RwB97XD) =  -2358.77365188     A.U. after   16 cycles
 SCF Done:  E(RwB97XD) =  -2358.77361319     A.U. after   13 cycles
 SCF Done:  E(RwB97XD) =  -2358.77361343     A.U. after   11 cycles
 SCF Done:  E(RwB97XD) =  -2358.77365209     A.U. after   16 cycles
 SCF Done:  E(RwB97XD) =  -2358.77361361     A.U. after   13 cycles
 SCF Done:  E(RwB97XD) =  -2358.77361377     A.U. after   11 cycles
 SCF Done:  E(RwB97XD) =  -2358.77365211     A.U. after   16 cycles
 SCF Done:  E(RwB97XD) =  -2358.77361396     A.U. after   13 cycles
 SCF Done:  E(RwB97XD) =  -2358.77361400     A.U. after    9 cycles
 Optimization completed.
    -- Stationary point found.

                         Standard orientation:
 ---------------------------------------------------------------------
 Center     Atomic      Atomic             Coordinates (Angstroms)
 Number     Number       Type             X           Y           Z
 ---------------------------------------------------------------------
      1          6           0        3.411191   -2.775123   -0.209208
      2          6           0        2.700572   -1.482274   -0.024614
      3          6           0        3.412437   -0.267984   -0.086155
      4          6           0        4.800747   -0.259007   -0.334423
      5          6           0        5.537044   -1.538333   -0.528187
      6          6           0        1.348254   -1.473392    0.190218
      7          6           0        2.720088    0.946362    0.103903
      8          6           0        1.324422    0.938287    0.359186
      9          6           0        0.632924   -0.265304    0.376811
     10          6           0        0.649905    2.237772    0.661399
     11          6           0        2.760156    3.461988    0.194754
     12          6           0        3.446767    2.155372    0.022256
     13          6           0        4.799643    2.144600   -0.226618
     14          6           0        5.483950    0.931794   -0.403077
     15          1           0        6.549425    0.916517   -0.596772
     16          1           0        5.323005    3.090975   -0.286323
     17          1           0        0.808579   -2.412688    0.210042
     18          7           0        1.398538    3.407124    0.473639
     19          7           0        4.783710   -2.713027   -0.450913
     20          8           0        2.844569   -3.842539   -0.155549
     21          8           0        6.727548   -1.563820   -0.741019
     22          8           0        3.351165    4.514735    0.103718
     23          8           0       -0.486296    2.321557    1.059401
     24          6           0        0.687666    4.664003    0.706902
     25          1           0       -0.250609    4.653424    0.154760
     26          1           0        0.464799    4.780276    1.768710
     27          1           0        1.324407    5.476824    0.370629
     28          6           0        5.464139   -3.994795   -0.633106
     29          1           0        5.345144   -4.605386    0.262098
     30          1           0        5.025493   -4.526966   -1.477248
     31          1           0        6.515218   -3.793601   -0.816880
     32          6           0       -0.828066   -0.388840    0.564238
     33          6           0       -1.480727   -0.801472    1.685503
     34         16           0       -1.910083   -0.076202   -0.739099
     35          6           0       -2.889305   -0.837265    1.498704
     36          1           0       -0.972904   -1.037196    2.609994
     37          6           0       -3.297762   -0.474652    0.235412
     38          8           0       -3.808305   -1.194723    2.426770
     39          6           0       -4.652101   -0.425355   -0.275439
     40          6           0       -3.344699   -1.483442    3.728559
     41          6           0       -5.054234   -0.073802   -1.545196
     42         16           0       -6.045149   -0.815915    0.694069
     43          1           0       -4.228616   -1.714121    4.320622
     44          1           0       -2.674703   -2.350485    3.728202
     45          1           0       -2.830017   -0.620750    4.165573
     46          6           0       -6.462908   -0.115592   -1.738681
     47          8           0       -4.126480    0.267471   -2.472494
     48          6           0       -7.115140   -0.500780   -0.607031
     49          1           0       -6.965625    0.125956   -2.664129
     50          6           0       -4.588177    0.643400   -3.752106
     51          1           0       -8.179312   -0.617632   -0.469395
     52          1           0       -5.236427    1.524908   -3.696671
     53          1           0       -3.701432    0.885117   -4.335637
     54          1           0       -5.126767   -0.178438   -4.236790
 ---------------------------------------------------------------------

 The electronic state is 1-A.
 Alpha  occ. eigenvalues --  -89.04359 -89.04055 -19.28501 -19.28479 -19.25266
 Alpha  occ. eigenvalues --  -19.25210 -19.24908 -19.24885 -14.50811 -14.50451
 Alpha  occ. eigenvalues --  -10.43067 -10.42839 -10.42717 -10.42677 -10.35175
 Alpha  occ. eigenvalues --  -10.34824 -10.34706 -10.34685 -10.34658 -10.34486
 Alpha  occ. eigenvalues --  -10.34197 -10.34149 -10.34142 -10.34087 -10.34078
 Alpha  occ. eigenvalues --  -10.33208 -10.33133 -10.33114 -10.32698 -10.32398
 Alpha  occ. eigenvalues --  -10.32114 -10.31989 -10.31811 -10.31135 -10.29416
 Alpha  occ. eigenvalues --  -10.29126  -8.08373  -8.08078  -6.03231  -6.02920
 Alpha  occ. eigenvalues --   -6.02832  -6.02525  -6.02432  -6.02167  -1.19724
 Alpha  occ. eigenvalues --   -1.19510  -1.18223  -1.18140  -1.17821  -1.17577
 Alpha  occ. eigenvalues --   -1.06984  -1.06600  -1.03545  -1.00181  -0.98611
 Alpha  occ. eigenvalues --   -0.97204  -0.95035  -0.90543  -0.88971  -0.87051
 Alpha  occ. eigenvalues --   -0.85674  -0.85441  -0.84213  -0.82709  -0.82263
 Alpha  occ. eigenvalues --   -0.81303  -0.79368  -0.78164  -0.77070  -0.75817
 Alpha  occ. eigenvalues --   -0.75316  -0.74457  -0.70119  -0.68650  -0.67745
 Alpha  occ. eigenvalues --   -0.66867  -0.65658  -0.64568  -0.64520  -0.63093
 Alpha  occ. eigenvalues --   -0.62896  -0.60928  -0.59948  -0.59347  -0.59089
 Alpha  occ. eigenvalues --   -0.57900  -0.57855  -0.57455  -0.57004  -0.56668
 Alpha  occ. eigenvalues --   -0.56363  -0.56196  -0.55644  -0.55404  -0.54209
 Alpha  occ. eigenvalues --   -0.54001  -0.53771  -0.53439  -0.53109  -0.52482
 Alpha  occ. eigenvalues --   -0.51728  -0.51316  -0.51181  -0.50418  -0.50082
 Alpha  occ. eigenvalues --   -0.49701  -0.49607  -0.49232  -0.48920  -0.48473
 Alpha  occ. eigenvalues --   -0.48383  -0.47021  -0.46675  -0.45863  -0.45039
 Alpha  occ. eigenvalues --   -0.44171  -0.43569  -0.42002  -0.41268  -0.41047
 Alpha  occ. eigenvalues --   -0.40843  -0.40516  -0.39819  -0.38693  -0.37627
 Alpha  occ. eigenvalues --   -0.37549  -0.37092  -0.36944  -0.35980  -0.35010
 Alpha  occ. eigenvalues --   -0.33527  -0.31448  -0.31130  -0.25318
 Alpha virt. eigenvalues --   -0.07292  -0.00043   0.00603   0.02253   0.02685
 Alpha virt. eigenvalues --    0.05019   0.05955   0.06246   0.06583   0.06895
 Alpha virt. eigenvalues --    0.07268   0.07425   0.07566   0.07720   0.07999

 Mulliken charges:
               1
     1  C    0.478364
     2  C    0.057991
     3  C    0.174627
     4  C    0.170620
     5  C    0.378479
     6  C   -0.660047
     7  C    0.127533
     8  C   -0.066251
     9  C    0.260666
    10  C   -0.313779
    11  C    0.301808
    12  C    0.161562
    13  C   -0.547886
    14  C   -0.712522
    15  H    0.188882
    16  H    0.189604
    17  H    0.195704
    18  N   -0.056544
    19  N   -0.095341
    20  O   -0.257854
    21  O   -0.268851
    22  O   -0.271636
    23  O   -0.121183
    24  C   -0.284532
    25  H    0.195534
    26  H    0.199475
    27  H    0.199725
    28  C   -0.285370
    29  H    0.193873
    30  H    0.194459
    31  H    0.200688
    32  C    0.307083
    33  C   -0.384855
    34  S   -0.257762
    35  C   -0.111283
    36  H    0.144097
    37  C    0.222473
    38  O   -0.113489
    39  C    0.849440
    40  C   -0.290903
    41  C    0.060279
    42  S   -0.303525
    43  H    0.181507
    44  H    0.157406
    45  H    0.167156
    46  C   -0.568494
    47  O   -0.125596
    48  C   -0.388682
    49  H    0.154018
    50  C   -0.300453
    51  H    0.183735
    52  H    0.157414
    53  H    0.177536
    54  H    0.155100
 Sum of Mulliken charges =  -0.00000

 Dipole moment (field-independent basis, Debye):
    X=             -1.1173    Y=              0.1592    Z=             -0.1262  Tot=              1.1356
 Quadrupole moment (field-independent basis, Debye-Ang):
   XX=           -217.1204   YY=           -230.2753   ZZ=           -197.2089
   XY=             -5.3695   XZ=             10.0039   YZ=             -7.0844

 Normal termination of Gaussian 16 at Thu Nov 26 18:58:18 2020.
