 Gaussian 16, Revision C.01,
 Gaussian 16:  ES64L-G16RevC.01  3-Jul-2019

 --------------------------------------
 # opt=modredundant wb97xd/6-311+g(d,p)
 --------------------------------------

 ---------
 NDI_5.pdb
 ---------
 Symbolic Z-matrix:
 Charge =  0 Multiplicity = 1

 SCF Done:  E(RwB97XD) =  -2358.75013094     A.U. after   19 cycles
 SCF Done:  E(RwB97XD) =  -2358.74668779     A.U. after   20 cycles
 SCF Done:  E(RwB97XD) =  -2358.76496241     A.U. after   17 cycles
 SCF Done:  E(RwB97XD) =  -2358.76735307     A.U. after   17 cycles
 SCF Done:  E(RwB97XD) =  -2358.76742933     A.U. after   14 cycles
 SCF Done:  E(RwB97XD) =  -2358.76831371     A.U. after   15 cycles
 SCF Done:  E(RwB97XD) =  -2358.76859509     A.U. after   16 cycles
 SCF Done:  E(RwB97XD) =  -2358.76872448     A.U. after   16 cycles
 SCF Done:  E(RwB97XD) =  -2358.76884207     A.U. after   14 cycles
 SCF Done:  E(RwB97XD) =  -2358.76893139     A.U. after   14 cycles
 SCF Done:  E(RwB97XD) =  -2358.76901030     A.U. after   13 cycles
 SCF Done:  E(RwB97XD) =  -2358.76902167     A.U. after   12 cycles
 SCF Done:  E(RwB97XD) =  -2358.76902865     A.U. after   12 cycles
 SCF Done:  E(RwB97XD) =  -2358.76903509     A.U. after   13 cycles
 SCF Done:  E(RwB97XD) =  -2358.76903732     A.U. after   13 cycles
 SCF Done:  E(RwB97XD) =  -2358.76903868     A.U. after   12 cycles
 SCF Done:  E(RwB97XD) =  -2358.76904046     A.U. after   13 cycles
 SCF Done:  E(RwB97XD) =  -2358.76904109     A.U. after   11 cycles
 SCF Done:  E(RwB97XD) =  -2358.76904120     A.U. after   10 cycles
 SCF Done:  E(RwB97XD) =  -2358.76904122     A.U. after    8 cycles
 Optimization completed.
    -- Stationary point found.

                         Standard orientation:
 ---------------------------------------------------------------------
 Center     Atomic      Atomic             Coordinates (Angstroms)
 Number     Number       Type             X           Y           Z
 ---------------------------------------------------------------------
      1          6           0       -2.401903   -3.008381    0.332093
      2          6           0       -2.162182   -1.543365    0.249390
      3          6           0       -3.232143   -0.657675    0.013931
      4          6           0       -4.533114   -1.147491   -0.194223
      5          6           0       -4.802681   -2.610321   -0.136254
      6          6           0       -0.896215   -1.066204    0.377610
      7          6           0       -2.961585    0.725427   -0.005727
      8          6           0       -1.639609    1.222100    0.221333
      9          6           0       -0.557366    0.323666    0.314016
     10          6           0       -1.533084    2.690642    0.424328
     11          6           0       -3.843763    3.051546   -0.383392
     12          6           0       -4.045305    1.588824   -0.290365
     13          6           0       -5.313116    1.093990   -0.514446
     14          6           0       -5.569246   -0.279232   -0.455182
     15          1           0       -6.564319   -0.673517   -0.618080
     16          1           0       -6.104235    1.798115   -0.741292
     17          1           0       -0.124001   -1.807137    0.540146
     18          7           0       -2.574920    3.500645   -0.040356
     19          7           0       -3.710850   -3.442245    0.132701
     20          8           0       -1.517188   -3.803710    0.555523
     21          8           0       -5.911240   -3.062902   -0.308078
     22          8           0       -4.724867    3.815784   -0.711033
     23          8           0       -0.607232    3.230712    0.992505
     24          6           0       -2.358460    4.944058    0.044398
     25          1           0       -2.377309    5.272369    1.084972
     26          1           0       -1.386043    5.187666   -0.379997
     27          1           0       -3.153496    5.432091   -0.511786
     28          6           0       -3.931140   -4.885658    0.209498
     29          1           0       -3.323071   -5.391107   -0.540983
     30          1           0       -3.640608   -5.250281    1.194913
     31          1           0       -4.985539   -5.074439    0.031847
     32          6           0        0.885829    0.601577    0.284584
     33          6           0        1.617277    1.769111    0.251782
     34         16           0        1.968711   -0.764732    0.104997
     35          6           0        3.000403    1.563737    0.099421
     36          1           0        1.173462    2.739030    0.374370
     37          6           0        3.371672    0.235923    0.005981
     38          8           0        3.948025    2.527444    0.053293
     39          6           0        4.705279   -0.297284   -0.137126
     40          6           0        3.521426    3.869600    0.184876
     41          6           0        5.068322   -1.627217   -0.212299
     42         16           0        6.125171    0.708008   -0.238294
     43          1           0        4.423171    4.477509    0.140462
     44          1           0        2.850862    4.151974   -0.633720
     45          1           0        3.016607    4.032018    1.142726
     46          6           0        6.467881   -1.835245   -0.348018
     47          8           0        4.116912   -2.583266   -0.156686
     48          6           0        7.149992   -0.656153   -0.375306
     49          1           0        6.943200   -2.802626   -0.421655
     50          6           0        4.532611   -3.933708   -0.204786
     51          1           0        8.216641   -0.519095   -0.469831
     52          1           0        5.192916   -4.172814    0.635526
     53          1           0        3.625531   -4.530754   -0.133014
     54          1           0        5.040582   -4.156328   -1.149154
 ---------------------------------------------------------------------

 The electronic state is 1-A.
 Alpha  occ. eigenvalues --  -89.05091 -89.05035 -19.29434 -19.29035 -19.24890
 Alpha  occ. eigenvalues --  -19.24888 -19.24879 -19.24369 -14.50458 -14.50167
 Alpha  occ. eigenvalues --  -10.42720 -10.42662 -10.42478 -10.42062 -10.35959
 Alpha  occ. eigenvalues --  -10.35931 -10.35453 -10.34745 -10.34336 -10.34256
 Alpha  occ. eigenvalues --  -10.34107 -10.33606 -10.33599 -10.33598 -10.33523
 Alpha  occ. eigenvalues --  -10.33431 -10.33288 -10.32753 -10.32698 -10.32393
 Alpha  occ. eigenvalues --  -10.32300 -10.32247 -10.32168 -10.32141 -10.30024
 Alpha  occ. eigenvalues --  -10.29635  -8.09140  -8.09054  -6.03991  -6.03897
 Alpha  occ. eigenvalues --   -6.03585  -6.03500  -6.03209  -6.03143  -1.19387
 Alpha  occ. eigenvalues --   -1.19358  -1.19179  -1.18756  -1.17454  -1.17249
 Alpha  occ. eigenvalues --   -1.06628  -1.06355  -1.02946  -1.00864  -0.99222
 Alpha  occ. eigenvalues --   -0.97007  -0.94491  -0.90570  -0.88504  -0.87652
 Alpha  occ. eigenvalues --   -0.86213  -0.85211  -0.85002  -0.82978  -0.82270
 Alpha  occ. eigenvalues --   -0.81557  -0.79768  -0.78381  -0.76885  -0.75409
 Alpha  occ. eigenvalues --   -0.75193  -0.74140  -0.70350  -0.69079  -0.68063
 Alpha  occ. eigenvalues --   -0.66533  -0.65871  -0.65480  -0.64606  -0.63892
 Alpha  occ. eigenvalues --   -0.62311  -0.60603  -0.59781  -0.59313  -0.58851
 Alpha  occ. eigenvalues --   -0.58461  -0.57654  -0.57630  -0.57288  -0.57110
 Alpha  occ. eigenvalues --   -0.56766  -0.56018  -0.55361  -0.55032  -0.54602
 Alpha  occ. eigenvalues --   -0.53827  -0.53770  -0.53476  -0.53082  -0.51976
 Alpha  occ. eigenvalues --   -0.51413  -0.51167  -0.50946  -0.50645  -0.50461
 Alpha  occ. eigenvalues --   -0.50169  -0.49593  -0.49516  -0.48938  -0.48311
 Alpha  occ. eigenvalues --   -0.47952  -0.47878  -0.46752  -0.46056  -0.45141
 Alpha  occ. eigenvalues --   -0.44963  -0.44112  -0.42591  -0.41807  -0.41750
 Alpha  occ. eigenvalues --   -0.40886  -0.40059  -0.39585  -0.38474  -0.37984
 Alpha  occ. eigenvalues --   -0.37201  -0.37123  -0.36657  -0.36458  -0.34593
 Alpha  occ. eigenvalues --   -0.33187  -0.32069  -0.31813  -0.25796
 Alpha virt. eigenvalues --   -0.07056  -0.01460   0.00556   0.02578   0.03693
 Alpha virt. eigenvalues --    0.05289   0.05719   0.06068   0.06766   0.06970
 Alpha virt. eigenvalues --    0.07113   0.07269   0.07852   0.08107   0.08261

 Mulliken charges:
               1
     1  C    0.459150
     2  C   -0.043638
     3  C   -0.013392
     4  C    0.308713
     5  C    0.413434
     6  C   -0.166960
     7  C   -0.001379
     8  C    0.395955
     9  C    0.143449
    10  C   -0.456959
    11  C    0.323241
    12  C    0.183724
    13  C   -0.552285
    14  C   -0.760118
    15  H    0.187037
    16  H    0.188277
    17  H    0.193820
    18  N    0.025020
    19  N   -0.089624
    20  O   -0.267320
    21  O   -0.267678
    22  O   -0.281850
    23  O   -0.257863
    24  C   -0.250161
    25  H    0.200824
    26  H    0.183562
    27  H    0.200301
    28  C   -0.281435
    29  H    0.192732
    30  H    0.192847
    31  H    0.200131
    32  C   -0.061283
    33  C   -0.080881
    34  S   -0.818351
    35  C   -0.326138
    36  H    0.193295
    37  C    0.615514
    38  O   -0.120008
    39  C    0.857568
    40  C   -0.305814
    41  C    0.034377
    42  S   -0.250017
    43  H    0.183043
    44  H    0.159831
    45  H    0.172433
    46  C   -0.613113
    47  O   -0.105312
    48  C   -0.377099
    49  H    0.157814
    50  C   -0.311406
    51  H    0.188782
    52  H    0.159723
    53  H    0.188055
    54  H    0.157432
 Sum of Mulliken charges =  -0.00000

 Dipole moment (field-independent basis, Debye):
    X=              3.7649    Y=             -0.5309    Z=             -0.4761  Tot=              3.8318
 Quadrupole moment (field-independent basis, Debye-Ang):
   XX=           -213.5971   YY=           -202.3638   ZZ=           -224.7659
   XY=             -5.1608   XZ=             -5.6250   YZ=              1.5570

 Normal termination of Gaussian 16 at Fri Nov 27 01:34:45 2020.
