 Gaussian 16, Revision C.01,
 Gaussian 16:  ES64L-G16RevC.01  3-Jul-2019

 --------------------------------------
 # opt=modredundant wb97xd/6-311+g(d,p)
 --------------------------------------

 -----------
 NDI_-35.pdb
 -----------
 Symbolic Z-matrix:
 Charge =  0 Multiplicity = 1

 SCF Done:  E(RwB97XD) =  -2358.76960794     A.U. after   20 cycles
 SCF Done:  E(RwB97XD) =  -2358.77306414     A.U. after   16 cycles
 SCF Done:  E(RwB97XD) =  -2358.77294432     A.U. after   16 cycles
 SCF Done:  E(RwB97XD) =  -2358.77357450     A.U. after   15 cycles
 SCF Done:  E(RwB97XD) =  -2358.77366069     A.U. after   15 cycles
 SCF Done:  E(RwB97XD) =  -2358.77370588     A.U. after   15 cycles
 SCF Done:  E(RwB97XD) =  -2358.77375390     A.U. after   14 cycles
 SCF Done:  E(RwB97XD) =  -2358.77377683     A.U. after   15 cycles
 SCF Done:  E(RwB97XD) =  -2358.77378777     A.U. after   13 cycles
 SCF Done:  E(RwB97XD) =  -2358.77379426     A.U. after   13 cycles
 SCF Done:  E(RwB97XD) =  -2358.77382956     A.U. after   13 cycles
 SCF Done:  E(RwB97XD) =  -2358.77383043     A.U. after   13 cycles
 SCF Done:  E(RwB97XD) =  -2358.77383075     A.U. after   12 cycles
 SCF Done:  E(RwB97XD) =  -2358.77383107     A.U. after   12 cycles
 SCF Done:  E(RwB97XD) =  -2358.77383119     A.U. after   10 cycles
 SCF Done:  E(RwB97XD) =  -2358.77383127     A.U. after   10 cycles
 SCF Done:  E(RwB97XD) =  -2358.77383132     A.U. after    9 cycles
 SCF Done:  E(RwB97XD) =  -2358.77383138     A.U. after   11 cycles
 SCF Done:  E(RwB97XD) =  -2358.77383142     A.U. after   11 cycles
 SCF Done:  E(RwB97XD) =  -2358.77383144     A.U. after   11 cycles
 Optimization completed.
    -- Stationary point found.

                         Standard orientation:
 ---------------------------------------------------------------------
 Center     Atomic      Atomic             Coordinates (Angstroms)
 Number     Number       Type             X           Y           Z
 ---------------------------------------------------------------------
      1          6           0        2.722636   -2.978383    0.374404
      2          6           0        2.330399   -1.555805    0.190280
      3          6           0        3.317232   -0.557439    0.058650
      4          6           0        4.684311   -0.889759    0.113591
      5          6           0        5.106951   -2.304785    0.301777
      6          6           0        1.009376   -1.216557    0.191889
      7          6           0        2.911010    0.780312   -0.131883
      8          6           0        1.528659    1.116448   -0.189870
      9          6           0        0.565093    0.126196    0.027488
     10          6           0        1.183063    2.504275   -0.619917
     11          6           0        3.563513    3.190400   -0.440806
     12          6           0        3.919237    1.764255   -0.247495
     13          6           0        5.252322    1.423963   -0.178734
     14          6           0        5.642832    0.090480   -0.002148
     15          1           0        6.688902   -0.184976    0.046449
     16          1           0        5.990204    2.212192   -0.264227
     17          1           0        0.282189   -2.003078    0.355802
     18          7           0        2.209362    3.459475   -0.604805
     19          7           0        4.088263   -3.255553    0.414795
     20          8           0        1.911140   -3.869043    0.485248
     21          8           0        6.273337   -2.621518    0.352999
     22          8           0        4.397840    4.067916   -0.476248
     23          8           0        0.084787    2.844362   -0.994973
     24          6           0        1.814204    4.827768   -0.935596
     25          1           0        1.515119    4.891892   -1.982820
     26          1           0        0.967756    5.120637   -0.316053
     27          1           0        2.666545    5.474828   -0.750738
     28          6           0        4.456404   -4.659084    0.596139
     29          1           0        4.044813   -5.029401    1.535222
     30          1           0        4.048521   -5.254758   -0.220626
     31          1           0        5.540298   -4.722905    0.606832
     32          6           0       -0.871245    0.351800    0.199861
     33          6           0       -1.513638    1.394160    0.810258
     34         16           0       -2.005302   -0.830720   -0.369144
     35          6           0       -2.915361    1.240520    0.819725
     36          1           0       -0.995846    2.238251    1.238228
     37          6           0       -3.359735    0.082520    0.209173
     38          8           0       -3.810234    2.100196    1.358472
     39          6           0       -4.727505   -0.349599    0.032824
     40          6           0       -3.327420    3.362129    1.774337
     41          6           0       -5.162778   -1.520371   -0.552472
     42         16           0       -6.097465    0.594339    0.549943
     43          1           0       -4.201486    3.936121    2.076735
     44          1           0       -2.648529    3.263600    2.628673
     45          1           0       -2.815458    3.876347    0.953999
     46          6           0       -6.577591   -1.657783   -0.585834
     47          8           0       -4.259045   -2.405655   -1.029516
     48          6           0       -7.199598   -0.584558   -0.023071
     49          1           0       -7.105333   -2.503556   -1.002301
     50          6           0       -4.748035   -3.600979   -1.602814
     51          1           0       -8.261630   -0.426224    0.087891
     52          1           0       -5.370831   -3.392477   -2.479367
     53          1           0       -3.872019   -4.169413   -1.909610
     54          1           0       -5.320957   -4.183243   -0.873184
 ---------------------------------------------------------------------

 The electronic state is 1-A.
 Alpha  occ. eigenvalues --  -89.05032 -89.04702 -19.29140 -19.28925 -19.24990
 Alpha  occ. eigenvalues --  -19.24952 -19.24558 -19.24536 -14.50547 -14.50197
 Alpha  occ. eigenvalues --  -10.42772 -10.42566 -10.42550 -10.42286 -10.35499
 Alpha  occ. eigenvalues --  -10.35395 -10.35347 -10.34579 -10.34391 -10.34348
 Alpha  occ. eigenvalues --  -10.34098 -10.33911 -10.33732 -10.33695 -10.33534
 Alpha  occ. eigenvalues --  -10.33139 -10.32975 -10.32796 -10.32659 -10.32586
 Alpha  occ. eigenvalues --  -10.32446 -10.32194 -10.32117 -10.31861 -10.29964
 Alpha  occ. eigenvalues --  -10.29722  -8.09059  -8.08724  -6.03907  -6.03567
 Alpha  occ. eigenvalues --   -6.03511  -6.03170  -6.03134  -6.02812  -1.19458
 Alpha  occ. eigenvalues --   -1.19234  -1.18856  -1.18656  -1.17549  -1.17246
 Alpha  occ. eigenvalues --   -1.06709  -1.06312  -1.03122  -1.00710  -0.99038
 Alpha  occ. eigenvalues --   -0.97107  -0.94642  -0.90547  -0.88625  -0.87454
 Alpha  occ. eigenvalues --   -0.86070  -0.85242  -0.84856  -0.82832  -0.82273
 Alpha  occ. eigenvalues --   -0.81517  -0.79635  -0.78361  -0.76872  -0.75499
 Alpha  occ. eigenvalues --   -0.75184  -0.74227  -0.70281  -0.68933  -0.67928
 Alpha  occ. eigenvalues --   -0.66595  -0.65783  -0.65190  -0.64579  -0.63679
 Alpha  occ. eigenvalues --   -0.62468  -0.60690  -0.59735  -0.59220  -0.58798
 Alpha  occ. eigenvalues --   -0.58289  -0.57689  -0.57443  -0.57309  -0.57056
 Alpha  occ. eigenvalues --   -0.56621  -0.55831  -0.55455  -0.55177  -0.54419
 Alpha  occ. eigenvalues --   -0.53958  -0.53555  -0.53406  -0.53196  -0.52156
 Alpha  occ. eigenvalues --   -0.51619  -0.51118  -0.50970  -0.50598  -0.50332
 Alpha  occ. eigenvalues --   -0.50120  -0.49521  -0.49456  -0.48888  -0.48403
 Alpha  occ. eigenvalues --   -0.48053  -0.47688  -0.46964  -0.45787  -0.45565
 Alpha  occ. eigenvalues --   -0.44375  -0.44114  -0.42476  -0.41884  -0.41355
 Alpha  occ. eigenvalues --   -0.41176  -0.40168  -0.39630  -0.38571  -0.37708
 Alpha  occ. eigenvalues --   -0.37314  -0.37044  -0.36882  -0.36311  -0.34606
 Alpha  occ. eigenvalues --   -0.33139  -0.31793  -0.31612  -0.25638
 Alpha virt. eigenvalues --   -0.07197  -0.00764   0.00499   0.02402   0.03451
 Alpha virt. eigenvalues --    0.05142   0.05734   0.06026   0.06759   0.06996
 Alpha virt. eigenvalues --    0.07236   0.07463   0.07746   0.07861   0.07991

 Mulliken charges:
               1
     1  C    0.412359
     2  C   -0.141440
     3  C    0.114060
     4  C    0.188713
     5  C    0.358286
     6  C   -0.401264
     7  C    0.135276
     8  C    0.434527
     9  C    0.361839
    10  C   -0.583095
    11  C    0.299155
    12  C    0.091696
    13  C   -0.530069
    14  C   -0.674947
    15  H    0.187325
    16  H    0.188041
    17  H    0.202429
    18  N    0.008488
    19  N   -0.090818
    20  O   -0.266738
    21  O   -0.266344
    22  O   -0.276101
    23  O   -0.192745
    24  C   -0.258688
    25  H    0.200529
    26  H    0.183292
    27  H    0.200689
    28  C   -0.283868
    29  H    0.193676
    30  H    0.192971
    31  H    0.199979
    32  C    0.161847
    33  C   -0.500405
    34  S   -0.672789
    35  C   -0.147215
    36  H    0.153748
    37  C    0.670226
    38  O   -0.108306
    39  C    0.886835
    40  C   -0.314107
    41  C    0.008807
    42  S   -0.283370
    43  H    0.182071
    44  H    0.156075
    45  H    0.177744
    46  C   -0.642181
    47  O   -0.110763
    48  C   -0.341411
    49  H    0.156823
    50  C   -0.307260
    51  H    0.187048
    52  H    0.157671
    53  H    0.182945
    54  H    0.158756
 Sum of Mulliken charges =  -0.00000

 Dipole moment (field-independent basis, Debye):
    X=             -2.8898    Y=             -0.2679    Z=              0.2471  Tot=              2.9127
 Quadrupole moment (field-independent basis, Debye-Ang):
   XX=           -214.8877   YY=           -208.5462   ZZ=           -218.1780
   XY=              4.0478   XZ=              2.8762   YZ=             12.5778

 Normal termination of Gaussian 16 at Thu Nov 26 23:24:40 2020.
