 Gaussian 16, Revision C.01,
 Gaussian 16:  ES64L-G16RevC.01  3-Jul-2019

 --------------------------------------
 # opt=modredundant wb97xd/6-311+g(d,p)
 --------------------------------------

 -----------
 NDI_145.pdb
 -----------
 Symbolic Z-matrix:
 Charge =  0 Multiplicity = 1

 SCF Done:  E(RwB97XD) =  -2358.75064684     A.U. after   20 cycles
 SCF Done:  E(RwB97XD) =  -2358.75697646     A.U. after   22 cycles
 SCF Done:  E(RwB97XD) =  -2358.76426898     A.U. after   18 cycles
 SCF Done:  E(RwB97XD) =  -2358.76800714     A.U. after   18 cycles
 SCF Done:  E(RwB97XD) =  -2358.77073553     A.U. after   17 cycles
 SCF Done:  E(RwB97XD) =  -2358.77143494     A.U. after   17 cycles
 SCF Done:  E(RwB97XD) =  -2358.77185282     A.U. after   16 cycles
 SCF Done:  E(RwB97XD) =  -2358.77215385     A.U. after   16 cycles
 SCF Done:  E(RwB97XD) =  -2358.77252094     A.U. after   16 cycles
 SCF Done:  E(RwB97XD) =  -2358.77274002     A.U. after   15 cycles
 SCF Done:  E(RwB97XD) =  -2358.77307996     A.U. after   13 cycles
 SCF Done:  E(RwB97XD) =  -2358.77308160     A.U. after   12 cycles
 SCF Done:  E(RwB97XD) =  -2358.77308194     A.U. after   10 cycles
 SCF Done:  E(RwB97XD) =  -2358.77308210     A.U. after    9 cycles
 SCF Done:  E(RwB97XD) =  -2358.77308231     A.U. after   10 cycles
 SCF Done:  E(RwB97XD) =  -2358.77308238     A.U. after    8 cycles
 SCF Done:  E(RwB97XD) =  -2358.77308246     A.U. after    9 cycles
 SCF Done:  E(RwB97XD) =  -2358.77308250     A.U. after    9 cycles
 SCF Done:  E(RwB97XD) =  -2358.77308251     A.U. after    9 cycles
 SCF Done:  E(RwB97XD) =  -2358.77308251     A.U. after    9 cycles
 Optimization completed.
    -- Stationary point found.

                         Standard orientation:
 ---------------------------------------------------------------------
 Center     Atomic      Atomic             Coordinates (Angstroms)
 Number     Number       Type             X           Y           Z
 ---------------------------------------------------------------------
      1          6           0        3.529400   -2.672940    0.393533
      2          6           0        2.762455   -1.437309    0.086763
      3          6           0        3.406186   -0.182775    0.102256
      4          6           0        4.772634   -0.076599    0.426246
      5          6           0        5.563248   -1.296507    0.745394
      6          6           0        1.421488   -1.517203   -0.164018
      7          6           0        2.658894    0.970464   -0.212668
      8          6           0        1.282334    0.864379   -0.542193
      9          6           0        0.639743   -0.368809   -0.462423
     10          6           0        0.618785    2.073147   -1.111804
     11          6           0        2.562918    3.470628   -0.474731
     12          6           0        3.310660    2.223388   -0.171316
     13          6           0        4.643864    2.310172    0.160900
     14          6           0        5.383783    1.155792    0.456171
     15          1           0        6.434269    1.216963    0.712110
     16          1           0        5.106702    3.288983    0.191516
     17          1           0        0.938999   -2.484817   -0.099114
     18          7           0        1.247888    3.306817   -0.896102
     19          7           0        4.880260   -2.516635    0.701606
     20          8           0        3.025052   -3.773215    0.380757
     21          8           0        6.738364   -1.241800    1.026878
     22          8           0        3.069792    4.566819   -0.383515
     23          8           0       -0.400253    2.029833   -1.758241
     24          6           0        0.517304    4.492812   -1.340188
     25          1           0        0.569632    4.590248   -2.426316
     26          1           0       -0.526562    4.394879   -1.049249
     27          1           0        0.971279    5.362230   -0.873179
     28          6           0        5.618248   -3.742797    1.002512
     29          1           0        5.165521   -4.244263    1.858023
     30          1           0        5.579799   -4.415290    0.145407
     31          1           0        6.645674   -3.470152    1.223875
     32          6           0       -0.809174   -0.584241   -0.552691
     33          6           0       -1.426680   -1.663774   -1.129112
     34         16           0       -1.931749    0.379656    0.334774
     35          6           0       -2.821552   -1.678883   -0.897062
     36          1           0       -0.897138   -2.397444   -1.721151
     37          6           0       -3.266334   -0.640536   -0.103242
     38          8           0       -3.704207   -2.591700   -1.365648
     39          6           0       -4.621405   -0.384757    0.332519
     40          6           0       -3.196112   -3.644178   -2.158490
     41          6           0       -5.058183    0.644496    1.139461
     42         16           0       -5.971493   -1.387048   -0.123282
     43          1           0       -4.052075   -4.259436   -2.429629
     44          1           0       -2.722797   -3.260438   -3.068932
     45          1           0       -2.477133   -4.251453   -1.597461
     46          6           0       -6.458660    0.631088    1.386032
     47          8           0       -4.168378    1.544888    1.617659
     48          6           0       -7.068773   -0.414443    0.761812
     49          1           0       -6.985219    1.354130    1.992074
     50          6           0       -4.669015    2.613004    2.394296
     51          1           0       -8.118327   -0.666238    0.777831
     52          1           0       -5.147199    2.246894    3.309321
     53          1           0       -3.808186    3.224530    2.658821
     54          1           0       -5.381712    3.217359    1.822787
 ---------------------------------------------------------------------

 The electronic state is 1-A.
 Alpha  occ. eigenvalues --  -89.04747 -89.04579 -19.29047 -19.28934 -19.25073
 Alpha  occ. eigenvalues --  -19.25059 -19.24575 -19.24559 -14.50633 -14.50098
 Alpha  occ. eigenvalues --  -10.42858 -10.42677 -10.42401 -10.42298 -10.35339
 Alpha  occ. eigenvalues --  -10.35338 -10.35169 -10.34600 -10.34482 -10.34324
 Alpha  occ. eigenvalues --  -10.34061 -10.34032 -10.33817 -10.33794 -10.33665
 Alpha  occ. eigenvalues --  -10.33099 -10.32980 -10.32872 -10.32797 -10.32739
 Alpha  occ. eigenvalues --  -10.32329 -10.32263 -10.31983 -10.31716 -10.30101
 Alpha  occ. eigenvalues --  -10.29615  -8.08773  -8.08601  -6.03627  -6.03444
 Alpha  occ. eigenvalues --   -6.03227  -6.03048  -6.02835  -6.02690  -1.19535
 Alpha  occ. eigenvalues --   -1.19180  -1.18762  -1.18646  -1.17634  -1.17224
 Alpha  occ. eigenvalues --   -1.06780  -1.06317  -1.03235  -1.00616  -0.98967
 Alpha  occ. eigenvalues --   -0.97164  -0.94726  -0.90596  -0.88691  -0.87356
 Alpha  occ. eigenvalues --   -0.86064  -0.85252  -0.84753  -0.82809  -0.82426
 Alpha  occ. eigenvalues --   -0.81153  -0.79797  -0.78367  -0.76850  -0.75551
 Alpha  occ. eigenvalues --   -0.75118  -0.74382  -0.70135  -0.68966  -0.67936
 Alpha  occ. eigenvalues --   -0.66673  -0.65864  -0.65054  -0.64199  -0.63620
 Alpha  occ. eigenvalues --   -0.62886  -0.60700  -0.59729  -0.59111  -0.58917
 Alpha  occ. eigenvalues --   -0.58242  -0.57698  -0.57427  -0.57313  -0.57067
 Alpha  occ. eigenvalues --   -0.56584  -0.55958  -0.55435  -0.55327  -0.54249
 Alpha  occ. eigenvalues --   -0.53883  -0.53820  -0.53472  -0.53137  -0.52472
 Alpha  occ. eigenvalues --   -0.51594  -0.51174  -0.50832  -0.50426  -0.50260
 Alpha  occ. eigenvalues --   -0.50127  -0.49641  -0.49443  -0.48938  -0.48421
 Alpha  occ. eigenvalues --   -0.48115  -0.47565  -0.46650  -0.45853  -0.45456
 Alpha  occ. eigenvalues --   -0.44488  -0.44073  -0.42347  -0.41719  -0.41365
 Alpha  occ. eigenvalues --   -0.41261  -0.40159  -0.39641  -0.38517  -0.37623
 Alpha  occ. eigenvalues --   -0.37356  -0.37053  -0.36683  -0.36329  -0.34820
 Alpha  occ. eigenvalues --   -0.33157  -0.31837  -0.31446  -0.25605
 Alpha virt. eigenvalues --   -0.07141  -0.00547   0.00505   0.02326   0.03363
 Alpha virt. eigenvalues --    0.05147   0.05769   0.06021   0.06657   0.06789
 Alpha virt. eigenvalues --    0.07100   0.07532   0.07674   0.07733   0.07917

 Mulliken charges:
               1
     1  C    0.467185
     2  C   -0.108695
     3  C    0.083739
     4  C    0.212299
     5  C    0.363815
     6  C   -0.340549
     7  C    0.074059
     8  C    0.164896
     9  C    0.312810
    10  C   -0.533039
    11  C    0.362483
    12  C    0.045074
    13  C   -0.524044
    14  C   -0.657303
    15  H    0.187691
    16  H    0.188208
    17  H    0.189861
    18  N    0.066472
    19  N   -0.095847
    20  O   -0.266024
    21  O   -0.267759
    22  O   -0.278237
    23  O   -0.191103
    24  C   -0.275792
    25  H    0.201651
    26  H    0.194301
    27  H    0.197894
    28  C   -0.280031
    29  H    0.194012
    30  H    0.192576
    31  H    0.200728
    32  C    0.317378
    33  C   -0.694400
    34  S   -0.678634
    35  C   -0.021682
    36  H    0.162946
    37  C    0.595698
    38  O   -0.115393
    39  C    0.953183
    40  C   -0.293664
    41  C    0.035912
    42  S   -0.275783
    43  H    0.183735
    44  H    0.162248
    45  H    0.164455
    46  C   -0.641344
    47  O   -0.116955
    48  C   -0.348345
    49  H    0.155734
    50  C   -0.308799
    51  H    0.186446
    52  H    0.156081
    53  H    0.179899
    54  H    0.159956
 Sum of Mulliken charges =  -0.00000

 Dipole moment (field-independent basis, Debye):
    X=             -2.5136    Y=             -0.2236    Z=              0.5638  Tot=              2.5857
 Quadrupole moment (field-independent basis, Debye-Ang):
   XX=           -212.6729   YY=           -215.3390   ZZ=           -214.8724
   XY=             -9.3205   XZ=            -10.1049   YZ=             13.3873

 Normal termination of Gaussian 16 at Fri Nov 27 05:31:03 2020.
