 Gaussian 16, Revision C.01,
 Gaussian 16:  ES64L-G16RevC.01  3-Jul-2019

 --------------------------------------
 # opt=modredundant wb97xd/6-311+g(d,p)
 --------------------------------------

 -----------
 NDI_-65.pdb
 -----------
 Symbolic Z-matrix:
 Charge =  0 Multiplicity = 1

 SCF Done:  E(RwB97XD) =  -2358.76729969     A.U. after   20 cycles
 SCF Done:  E(RwB97XD) =  -2358.77285728     A.U. after   17 cycles
 SCF Done:  E(RwB97XD) =  -2358.77358136     A.U. after   16 cycles
 SCF Done:  E(RwB97XD) =  -2358.77378301     A.U. after   17 cycles
 SCF Done:  E(RwB97XD) =  -2358.77385952     A.U. after   15 cycles
 SCF Done:  E(RwB97XD) =  -2358.77389231     A.U. after   16 cycles
 SCF Done:  E(RwB97XD) =  -2358.77392095     A.U. after   16 cycles
 SCF Done:  E(RwB97XD) =  -2358.77393304     A.U. after   16 cycles
 SCF Done:  E(RwB97XD) =  -2358.77393914     A.U. after   14 cycles
 SCF Done:  E(RwB97XD) =  -2358.77394691     A.U. after   14 cycles
 SCF Done:  E(RwB97XD) =  -2358.77396565     A.U. after   12 cycles
 SCF Done:  E(RwB97XD) =  -2358.77396587     A.U. after   11 cycles
 SCF Done:  E(RwB97XD) =  -2358.77396599     A.U. after   11 cycles
 SCF Done:  E(RwB97XD) =  -2358.77396605     A.U. after   10 cycles
 SCF Done:  E(RwB97XD) =  -2358.77396612     A.U. after   12 cycles
 SCF Done:  E(RwB97XD) =  -2358.77396618     A.U. after   11 cycles
 SCF Done:  E(RwB97XD) =  -2358.77396627     A.U. after   11 cycles
 SCF Done:  E(RwB97XD) =  -2358.77396633     A.U. after   13 cycles
 SCF Done:  E(RwB97XD) =  -2358.77396634     A.U. after    8 cycles
 SCF Done:  E(RwB97XD) =  -2358.77396637     A.U. after   11 cycles
 Optimization completed.
    -- Stationary point found.

                         Standard orientation:
 ---------------------------------------------------------------------
 Center     Atomic      Atomic             Coordinates (Angstroms)
 Number     Number       Type             X           Y           Z
 ---------------------------------------------------------------------
      1          6           0        2.985161   -2.876329    0.585461
      2          6           0        2.470104   -1.503226    0.339168
      3          6           0        3.363398   -0.452900    0.046787
      4          6           0        4.752676   -0.685592   -0.009485
      5          6           0        5.296491   -2.049961    0.234363
      6          6           0        1.127004   -1.258008    0.421542
      7          6           0        2.849670    0.839075   -0.193033
      8          6           0        1.449765    1.073365   -0.140118
      9          6           0        0.589832    0.037129    0.207032
     10          6           0        0.945725    2.423077   -0.539582
     11          6           0        3.278412    3.261081   -0.726538
     12          6           0        3.762510    1.880021   -0.475231
     13          6           0        5.116112    1.635809   -0.518915
     14          6           0        5.617576    0.346313   -0.288038
     15          1           0        6.681360    0.146706   -0.324501
     16          1           0        5.783773    2.461053   -0.734127
     17          1           0        0.459698   -2.071855    0.679818
     18          7           0        1.898362    3.435028   -0.723401
     19          7           0        4.366515   -3.055540    0.511705
     20          8           0        2.257636   -3.808696    0.839450
     21          8           0        6.483302   -2.280636    0.193974
     22          8           0        4.037585    4.181613   -0.932877
     23          8           0       -0.220476    2.677899   -0.720877
     24          6           0        1.366843    4.758404   -1.047706
     25          1           0        0.900092    4.744983   -2.033621
     26          1           0        0.613093    5.036026   -0.312290
     27          1           0        2.193039    5.462921   -1.035427
     28          6           0        4.853736   -4.412735    0.755622
     29          1           0        4.570558   -4.731378    1.759025
     30          1           0        4.407568   -5.097978    0.034912
     31          1           0        5.934626   -4.404785    0.652651
     32          6           0       -0.862145    0.191474    0.403331
     33          6           0       -1.496222    0.918214    1.366313
     34         16           0       -1.974203   -0.708788   -0.559705
     35          6           0       -2.904596    0.766085    1.311531
     36          1           0       -0.970280    1.545190    2.072087
     37          6           0       -3.340378   -0.081959    0.316536
     38          8           0       -3.803544    1.357899    2.133078
     39          6           0       -4.706867   -0.420756   -0.019157
     40          6           0       -3.330471    2.380822    2.984446
     41          6           0       -5.134325   -1.300777   -0.989491
     42         16           0       -6.083361    0.282911    0.783085
     43          1           0       -4.206433    2.785340    3.488617
     44          1           0       -2.636313    1.984007    3.733684
     45          1           0       -2.839302    3.174557    2.411228
     46          6           0       -6.549049   -1.408911   -1.089700
     47          8           0       -4.223276   -1.964215   -1.740576
     48          6           0       -7.179777   -0.605201   -0.189245
     49          1           0       -7.070612   -2.047051   -1.788424
     50          6           0       -4.707823   -2.852592   -2.725208
     51          1           0       -8.243073   -0.491843   -0.042027
     52          1           0       -5.313569   -2.325495   -3.470442
     53          1           0       -3.829779   -3.276378   -3.209411
     54          1           0       -5.297557   -3.658863   -2.275446
 ---------------------------------------------------------------------

 The electronic state is 1-A.
 Alpha  occ. eigenvalues --  -89.04647 -89.04231 -19.28663 -19.28591 -19.25181
 Alpha  occ. eigenvalues --  -19.25117 -19.24849 -19.24784 -14.50725 -14.50423
 Alpha  occ. eigenvalues --  -10.42978 -10.42744 -10.42708 -10.42609 -10.35221
 Alpha  occ. eigenvalues --  -10.34982 -10.34905 -10.34603 -10.34518 -10.34332
 Alpha  occ. eigenvalues --  -10.34271 -10.34226 -10.34042 -10.33979 -10.33942
 Alpha  occ. eigenvalues --  -10.33048 -10.33032 -10.32988 -10.32759 -10.32326
 Alpha  occ. eigenvalues --  -10.32316 -10.32172 -10.31979 -10.31336 -10.29552
 Alpha  occ. eigenvalues --  -10.29285  -8.08661  -8.08253  -6.03515  -6.03116
 Alpha  occ. eigenvalues --   -6.03096  -6.02729  -6.02700  -6.02342  -1.19640
 Alpha  occ. eigenvalues --   -1.19457  -1.18373  -1.18284  -1.17734  -1.17511
 Alpha  occ. eigenvalues --   -1.06899  -1.06538  -1.03432  -1.00353  -0.98721
 Alpha  occ. eigenvalues --   -0.97204  -0.94934  -0.90541  -0.88881  -0.87162
 Alpha  occ. eigenvalues --   -0.85773  -0.85414  -0.84406  -0.82733  -0.82199
 Alpha  occ. eigenvalues --   -0.81493  -0.79390  -0.78234  -0.77032  -0.75737
 Alpha  occ. eigenvalues --   -0.75302  -0.74376  -0.70187  -0.68706  -0.67815
 Alpha  occ. eigenvalues --   -0.66790  -0.65595  -0.64859  -0.64617  -0.63233
 Alpha  occ. eigenvalues --   -0.62698  -0.60867  -0.59890  -0.59323  -0.59012
 Alpha  occ. eigenvalues --   -0.58071  -0.57795  -0.57424  -0.57113  -0.56767
 Alpha  occ. eigenvalues --   -0.56395  -0.56121  -0.55550  -0.55364  -0.54242
 Alpha  occ. eigenvalues --   -0.54081  -0.53567  -0.53472  -0.53173  -0.52424
 Alpha  occ. eigenvalues --   -0.51662  -0.51236  -0.51173  -0.50380  -0.50283
 Alpha  occ. eigenvalues --   -0.49771  -0.49616  -0.49265  -0.48991  -0.48439
 Alpha  occ. eigenvalues --   -0.48309  -0.47218  -0.46875  -0.45855  -0.45191
 Alpha  occ. eigenvalues --   -0.44161  -0.43705  -0.42219  -0.41533  -0.41149
 Alpha  occ. eigenvalues --   -0.40792  -0.40439  -0.39773  -0.38665  -0.37647
 Alpha  occ. eigenvalues --   -0.37481  -0.37097  -0.37027  -0.36170  -0.34780
 Alpha  occ. eigenvalues --   -0.33387  -0.31550  -0.31299  -0.25428
 Alpha virt. eigenvalues --   -0.07273  -0.00153   0.00522   0.02212   0.02934
 Alpha virt. eigenvalues --    0.04971   0.05914   0.06065   0.06762   0.06880
 Alpha virt. eigenvalues --    0.07320   0.07482   0.07601   0.07728   0.07826

 Mulliken charges:
               1
     1  C    0.468427
     2  C   -0.075438
     3  C    0.088085
     4  C    0.164784
     5  C    0.356832
     6  C   -0.820943
     7  C    0.140039
     8  C    0.181157
     9  C    0.571951
    10  C   -0.403647
    11  C    0.382193
    12  C    0.109239
    13  C   -0.569035
    14  C   -0.723077
    15  H    0.188422
    16  H    0.189276
    17  H    0.206575
    18  N   -0.066971
    19  N   -0.096717
    20  O   -0.258986
    21  O   -0.267743
    22  O   -0.273305
    23  O   -0.109677
    24  C   -0.270731
    25  H    0.201967
    26  H    0.189692
    27  H    0.201232
    28  C   -0.282498
    29  H    0.194829
    30  H    0.193321
    31  H    0.200856
    32  C    0.229366
    33  C   -0.388421
    34  S   -0.418530
    35  C   -0.326860
    36  H    0.145732
    37  C    0.445206
    38  O   -0.106119
    39  C    0.909025
    40  C   -0.303442
    41  C    0.036748
    42  S   -0.283257
    43  H    0.181413
    44  H    0.154821
    45  H    0.173513
    46  C   -0.511455
    47  O   -0.116814
    48  C   -0.360097
    49  H    0.154884
    50  C   -0.304488
    51  H    0.184942
    52  H    0.158664
    53  H    0.179255
    54  H    0.155800
 Sum of Mulliken charges =  -0.00000

 Dipole moment (field-independent basis, Debye):
    X=             -1.5627    Y=              0.0693    Z=              0.0894  Tot=              1.5668
 Quadrupole moment (field-independent basis, Debye-Ang):
   XX=           -217.3540   YY=           -217.9565   ZZ=           -208.2523
   XY=              1.8683   XZ=              7.0653   YZ=             16.3481

 Normal termination of Gaussian 16 at Thu Nov 26 22:03:17 2020.
