 Gaussian 16, Revision C.01,
 Gaussian 16:  ES64L-G16RevC.01  3-Jul-2019

 ----------------------------------
 # opt=modredundant mp2/aug-cc-pvdz
 ----------------------------------

 --------------
 pBTTT_-140.pdb
 --------------
 Symbolic Z-matrix:
 Charge =  0 Multiplicity = 1

 SCF Done:  E(RHF) =  -1613.81406734     A.U. after   17 cycles
 E2 =    -0.1928409931D+01 EUMP2 =    -0.16157424772757D+04
 SCF Done:  E(RHF) =  -1613.80549337     A.U. after   15 cycles
 E2 =    -0.1946375113D+01 EUMP2 =    -0.16157518684821D+04
 SCF Done:  E(RHF) =  -1613.80356483     A.U. after   14 cycles
 E2 =    -0.1948886712D+01 EUMP2 =    -0.16157524515456D+04
 SCF Done:  E(RHF) =  -1613.80298566     A.U. after   12 cycles
 E2 =    -0.1949548676D+01 EUMP2 =    -0.16157525343333D+04
 SCF Done:  E(RHF) =  -1613.80295335     A.U. after   12 cycles
 E2 =    -0.1949601431D+01 EUMP2 =    -0.16157525547792D+04
 SCF Done:  E(RHF) =  -1613.80309587     A.U. after   11 cycles
 E2 =    -0.1949473231D+01 EUMP2 =    -0.16157525691018D+04
 SCF Done:  E(RHF) =  -1613.80327769     A.U. after   12 cycles
 E2 =    -0.1949304647D+01 EUMP2 =    -0.16157525823338D+04
 SCF Done:  E(RHF) =  -1613.80323225     A.U. after   11 cycles
 E2 =    -0.1949353132D+01 EUMP2 =    -0.16157525853773D+04
 SCF Done:  E(RHF) =  -1613.80317166     A.U. after   11 cycles
 E2 =    -0.1949414364D+01 EUMP2 =    -0.16157525860289D+04
 SCF Done:  E(RHF) =  -1613.80316083     A.U. after    9 cycles
 E2 =    -0.1949425232D+01 EUMP2 =    -0.16157525860662D+04
 Optimization completed.
    -- Stationary point found.

                         Standard orientation:
 ---------------------------------------------------------------------
 Center     Atomic      Atomic             Coordinates (Angstroms)
 Number     Number       Type             X           Y           Z
 ---------------------------------------------------------------------
      1          6           0        3.957301    0.806769    0.125993
      2          6           0        2.573919    1.122058    0.270355
      3          6           0        1.755773    0.028187   -0.061334
      4          6           0        2.052208    2.454548    0.746537
      5          6           0        4.189735   -0.498790   -0.296642
      6          1           0        4.765995    1.510356    0.341749
      7         16           0        2.707282   -1.356079   -0.541202
      8          1           0        5.143924   -0.996401   -0.472609
      9          6           0        0.303590   -0.043388   -0.033052
     10         16           0       -0.498801   -1.507496    0.548517
     11          6           0       -2.070642   -0.808950    0.273714
     12          6           0       -1.951922    0.512190   -0.226278
     13          6           0       -0.610599    0.946149   -0.407831
     14          1           0       -0.300788    1.906414   -0.823752
     15         16           0       -3.524739    1.211442   -0.496138
     16          6           0       -4.310215   -0.251163    0.055428
     17          6           0       -3.417700   -1.246468    0.434879
     18          1           0       -5.400256   -0.294874    0.069901
     19          1           0       -3.732456   -2.224154    0.803962
     20          1           0        2.778724    2.930042    1.423414
     21          1           0        1.098313    2.330537    1.283767
     22          1           0        1.877982    3.145351   -0.095894
 ---------------------------------------------------------------------

 The electronic state is 1-A.
 Alpha  occ. eigenvalues --  -91.99515 -91.99438 -91.99073 -11.29582 -11.28459
 Alpha  occ. eigenvalues --  -11.28207 -11.28095 -11.27984 -11.27955 -11.26556
 Alpha  occ. eigenvalues --  -11.26468 -11.26202 -11.25244 -11.24365  -8.99625
 Alpha  occ. eigenvalues --   -8.99541  -8.99240  -6.67791  -6.67710  -6.67704
 Alpha  occ. eigenvalues --   -6.67620  -6.67514  -6.67420  -6.67403  -6.67311
 Alpha  occ. eigenvalues --   -6.67131  -1.20680  -1.17795  -1.11869  -1.03810
 Alpha  occ. eigenvalues --   -1.02548  -1.01398  -0.95000  -0.94407  -0.91436
 Alpha  occ. eigenvalues --   -0.82114  -0.76792  -0.76357  -0.72441  -0.69812
 Alpha  occ. eigenvalues --   -0.66776  -0.66243  -0.60284  -0.58822  -0.58770
 Alpha  occ. eigenvalues --   -0.56535  -0.55838  -0.54413  -0.53827  -0.52434
 Alpha  occ. eigenvalues --   -0.51860  -0.50929  -0.49629  -0.47522  -0.46329
 Alpha  occ. eigenvalues --   -0.45990  -0.39225  -0.34576  -0.34046  -0.32254
 Alpha  occ. eigenvalues --   -0.27105
 Alpha virt. eigenvalues --    0.03409   0.03541   0.04033   0.04873   0.04932
 Alpha virt. eigenvalues --    0.05494   0.05948   0.06780   0.07633   0.08343
 Alpha virt. eigenvalues --    0.08686   0.09663   0.10030   0.10662   0.10971

 Mulliken charges:
               1
     1  C    0.453350
     2  C   -0.423499
     3  C    0.529874
     4  C    0.360738
     5  C   -0.355481
     6  H   -0.446185
     7  S    0.410225
     8  H   -0.336172
     9  C    0.143516
    10  S    0.449073
    11  C   -0.659008
    12  C   -0.329928
    13  C    0.226336
    14  H   -0.449669
    15  S    0.594442
    16  C   -0.120262
    17  C    0.503107
    18  H   -0.355169
    19  H   -0.296753
    20  H   -0.144685
    21  H    0.090678
    22  H    0.155470
 Sum of Mulliken charges =  -0.00000

 Dipole moment (field-independent basis, Debye):
    X=              0.3920    Y=              1.0335    Z=              0.3625  Tot=              1.1633
 Quadrupole moment (field-independent basis, Debye-Ang):
   XX=            -87.5335   YY=            -99.4971   ZZ=           -110.6944
   XY=              6.1486   XZ=             -0.9977   YZ=             -0.9610

 Normal termination of Gaussian 16 at Wed Oct 27 00:05:20 2021.
