 Gaussian 16, Revision C.01,
 Gaussian 16:  ES64L-G16RevC.01  3-Jul-2019

 ----------------------------------
 # opt=modredundant mp2/aug-cc-pvdz
 ----------------------------------

 -------------
 pBTTT_160.pdb
 -------------
 Symbolic Z-matrix:
 Charge =  0 Multiplicity = 1

 SCF Done:  E(RHF) =  -1613.81212429     A.U. after   16 cycles
 E2 =    -0.1930073956D+01 EUMP2 =    -0.16157421982473D+04
 SCF Done:  E(RHF) =  -1613.80348935     A.U. after   15 cycles
 E2 =    -0.1947814967D+01 EUMP2 =    -0.16157513043122D+04
 SCF Done:  E(RHF) =  -1613.80183784     A.U. after   13 cycles
 E2 =    -0.1949977855D+01 EUMP2 =    -0.16157518156962D+04
 SCF Done:  E(RHF) =  -1613.80129877     A.U. after   12 cycles
 E2 =    -0.1950580965D+01 EUMP2 =    -0.16157518797345D+04
 SCF Done:  E(RHF) =  -1613.80141138     A.U. after   11 cycles
 E2 =    -0.1950477431D+01 EUMP2 =    -0.16157518888141D+04
 SCF Done:  E(RHF) =  -1613.80151642     A.U. after   11 cycles
 E2 =    -0.1950377013D+01 EUMP2 =    -0.16157518934331D+04
 SCF Done:  E(RHF) =  -1613.80153347     A.U. after   11 cycles
 E2 =    -0.1950361640D+01 EUMP2 =    -0.16157518951082D+04
 SCF Done:  E(RHF) =  -1613.80151270     A.U. after   11 cycles
 E2 =    -0.1950382833D+01 EUMP2 =    -0.16157518955344D+04
 Optimization completed.
    -- Stationary point found.

                         Standard orientation:
 ---------------------------------------------------------------------
 Center     Atomic      Atomic             Coordinates (Angstroms)
 Number     Number       Type             X           Y           Z
 ---------------------------------------------------------------------
      1          6           0       -3.969012    0.806675    0.026595
      2          6           0       -2.593046    1.156789    0.152630
      3          6           0       -1.753960    0.036311   -0.000228
      4          6           0       -2.109996    2.553600    0.451271
      5          6           0       -4.182052   -0.545855   -0.220191
      6          1           0       -4.786844    1.525577    0.125421
      7         16           0       -2.686515   -1.409061   -0.315810
      8          1           0       -5.126797   -1.075328   -0.346047
      9          6           0       -0.302182   -0.022112    0.030534
     10         16           0        0.503344   -1.567804    0.343592
     11          6           0        2.075318   -0.841991    0.157094
     12          6           0        1.957492    0.541596   -0.122043
     13          6           0        0.617745    1.008133   -0.203216
     14          1           0        0.322056    2.025248   -0.459042
     15         16           0        3.530705    1.269445   -0.298692
     16          6           0        4.314612   -0.265694   -0.000449
     17          6           0        3.420884   -1.305291    0.228839
     18          1           0        5.404390   -0.316229   -0.011398
     19          1           0        3.734698   -2.330595    0.432296
     20          1           0       -2.930059    3.156685    0.869610
     21          1           0       -1.751202    3.062736   -0.459754
     22          1           0       -1.281606    2.537652    1.178461
 ---------------------------------------------------------------------

 The electronic state is 1-A.
 Alpha  occ. eigenvalues --  -91.99505 -91.99397 -91.99114 -11.29823 -11.28446
 Alpha  occ. eigenvalues --  -11.28436 -11.28081 -11.27993 -11.27935 -11.26554
 Alpha  occ. eigenvalues --  -11.26409 -11.26266 -11.25311 -11.24632  -8.99616
 Alpha  occ. eigenvalues --   -8.99520  -8.99294  -6.67782  -6.67702  -6.67686
 Alpha  occ. eigenvalues --   -6.67601  -6.67506  -6.67459  -6.67399  -6.67366
 Alpha  occ. eigenvalues --   -6.67185  -1.20702  -1.17854  -1.11869  -1.04003
 Alpha  occ. eigenvalues --   -1.02529  -1.01523  -0.95005  -0.94393  -0.91625
 Alpha  occ. eigenvalues --   -0.82195  -0.76832  -0.76565  -0.72378  -0.69988
 Alpha  occ. eigenvalues --   -0.66825  -0.66271  -0.60255  -0.59012  -0.58858
 Alpha  occ. eigenvalues --   -0.56432  -0.55962  -0.54730  -0.53886  -0.52436
 Alpha  occ. eigenvalues --   -0.51838  -0.51106  -0.49699  -0.47556  -0.46447
 Alpha  occ. eigenvalues --   -0.45811  -0.39405  -0.34920  -0.34357  -0.32271
 Alpha  occ. eigenvalues --   -0.26501
 Alpha virt. eigenvalues --    0.03370   0.03545   0.03975   0.04904   0.04993
 Alpha virt. eigenvalues --    0.05264   0.05639   0.06745   0.07995   0.08196
 Alpha virt. eigenvalues --    0.08906   0.09809   0.10272   0.10700   0.10789

 Mulliken charges:
               1
     1  C    0.445916
     2  C   -0.243162
     3  C    0.278155
     4  C    0.390808
     5  C   -0.350317
     6  H   -0.468768
     7  S    0.480396
     8  H   -0.350725
     9  C   -0.078074
    10  S    0.477238
    11  C   -0.553940
    12  C   -0.337752
    13  C    0.507984
    14  H   -0.565217
    15  S    0.546387
    16  C   -0.156746
    17  C    0.451443
    18  H   -0.359100
    19  H   -0.301110
    20  H   -0.238758
    21  H    0.228249
    22  H    0.197093
 Sum of Mulliken charges =  -0.00000

 Dipole moment (field-independent basis, Debye):
    X=             -0.4661    Y=              1.0534    Z=              0.1353  Tot=              1.1599
 Quadrupole moment (field-independent basis, Debye-Ang):
   XX=            -87.2928   YY=            -98.2064   ZZ=           -111.9314
   XY=             -6.5163   XZ=              0.6219   YZ=             -0.4608

 Normal termination of Gaussian 16 at Wed Oct 27 07:32:53 2021.
