 Gaussian 16, Revision C.01,
 Gaussian 16:  ES64L-G16RevC.01  3-Jul-2019

 ----------------------------------
 # opt=modredundant mp2/aug-cc-pvdz
 ----------------------------------

 -------------
 pBTTT_-20.pdb
 -------------
 Symbolic Z-matrix:
 Charge =  0 Multiplicity = 1

 SCF Done:  E(RHF) =  -1613.81241668     A.U. after   17 cycles
 E2 =    -0.1929539569D+01 EUMP2 =    -0.16157419562533D+04
 SCF Done:  E(RHF) =  -1613.80361356     A.U. after   15 cycles
 E2 =    -0.1947741048D+01 EUMP2 =    -0.16157513546088D+04
 SCF Done:  E(RHF) =  -1613.80195507     A.U. after   14 cycles
 E2 =    -0.1949938065D+01 EUMP2 =    -0.16157518931320D+04
 SCF Done:  E(RHF) =  -1613.80133909     A.U. after   13 cycles
 E2 =    -0.1950621571D+01 EUMP2 =    -0.16157519606579D+04
 SCF Done:  E(RHF) =  -1613.80149519     A.U. after   13 cycles
 E2 =    -0.1950478121D+01 EUMP2 =    -0.16157519733142D+04
 SCF Done:  E(RHF) =  -1613.80161968     A.U. after   12 cycles
 E2 =    -0.1950359631D+01 EUMP2 =    -0.16157519793075D+04
 SCF Done:  E(RHF) =  -1613.80165288     A.U. after   11 cycles
 E2 =    -0.1950328637D+01 EUMP2 =    -0.16157519815213D+04
 SCF Done:  E(RHF) =  -1613.80163556     A.U. after   10 cycles
 E2 =    -0.1950346732D+01 EUMP2 =    -0.16157519822901D+04
 SCF Done:  E(RHF) =  -1613.80161529     A.U. after   10 cycles
 E2 =    -0.1950367172D+01 EUMP2 =    -0.16157519824568D+04
 Optimization completed.
    -- Stationary point found.

                         Standard orientation:
 ---------------------------------------------------------------------
 Center     Atomic      Atomic             Coordinates (Angstroms)
 Number     Number       Type             X           Y           Z
 ---------------------------------------------------------------------
      1          6           0       -4.050808    0.289997    0.110731
      2          6           0       -2.739994    0.848574    0.174416
      3          6           0       -1.745657   -0.135556    0.014126
      4          6           0       -2.479448    2.317986    0.401095
      5          6           0       -4.065895   -1.084428   -0.098820
      6          1           0       -4.963256    0.881827    0.222166
      7         16           0       -2.460677   -1.713752   -0.234883
      8          1           0       -4.923611   -1.752759   -0.179448
      9          6           0       -0.296733   -0.024976    0.019500
     10         16           0        0.509941    1.525363   -0.272868
     11          6           0        2.080550    0.785794   -0.155312
     12          6           0        1.965010   -0.603463    0.097160
     13          6           0        0.626780   -1.062770    0.203268
     14          1           0        0.322490   -2.090419    0.414951
     15         16           0        3.539545   -1.336275    0.237049
     16          6           0        4.321244    0.204559   -0.040621
     17          6           0        3.425930    1.250192   -0.231611
     18          1           0        5.411160    0.252109   -0.052600
     19          1           0        3.738136    2.279285   -0.418121
     20          1           0       -3.411791    2.820994    0.699306
     21          1           0       -2.108287    2.810369   -0.513382
     22          1           0       -1.731657    2.477756    1.194765
 ---------------------------------------------------------------------

 The electronic state is 1-A.
 Alpha  occ. eigenvalues --  -91.99519 -91.99439 -91.99044 -11.29854 -11.28474
 Alpha  occ. eigenvalues --  -11.28385 -11.28063 -11.28016 -11.27863 -11.26537
 Alpha  occ. eigenvalues --  -11.26334 -11.26280 -11.25279 -11.24347  -8.99634
 Alpha  occ. eigenvalues --   -8.99549  -8.99228  -6.67798  -6.67715  -6.67715
 Alpha  occ. eigenvalues --   -6.67634  -6.67515  -6.67438  -6.67395  -6.67301
 Alpha  occ. eigenvalues --   -6.67120  -1.20686  -1.17817  -1.11848  -1.03872
 Alpha  occ. eigenvalues --   -1.02679  -1.01426  -0.94911  -0.94341  -0.91588
 Alpha  occ. eigenvalues --   -0.82150  -0.77497  -0.76179  -0.71515  -0.70049
 Alpha  occ. eigenvalues --   -0.66977  -0.66317  -0.59991  -0.58998  -0.58839
 Alpha  occ. eigenvalues --   -0.56856  -0.55899  -0.54541  -0.53704  -0.52192
 Alpha  occ. eigenvalues --   -0.51914  -0.51371  -0.49718  -0.47135  -0.46475
 Alpha  occ. eigenvalues --   -0.45859  -0.39450  -0.34883  -0.34413  -0.32302
 Alpha  occ. eigenvalues --   -0.26347
 Alpha virt. eigenvalues --    0.03433   0.03487   0.04015   0.04737   0.04959
 Alpha virt. eigenvalues --    0.05251   0.05977   0.06106   0.07436   0.08445
 Alpha virt. eigenvalues --    0.09480   0.09917   0.10316   0.10459   0.10796

 Mulliken charges:
               1
     1  C    0.458178
     2  C   -0.416522
     3  C    0.581348
     4  C    0.457959
     5  C   -0.396990
     6  H   -0.476690
     7  S    0.483899
     8  H   -0.356020
     9  C   -0.053637
    10  S    0.536218
    11  C   -0.727104
    12  C   -0.193347
    13  C    0.280375
    14  H   -0.494360
    15  S    0.536482
    16  C   -0.186346
    17  C    0.467916
    18  H   -0.361644
    19  H   -0.300367
    20  H   -0.215288
    21  H    0.191473
    22  H    0.184468
 Sum of Mulliken charges =  -0.00000

 Dipole moment (field-independent basis, Debye):
    X=             -0.6491    Y=              1.1576    Z=              0.2151  Tot=              1.3445
 Quadrupole moment (field-independent basis, Debye-Ang):
   XX=            -86.9136   YY=            -98.2666   ZZ=           -112.0831
   XY=              2.3572   XZ=             -1.2444   YZ=             -0.4819

 Normal termination of Gaussian 16 at Wed Oct 27 02:56:26 2021.
