 Gaussian 16, Revision C.01,
 Gaussian 16:  ES64L-G16RevC.01  3-Jul-2019

 ----------------------------------
 # opt=modredundant mp2/aug-cc-pvdz
 ----------------------------------

 -------------
 pBTTT_-25.pdb
 -------------
 Symbolic Z-matrix:
 Charge =  0 Multiplicity = 1

 SCF Done:  E(RHF) =  -1613.81273413     A.U. after   17 cycles
 E2 =    -0.1929279969D+01 EUMP2 =    -0.16157420140951D+04
 SCF Done:  E(RHF) =  -1613.80396329     A.U. after   15 cycles
 E2 =    -0.1947460991D+01 EUMP2 =    -0.16157514242853D+04
 SCF Done:  E(RHF) =  -1613.80227910     A.U. after   13 cycles
 E2 =    -0.1949689362D+01 EUMP2 =    -0.16157519684665D+04
 SCF Done:  E(RHF) =  -1613.80165150     A.U. after   13 cycles
 E2 =    -0.1950394230D+01 EUMP2 =    -0.16157520457301D+04
 SCF Done:  E(RHF) =  -1613.80175517     A.U. after   13 cycles
 E2 =    -0.1950306973D+01 EUMP2 =    -0.16157520621428D+04
 SCF Done:  E(RHF) =  -1613.80188252     A.U. after   12 cycles
 E2 =    -0.1950188718D+01 EUMP2 =    -0.16157520712417D+04
 SCF Done:  E(RHF) =  -1613.80195119     A.U. after   11 cycles
 E2 =    -0.1950124383D+01 EUMP2 =    -0.16157520755712D+04
 SCF Done:  E(RHF) =  -1613.80193347     A.U. after   10 cycles
 E2 =    -0.1950143174D+01 EUMP2 =    -0.16157520766471D+04
 SCF Done:  E(RHF) =  -1613.80190625     A.U. after   10 cycles
 E2 =    -0.1950170614D+01 EUMP2 =    -0.16157520768628D+04
 Optimization completed.
    -- Stationary point found.

                         Standard orientation:
 ---------------------------------------------------------------------
 Center     Atomic      Atomic             Coordinates (Angstroms)
 Number     Number       Type             X           Y           Z
 ---------------------------------------------------------------------
      1          6           0       -4.049039    0.290935    0.139393
      2          6           0       -2.737112    0.844858    0.217020
      3          6           0       -1.746086   -0.134148    0.014771
      4          6           0       -2.469026    2.303028    0.501229
      5          6           0       -4.066913   -1.075221   -0.120693
      6          1           0       -4.960338    0.878543    0.279282
      7         16           0       -2.463490   -1.700552   -0.290508
      8          1           0       -4.926354   -1.738855   -0.219977
      9          6           0       -0.296808   -0.024346    0.020314
     10         16           0        0.508519    1.510313   -0.343357
     11          6           0        2.079651    0.777259   -0.192014
     12          6           0        1.964006   -0.599735    0.121320
     13          6           0        0.625481   -1.053753    0.249171
     14          1           0        0.318923   -2.069602    0.508989
     15         16           0        3.538464   -1.325105    0.295807
     16          6           0        4.320294    0.202024   -0.048462
     17          6           0        3.425160    1.238098   -0.286464
     18          1           0        5.410219    0.249045   -0.061841
     19          1           0        3.737512    2.258002   -0.517800
     20          1           0       -3.385046    2.786337    0.873578
     21          1           0       -2.149160    2.841619   -0.406529
     22          1           0       -1.679304    2.426421    1.259719
 ---------------------------------------------------------------------

 The electronic state is 1-A.
 Alpha  occ. eigenvalues --  -91.99510 -91.99448 -91.99049 -11.29801 -11.28413
 Alpha  occ. eigenvalues --  -11.28404 -11.28064 -11.27990 -11.27891 -11.26543
 Alpha  occ. eigenvalues --  -11.26307 -11.26295 -11.25262 -11.24310  -8.99625
 Alpha  occ. eigenvalues --   -8.99559  -8.99228  -6.67789  -6.67724  -6.67706
 Alpha  occ. eigenvalues --   -6.67644  -6.67506  -6.67447  -6.67394  -6.67300
 Alpha  occ. eigenvalues --   -6.67120  -1.20685  -1.17804  -1.11853  -1.03825
 Alpha  occ. eigenvalues --   -1.02680  -1.01406  -0.94918  -0.94342  -0.91548
 Alpha  occ. eigenvalues --   -0.82131  -0.77454  -0.76169  -0.71565  -0.70015
 Alpha  occ. eigenvalues --   -0.66942  -0.66307  -0.59995  -0.58987  -0.58788
 Alpha  occ. eigenvalues --   -0.56853  -0.55893  -0.54495  -0.53672  -0.52190
 Alpha  occ. eigenvalues --   -0.51943  -0.51314  -0.49706  -0.47180  -0.46415
 Alpha  occ. eigenvalues --   -0.45910  -0.39402  -0.34804  -0.34352  -0.32292
 Alpha  occ. eigenvalues --   -0.26477
 Alpha virt. eigenvalues --    0.03444   0.03490   0.04034   0.04745   0.04937
 Alpha virt. eigenvalues --    0.05346   0.05963   0.06105   0.07452   0.08462
 Alpha virt. eigenvalues --    0.09388   0.09930   0.10290   0.10426   0.10789

 Mulliken charges:
               1
     1  C    0.459323
     2  C   -0.428278
     3  C    0.639676
     4  C    0.445621
     5  C   -0.390005
     6  H   -0.471103
     7  S    0.454060
     8  H   -0.350289
     9  C   -0.055087
    10  S    0.516947
    11  C   -0.701091
    12  C   -0.218314
    13  C    0.264320
    14  H   -0.488409
    15  S    0.549762
    16  C   -0.177828
    17  C    0.467175
    18  H   -0.360050
    19  H   -0.299642
    20  H   -0.208603
    21  H    0.180786
    22  H    0.171029
 Sum of Mulliken charges =  -0.00000

 Dipole moment (field-independent basis, Debye):
    X=             -0.6163    Y=              1.1419    Z=              0.2673  Tot=              1.3248
 Quadrupole moment (field-independent basis, Debye-Ang):
   XX=            -86.9751   YY=            -98.5102   ZZ=           -111.8228
   XY=              2.3832   XZ=             -1.5478   YZ=             -0.5950

 Normal termination of Gaussian 16 at Wed Oct 27 03:06:32 2021.
