 Gaussian 16, Revision C.01,
 Gaussian 16:  ES64L-G16RevC.01  3-Jul-2019

 ----------------------------------
 # opt=modredundant mp2/aug-cc-pvdz
 ----------------------------------

 -------------
 pBTTT_135.pdb
 -------------
 Symbolic Z-matrix:
 Charge =  0 Multiplicity = 1

 SCF Done:  E(RHF) =  -1613.81433656     A.U. after   17 cycles
 E2 =    -0.1928248884D+01 EUMP2 =    -0.16157425854399D+04
 SCF Done:  E(RHF) =  -1613.80571870     A.U. after   15 cycles
 E2 =    -0.1946113064D+01 EUMP2 =    -0.16157518317610D+04
 SCF Done:  E(RHF) =  -1613.80379416     A.U. after   13 cycles
 E2 =    -0.1948612682D+01 EUMP2 =    -0.16157524068421D+04
 SCF Done:  E(RHF) =  -1613.80321063     A.U. after   12 cycles
 E2 =    -0.1949276746D+01 EUMP2 =    -0.16157524873721D+04
 SCF Done:  E(RHF) =  -1613.80317802     A.U. after   12 cycles
 E2 =    -0.1949329883D+01 EUMP2 =    -0.16157525079025D+04
 SCF Done:  E(RHF) =  -1613.80330379     A.U. after   11 cycles
 E2 =    -0.1949219123D+01 EUMP2 =    -0.16157525229171D+04
 SCF Done:  E(RHF) =  -1613.80349764     A.U. after   12 cycles
 E2 =    -0.1949042009D+01 EUMP2 =    -0.16157525396472D+04
 SCF Done:  E(RHF) =  -1613.80344990     A.U. after   11 cycles
 E2 =    -0.1949094387D+01 EUMP2 =    -0.16157525442867D+04
 SCF Done:  E(RHF) =  -1613.80337647     A.U. after   11 cycles
 E2 =    -0.1949168817D+01 EUMP2 =    -0.16157525452865D+04
 SCF Done:  E(RHF) =  -1613.80336425     A.U. after    9 cycles
 E2 =    -0.1949181094D+01 EUMP2 =    -0.16157525453399D+04
 Optimization completed.
    -- Stationary point found.

                         Standard orientation:
 ---------------------------------------------------------------------
 Center     Atomic      Atomic             Coordinates (Angstroms)
 Number     Number       Type             X           Y           Z
 ---------------------------------------------------------------------
      1          6           0       -3.954014    0.804860    0.151427
      2          6           0       -2.568576    1.110676    0.298375
      3          6           0       -1.756453    0.026958   -0.076470
      4          6           0       -2.036916    2.424122    0.814846
      5          6           0       -4.192550   -0.485546   -0.312567
      6          1           0       -4.759587    1.502913    0.395046
      7         16           0       -2.714356   -1.339003   -0.593357
      8          1           0       -5.149465   -0.973760   -0.499906
      9          6           0       -0.303693   -0.049877   -0.050517
     10         16           0        0.496765   -1.486773    0.596266
     11          6           0        2.069180   -0.797565    0.301911
     12          6           0        1.951536    0.502153   -0.252121
     13          6           0        0.610355    0.925751   -0.458652
     14          1           0        0.298594    1.869267   -0.910558
     15         16           0        3.524839    1.191438   -0.543710
     16          6           0        4.309257   -0.246634    0.070308
     17          6           0        3.416175   -1.226826    0.485751
     18          1           0        5.399269   -0.288172    0.091955
     19          1           0        3.730269   -2.188374    0.895556
     20          1           0       -2.736244    2.860396    1.544845
     21          1           0       -1.905222    3.155234   -0.000744
     22          1           0       -1.059392    2.283461    1.302880
 ---------------------------------------------------------------------

 The electronic state is 1-A.
 Alpha  occ. eigenvalues --  -91.99517 -91.99440 -91.99054 -11.29525 -11.28469
 Alpha  occ. eigenvalues --  -11.28150 -11.28092 -11.27985 -11.27961 -11.26557
 Alpha  occ. eigenvalues --  -11.26481 -11.26196 -11.25221 -11.24301  -8.99627
 Alpha  occ. eigenvalues --   -8.99538  -8.99219  -6.67793  -6.67712  -6.67701
 Alpha  occ. eigenvalues --   -6.67617  -6.67516  -6.67418  -6.67382  -6.67290
 Alpha  occ. eigenvalues --   -6.67111  -1.20670  -1.17777  -1.11865  -1.03760
 Alpha  occ. eigenvalues --   -1.02555  -1.01360  -0.94995  -0.94409  -0.91390
 Alpha  occ. eigenvalues --   -0.82088  -0.76786  -0.76298  -0.72457  -0.69776
 Alpha  occ. eigenvalues --   -0.66764  -0.66236  -0.60288  -0.58794  -0.58734
 Alpha  occ. eigenvalues --   -0.56566  -0.55810  -0.54344  -0.53801  -0.52433
 Alpha  occ. eigenvalues --   -0.51853  -0.50895  -0.49603  -0.47520  -0.46310
 Alpha  occ. eigenvalues --   -0.45990  -0.39179  -0.34511  -0.33914  -0.32233
 Alpha  occ. eigenvalues --   -0.27301
 Alpha virt. eigenvalues --    0.03416   0.03539   0.04047   0.04848   0.04925
 Alpha virt. eigenvalues --    0.05506   0.06106   0.06767   0.07576   0.08363
 Alpha virt. eigenvalues --    0.08690   0.09531   0.10052   0.10625   0.10945

 Mulliken charges:
               1
     1  C    0.470070
     2  C   -0.472861
     3  C    0.572114
     4  C    0.357640
     5  C   -0.358166
     6  H   -0.442393
     7  S    0.392251
     8  H   -0.334666
     9  C    0.180768
    10  S    0.440339
    11  C   -0.680993
    12  C   -0.313759
    13  C    0.190423
    14  H   -0.440897
    15  S    0.603738
    16  C   -0.114951
    17  C    0.515718
    18  H   -0.353902
    19  H   -0.296235
    20  H   -0.120541
    21  H    0.141485
    22  H    0.064817
 Sum of Mulliken charges =  -0.00000

 Dipole moment (field-independent basis, Debye):
    X=             -0.3738    Y=              1.0314    Z=              0.4181  Tot=              1.1740
 Quadrupole moment (field-independent basis, Debye-Ang):
   XX=            -87.5848   YY=            -99.8855   ZZ=           -110.3124
   XY=             -6.0331   XZ=              1.0986   YZ=             -1.0723

 Normal termination of Gaussian 16 at Wed Oct 27 07:03:23 2021.
