 Gaussian 16, Revision C.01,
 Gaussian 16:  ES64L-G16RevC.01  3-Jul-2019

 ----------------------------------
 # opt=modredundant mp2/aug-cc-pvdz
 ----------------------------------

 -------------
 pBTTT_140.pdb
 -------------
 Symbolic Z-matrix:
 Charge =  0 Multiplicity = 1

 SCF Done:  E(RHF) =  -1613.81406573     A.U. after   17 cycles
 E2 =    -0.1928461713D+01 EUMP2 =    -0.16157425274437D+04
 SCF Done:  E(RHF) =  -1613.80548411     A.U. after   15 cycles
 E2 =    -0.1946386565D+01 EUMP2 =    -0.16157518706786D+04
 SCF Done:  E(RHF) =  -1613.80356493     A.U. after   14 cycles
 E2 =    -0.1948886388D+01 EUMP2 =    -0.16157524513187D+04
 SCF Done:  E(RHF) =  -1613.80298437     A.U. after   12 cycles
 E2 =    -0.1949549798D+01 EUMP2 =    -0.16157525341719D+04
 SCF Done:  E(RHF) =  -1613.80295094     A.U. after   12 cycles
 E2 =    -0.1949603679D+01 EUMP2 =    -0.16157525546217D+04
 SCF Done:  E(RHF) =  -1613.80309451     A.U. after   11 cycles
 E2 =    -0.1949474508D+01 EUMP2 =    -0.16157525690166D+04
 SCF Done:  E(RHF) =  -1613.80327749     A.U. after   12 cycles
 E2 =    -0.1949304839D+01 EUMP2 =    -0.16157525823317D+04
 SCF Done:  E(RHF) =  -1613.80323160     A.U. after   11 cycles
 E2 =    -0.1949353782D+01 EUMP2 =    -0.16157525853810D+04
 SCF Done:  E(RHF) =  -1613.80317037     A.U. after   11 cycles
 E2 =    -0.1949415663D+01 EUMP2 =    -0.16157525860288D+04
 SCF Done:  E(RHF) =  -1613.80316054     A.U. after    9 cycles
 E2 =    -0.1949425528D+01 EUMP2 =    -0.16157525860657D+04
 Optimization completed.
    -- Stationary point found.

                         Standard orientation:
 ---------------------------------------------------------------------
 Center     Atomic      Atomic             Coordinates (Angstroms)
 Number     Number       Type             X           Y           Z
 ---------------------------------------------------------------------
      1          6           0       -3.957326    0.806749    0.125888
      2          6           0       -2.573956    1.122080    0.270279
      3          6           0       -1.755772    0.028193   -0.061275
      4          6           0       -2.052313    2.454632    0.746370
      5          6           0       -4.189719   -0.498850   -0.296637
      6          1           0       -4.766042    1.510343    0.341547
      7         16           0       -2.707240   -1.356132   -0.541061
      8          1           0       -5.143892   -0.996498   -0.472596
      9          6           0       -0.303584   -0.043360   -0.032977
     10         16           0        0.498813   -1.507535    0.548412
     11          6           0        2.070650   -0.808969    0.273639
     12          6           0        1.951930    0.512224   -0.226208
     13          6           0        0.610608    0.946208   -0.407678
     14          1           0        0.300800    1.906514   -0.823506
     15         16           0        3.524747    1.211493   -0.496023
     16          6           0        4.310223   -0.251174    0.055375
     17          6           0        3.417707   -1.246512    0.434735
     18          1           0        5.400264   -0.294897    0.069821
     19          1           0        3.732461   -2.224241    0.803707
     20          1           0       -2.778915    2.930195    1.423105
     21          1           0       -1.877995    3.145341   -0.096120
     22          1           0       -1.098480    2.330693    1.283728
 ---------------------------------------------------------------------

 The electronic state is 1-A.
 Alpha  occ. eigenvalues --  -91.99515 -91.99438 -91.99073 -11.29582 -11.28459
 Alpha  occ. eigenvalues --  -11.28207 -11.28095 -11.27984 -11.27955 -11.26556
 Alpha  occ. eigenvalues --  -11.26468 -11.26202 -11.25244 -11.24365  -8.99625
 Alpha  occ. eigenvalues --   -8.99541  -8.99240  -6.67791  -6.67710  -6.67704
 Alpha  occ. eigenvalues --   -6.67620  -6.67514  -6.67420  -6.67403  -6.67311
 Alpha  occ. eigenvalues --   -6.67131  -1.20680  -1.17795  -1.11869  -1.03810
 Alpha  occ. eigenvalues --   -1.02548  -1.01398  -0.95000  -0.94407  -0.91436
 Alpha  occ. eigenvalues --   -0.82114  -0.76792  -0.76357  -0.72441  -0.69812
 Alpha  occ. eigenvalues --   -0.66776  -0.66243  -0.60284  -0.58822  -0.58770
 Alpha  occ. eigenvalues --   -0.56535  -0.55838  -0.54413  -0.53827  -0.52434
 Alpha  occ. eigenvalues --   -0.51860  -0.50929  -0.49629  -0.47522  -0.46329
 Alpha  occ. eigenvalues --   -0.45990  -0.39225  -0.34576  -0.34047  -0.32255
 Alpha  occ. eigenvalues --   -0.27105
 Alpha virt. eigenvalues --    0.03409   0.03541   0.04033   0.04873   0.04932
 Alpha virt. eigenvalues --    0.05494   0.05948   0.06780   0.07633   0.08343
 Alpha virt. eigenvalues --    0.08686   0.09663   0.10030   0.10663   0.10971

 Mulliken charges:
               1
     1  C    0.453306
     2  C   -0.423415
     3  C    0.529784
     4  C    0.360742
     5  C   -0.355470
     6  H   -0.446196
     7  S    0.410283
     8  H   -0.336175
     9  C    0.143423
    10  S    0.449079
    11  C   -0.658938
    12  C   -0.329977
    13  C    0.226474
    14  H   -0.449704
    15  S    0.594422
    16  C   -0.120282
    17  C    0.503075
    18  H   -0.355171
    19  H   -0.296757
    20  H   -0.144733
    21  H    0.155504
    22  H    0.090728
 Sum of Mulliken charges =  -0.00000

 Dipole moment (field-independent basis, Debye):
    X=             -0.3921    Y=              1.0335    Z=              0.3623  Tot=              1.1632
 Quadrupole moment (field-independent basis, Debye-Ang):
   XX=            -87.5332   YY=            -99.4961   ZZ=           -110.6953
   XY=             -6.1490   XZ=              0.9975   YZ=             -0.9607

 Normal termination of Gaussian 16 at Wed Oct 27 07:18:06 2021.
