 Gaussian 16, Revision C.01,
 Gaussian 16:  ES64L-G16RevC.01  3-Jul-2019

 ----------------------------------
 # opt=modredundant mp2/aug-cc-pvdz
 ----------------------------------

 -------------
 pBTTT_100.pdb
 -------------
 Symbolic Z-matrix:
 Charge =  0 Multiplicity = 1

 SCF Done:  E(RHF) =  -1613.81467390     A.U. after   17 cycles
 E2 =    -0.1926673495D+01 EUMP2 =    -0.16157413474005D+04
 SCF Done:  E(RHF) =  -1613.80605034     A.U. after   14 cycles
 E2 =    -0.1944499158D+01 EUMP2 =    -0.16157505494935D+04
 SCF Done:  E(RHF) =  -1613.80407287     A.U. after   14 cycles
 E2 =    -0.1947079821D+01 EUMP2 =    -0.16157511526954D+04
 SCF Done:  E(RHF) =  -1613.80343257     A.U. after   13 cycles
 E2 =    -0.1947790198D+01 EUMP2 =    -0.16157512227718D+04
 SCF Done:  E(RHF) =  -1613.80353989     A.U. after   11 cycles
 E2 =    -0.1947687375D+01 EUMP2 =    -0.16157512272608D+04
 SCF Done:  E(RHF) =  -1613.80362133     A.U. after   10 cycles
 E2 =    -0.1947609234D+01 EUMP2 =    -0.16157512305587D+04
 SCF Done:  E(RHF) =  -1613.80365511     A.U. after   10 cycles
 E2 =    -0.1947576423D+01 EUMP2 =    -0.16157512315338D+04
 SCF Done:  E(RHF) =  -1613.80366439     A.U. after   10 cycles
 E2 =    -0.1947567646D+01 EUMP2 =    -0.16157512320341D+04
 SCF Done:  E(RHF) =  -1613.80362713     A.U. after   10 cycles
 E2 =    -0.1947605550D+01 EUMP2 =    -0.16157512326834D+04
 SCF Done:  E(RHF) =  -1613.80359751     A.U. after   10 cycles
 E2 =    -0.1947635920D+01 EUMP2 =    -0.16157512334288D+04
 SCF Done:  E(RHF) =  -1613.80359833     A.U. after    9 cycles
 E2 =    -0.1947635357D+01 EUMP2 =    -0.16157512336842D+04
 SCF Done:  E(RHF) =  -1613.80361589     A.U. after   10 cycles
 E2 =    -0.1947617978D+01 EUMP2 =    -0.16157512338647D+04
 SCF Done:  E(RHF) =  -1613.80362115     A.U. after    9 cycles
 E2 =    -0.1947612724D+01 EUMP2 =    -0.16157512338720D+04
 Optimization completed.
    -- Stationary point found.

                         Standard orientation:
 ---------------------------------------------------------------------
 Center     Atomic      Atomic             Coordinates (Angstroms)
 Number     Number       Type             X           Y           Z
 ---------------------------------------------------------------------
      1          6           0       -3.957404    0.733520    0.229942
      2          6           0       -2.571091    0.985120    0.457941
      3          6           0       -1.762365   -0.001185   -0.124014
      4          6           0       -2.021644    2.155217    1.233702
      5          6           0       -4.194007   -0.428392   -0.498995
      6          1           0       -4.763398    1.376844    0.593189
      7         16           0       -2.717571   -1.224060   -0.921174
      8          1           0       -5.150916   -0.850843   -0.807809
      9          6           0       -0.301686   -0.081248   -0.085282
     10         16           0        0.495750   -1.162126    1.059193
     11          6           0        2.068667   -0.617904    0.547717
     12          6           0        1.952000    0.369926   -0.463480
     13          6           0        0.609976    0.673751   -0.824126
     14          1           0        0.288635    1.393287   -1.580093
     15         16           0        3.525046    0.912805   -0.978695
     16          6           0        4.308814   -0.171898    0.147632
     17          6           0        3.416468   -0.929516    0.895637
     18          1           0        5.398589   -0.188601    0.196484
     19          1           0        3.730595   -1.657606    1.645482
     20          1           0       -2.484579    2.213876    2.231948
     21          1           0       -2.224260    3.105624    0.712947
     22          1           0       -0.932621    2.057172    1.358620
 ---------------------------------------------------------------------

 The electronic state is 1-A.
 Alpha  occ. eigenvalues --  -91.99533 -91.99397 -91.98909 -11.29246 -11.28557
 Alpha  occ. eigenvalues --  -11.28096 -11.27961 -11.27960 -11.27807 -11.26579
 Alpha  occ. eigenvalues --  -11.26568 -11.26126 -11.25042 -11.23976  -8.99643
 Alpha  occ. eigenvalues --   -8.99479  -8.99059  -6.67809  -6.67728  -6.67640
 Alpha  occ. eigenvalues --   -6.67554  -6.67532  -6.67359  -6.67219  -6.67128
 Alpha  occ. eigenvalues --   -6.66951  -1.20609  -1.17651  -1.11836  -1.03443
 Alpha  occ. eigenvalues --   -1.02649  -1.01082  -0.94952  -0.94434  -0.91143
 Alpha  occ. eigenvalues --   -0.81912  -0.76822  -0.75907  -0.72485  -0.69646
 Alpha  occ. eigenvalues --   -0.66679  -0.66209  -0.60249  -0.58748  -0.58525
 Alpha  occ. eigenvalues --   -0.56797  -0.55662  -0.54104  -0.53514  -0.52405
 Alpha  occ. eigenvalues --   -0.51712  -0.50799  -0.49411  -0.47550  -0.46287
 Alpha  occ. eigenvalues --   -0.45687  -0.38960  -0.34275  -0.32483  -0.31877
 Alpha  occ. eigenvalues --   -0.29120
 Alpha virt. eigenvalues --    0.03427   0.03502   0.04157   0.04658   0.04898
 Alpha virt. eigenvalues --    0.05598   0.06362   0.07367   0.07537   0.08412
 Alpha virt. eigenvalues --    0.08774   0.08906   0.09492   0.10276   0.10768

 Mulliken charges:
               1
     1  C    0.655044
     2  C   -1.015660
     3  C    0.856649
     4  C    0.379203
     5  C   -0.383380
     6  H   -0.433570
     7  S    0.342885
     8  H   -0.332078
     9  C    0.392080
    10  S    0.388899
    11  C   -0.729641
    12  C   -0.333802
    13  C    0.076716
    14  H   -0.438145
    15  S    0.637906
    16  C   -0.086012
    17  C    0.625327
    18  H   -0.352900
    19  H   -0.297177
    20  H    0.041067
    21  H    0.096646
    22  H   -0.090057
 Sum of Mulliken charges =  -0.00000

 Dipole moment (field-independent basis, Debye):
    X=             -0.2768    Y=              1.0268    Z=              0.6425  Tot=              1.2425
 Quadrupole moment (field-independent basis, Debye-Ang):
   XX=            -87.6671   YY=           -103.8927   ZZ=           -106.3534
   XY=             -4.9102   XZ=              2.3446   YZ=             -1.4776

 Normal termination of Gaussian 16 at Wed Oct 27 05:46:57 2021.
