 Gaussian 16, Revision C.01,
 Gaussian 16:  ES64L-G16RevC.01  3-Jul-2019

 ----------------------------------
 # opt=modredundant mp2/aug-cc-pvdz
 ----------------------------------

 ------------
 pBTTT_30.pdb
 ------------
 Symbolic Z-matrix:
 Charge =  0 Multiplicity = 1

 SCF Done:  E(RHF) =  -1613.81307501     A.U. after   17 cycles
 E2 =    -0.1929081255D+01 EUMP2 =    -0.16157421562644D+04
 SCF Done:  E(RHF) =  -1613.80433079     A.U. after   15 cycles
 E2 =    -0.1947143817D+01 EUMP2 =    -0.16157514746066D+04
 SCF Done:  E(RHF) =  -1613.80261524     A.U. after   13 cycles
 E2 =    -0.1949410597D+01 EUMP2 =    -0.16157520258342D+04
 SCF Done:  E(RHF) =  -1613.80197335     A.U. after   13 cycles
 E2 =    -0.1950141375D+01 EUMP2 =    -0.16157521147235D+04
 SCF Done:  E(RHF) =  -1613.80201678     A.U. after   12 cycles
 E2 =    -0.1950121349D+01 EUMP2 =    -0.16157521381284D+04
 SCF Done:  E(RHF) =  -1613.80214093     A.U. after   13 cycles
 E2 =    -0.1950010836D+01 EUMP2 =    -0.16157521517647D+04
 SCF Done:  E(RHF) =  -1613.80227250     A.U. after   12 cycles
 E2 =    -0.1949888796D+01 EUMP2 =    -0.16157521612998D+04
 SCF Done:  E(RHF) =  -1613.80225036     A.U. after   11 cycles
 E2 =    -0.1949912655D+01 EUMP2 =    -0.16157521630165D+04
 SCF Done:  E(RHF) =  -1613.80221615     A.U. after   10 cycles
 E2 =    -0.1949947156D+01 EUMP2 =    -0.16157521633092D+04
 Optimization completed.
    -- Stationary point found.

                         Standard orientation:
 ---------------------------------------------------------------------
 Center     Atomic      Atomic             Coordinates (Angstroms)
 Number     Number       Type             X           Y           Z
 ---------------------------------------------------------------------
      1          6           0        4.046758    0.293519    0.168081
      2          6           0        2.732943    0.840872    0.258097
      3          6           0        1.746704   -0.132648    0.014134
      4          6           0        2.454720    2.285424    0.597378
      5          6           0        4.069273   -1.062887   -0.140340
      6          1           0        4.956052    0.876982    0.335806
      7         16           0        2.468569   -1.685145   -0.342888
      8          1           0        4.931283   -1.720379   -0.256988
      9          6           0        0.296915   -0.024287    0.019487
     10         16           0       -0.507179    1.492068   -0.412338
     11          6           0       -2.078780    0.767240   -0.226764
     12          6           0       -1.962941   -0.595449    0.144567
     13          6           0       -0.624043   -1.043736    0.291575
     14          1           0       -0.315139   -2.046473    0.595657
     15         16           0       -3.537248   -1.312180    0.352296
     16          6           0       -4.319332    0.199010   -0.055284
     17          6           0       -3.424470    1.223881   -0.338389
     18          1           0       -5.409267    0.245560   -0.069376
     19          1           0       -3.737056    2.233083   -0.612387
     20          1           0        3.350917    2.746113    1.040135
     21          1           0        1.625991    2.375193    1.317741
     22          1           0        2.184448    2.868397   -0.298967
 ---------------------------------------------------------------------

 The electronic state is 1-A.
 Alpha  occ. eigenvalues --  -91.99501 -91.99457 -91.99053 -11.29745 -11.28422
 Alpha  occ. eigenvalues --  -11.28347 -11.28065 -11.27966 -11.27916 -11.26549
 Alpha  occ. eigenvalues --  -11.26337 -11.26256 -11.25243 -11.24269  -8.99614
 Alpha  occ. eigenvalues --   -8.99568  -8.99226  -6.67778  -6.67733  -6.67694
 Alpha  occ. eigenvalues --   -6.67653  -6.67495  -6.67456  -6.67391  -6.67298
 Alpha  occ. eigenvalues --   -6.67118  -1.20684  -1.17790  -1.11857  -1.03774
 Alpha  occ. eigenvalues --   -1.02681  -1.01382  -0.94925  -0.94346  -0.91506
 Alpha  occ. eigenvalues --   -0.82110  -0.77407  -0.76158  -0.71620  -0.69980
 Alpha  occ. eigenvalues --   -0.66907  -0.66296  -0.60000  -0.58976  -0.58737
 Alpha  occ. eigenvalues --   -0.56851  -0.55882  -0.54448  -0.53639  -0.52204
 Alpha  occ. eigenvalues --   -0.51945  -0.51264  -0.49688  -0.47224  -0.46359
 Alpha  occ. eigenvalues --   -0.45953  -0.39352  -0.34722  -0.34274  -0.32282
 Alpha  occ. eigenvalues --   -0.26628
 Alpha virt. eigenvalues --    0.03453   0.03492   0.04053   0.04754   0.04910
 Alpha virt. eigenvalues --    0.05458   0.05957   0.06101   0.07465   0.08476
 Alpha virt. eigenvalues --    0.09295   0.09879   0.10314   0.10419   0.10784

 Mulliken charges:
               1
     1  C    0.461137
     2  C   -0.444585
     3  C    0.683858
     4  C    0.435259
     5  C   -0.381218
     6  H   -0.465992
     7  S    0.431027
     8  H   -0.345262
     9  C   -0.050679
    10  S    0.492418
    11  C   -0.674097
    12  C   -0.241759
    13  C    0.249409
    14  H   -0.481240
    15  S    0.561979
    16  C   -0.170266
    17  C    0.471253
    18  H   -0.358737
    19  H   -0.299028
    20  H   -0.199208
    21  H    0.156390
    22  H    0.169343
 Sum of Mulliken charges =  -0.00000

 Dipole moment (field-independent basis, Debye):
    X=              0.5827    Y=              1.1245    Z=              0.3163  Tot=              1.3053
 Quadrupole moment (field-independent basis, Debye-Ang):
   XX=            -87.0388   YY=            -98.7889   ZZ=           -111.5281
   XY=             -2.4076   XZ=              1.8358   YZ=             -0.7009

 Normal termination of Gaussian 16 at Wed Oct 27 03:47:38 2021.
