 Gaussian 16, Revision C.01,
 Gaussian 16:  ES64L-G16RevC.01  3-Jul-2019

 ----------------------------------
 # opt=modredundant mp2/aug-cc-pvdz
 ----------------------------------

 --------------
 pBTTT_-100.pdb
 --------------
 Symbolic Z-matrix:
 Charge =  0 Multiplicity = 1

 SCF Done:  E(RHF) =  -1613.81467377     A.U. after   17 cycles
 E2 =    -0.1926596760D+01 EUMP2 =    -0.16157412705331D+04
 SCF Done:  E(RHF) =  -1613.80606680     A.U. after   14 cycles
 E2 =    -0.1944475950D+01 EUMP2 =    -0.16157505427475D+04
 SCF Done:  E(RHF) =  -1613.80407132     A.U. after   14 cycles
 E2 =    -0.1947080934D+01 EUMP2 =    -0.16157511522502D+04
 SCF Done:  E(RHF) =  -1613.80342979     A.U. after   13 cycles
 E2 =    -0.1947792607D+01 EUMP2 =    -0.16157512223946D+04
 SCF Done:  E(RHF) =  -1613.80353073     A.U. after   11 cycles
 E2 =    -0.1947695922D+01 EUMP2 =    -0.16157512266560D+04
 SCF Done:  E(RHF) =  -1613.80361817     A.U. after   11 cycles
 E2 =    -0.1947612280D+01 EUMP2 =    -0.16157512304476D+04
 SCF Done:  E(RHF) =  -1613.80365366     A.U. after   10 cycles
 E2 =    -0.1947577772D+01 EUMP2 =    -0.16157512314370D+04
 SCF Done:  E(RHF) =  -1613.80366325     A.U. after   10 cycles
 E2 =    -0.1947568635D+01 EUMP2 =    -0.16157512318882D+04
 SCF Done:  E(RHF) =  -1613.80362715     A.U. after    9 cycles
 E2 =    -0.1947605354D+01 EUMP2 =    -0.16157512325053D+04
 SCF Done:  E(RHF) =  -1613.80359843     A.U. after   10 cycles
 E2 =    -0.1947634799D+01 EUMP2 =    -0.16157512332295D+04
 SCF Done:  E(RHF) =  -1613.80359875     A.U. after    9 cycles
 E2 =    -0.1947634730D+01 EUMP2 =    -0.16157512334827D+04
 SCF Done:  E(RHF) =  -1613.80361593     A.U. after   10 cycles
 E2 =    -0.1947617738D+01 EUMP2 =    -0.16157512336658D+04
 SCF Done:  E(RHF) =  -1613.80362114     A.U. after    9 cycles
 E2 =    -0.1947612536D+01 EUMP2 =    -0.16157512336725D+04
 Optimization completed.
    -- Stationary point found.

                         Standard orientation:
 ---------------------------------------------------------------------
 Center     Atomic      Atomic             Coordinates (Angstroms)
 Number     Number       Type             X           Y           Z
 ---------------------------------------------------------------------
      1          6           0        3.957422    0.733478    0.229883
      2          6           0        2.571119    0.985098    0.457916
      3          6           0        1.762362   -0.001196   -0.124015
      4          6           0        2.021710    2.155209    1.233681
      5          6           0        4.193988   -0.428443   -0.499053
      6          1           0        4.763434    1.376796    0.593100
      7         16           0        2.717531   -1.224096   -0.921187
      8          1           0        5.150884   -0.850909   -0.807891
      9          6           0        0.301684   -0.081232   -0.085257
     10         16           0       -0.495750   -1.161918    1.059402
     11          6           0       -2.068668   -0.617795    0.547822
     12          6           0       -1.952003    0.369863   -0.463542
     13          6           0       -0.609979    0.673633   -0.824236
     14          1           0       -0.288641    1.393043   -1.580325
     15         16           0       -3.525048    0.912646   -0.978859
     16          6           0       -4.308816   -0.171879    0.147642
     17          6           0       -3.416470   -0.929364    0.895781
     18          1           0       -5.398591   -0.188583    0.196487
     19          1           0       -3.730595   -1.657332    1.645745
     20          1           0        2.484544    2.213766    2.231981
     21          1           0        0.932664    2.057265    1.358483
     22          1           0        2.224482    3.105623    0.712999
 ---------------------------------------------------------------------

 The electronic state is 1-A.
 Alpha  occ. eigenvalues --  -91.99533 -91.99397 -91.98909 -11.29246 -11.28557
 Alpha  occ. eigenvalues --  -11.28096 -11.27961 -11.27960 -11.27807 -11.26580
 Alpha  occ. eigenvalues --  -11.26568 -11.26126 -11.25042 -11.23976  -8.99643
 Alpha  occ. eigenvalues --   -8.99479  -8.99059  -6.67809  -6.67728  -6.67640
 Alpha  occ. eigenvalues --   -6.67554  -6.67532  -6.67359  -6.67219  -6.67128
 Alpha  occ. eigenvalues --   -6.66951  -1.20609  -1.17651  -1.11836  -1.03443
 Alpha  occ. eigenvalues --   -1.02649  -1.01082  -0.94952  -0.94434  -0.91143
 Alpha  occ. eigenvalues --   -0.81912  -0.76823  -0.75907  -0.72485  -0.69646
 Alpha  occ. eigenvalues --   -0.66679  -0.66209  -0.60249  -0.58748  -0.58525
 Alpha  occ. eigenvalues --   -0.56797  -0.55662  -0.54104  -0.53514  -0.52405
 Alpha  occ. eigenvalues --   -0.51712  -0.50799  -0.49411  -0.47550  -0.46287
 Alpha  occ. eigenvalues --   -0.45687  -0.38960  -0.34275  -0.32483  -0.31877
 Alpha  occ. eigenvalues --   -0.29120
 Alpha virt. eigenvalues --    0.03427   0.03502   0.04157   0.04658   0.04898
 Alpha virt. eigenvalues --    0.05598   0.06362   0.07367   0.07537   0.08412
 Alpha virt. eigenvalues --    0.08774   0.08906   0.09492   0.10276   0.10768

 Mulliken charges:
               1
     1  C    0.655063
     2  C   -1.015764
     3  C    0.856698
     4  C    0.379209
     5  C   -0.383373
     6  H   -0.433571
     7  S    0.342874
     8  H   -0.332076
     9  C    0.392139
    10  S    0.388876
    11  C   -0.729647
    12  C   -0.333812
    13  C    0.076689
    14  H   -0.438143
    15  S    0.637903
    16  C   -0.086007
    17  C    0.625362
    18  H   -0.352901
    19  H   -0.297176
    20  H    0.041116
    21  H   -0.090075
    22  H    0.096617
 Sum of Mulliken charges =  -0.00000

 Dipole moment (field-independent basis, Debye):
    X=              0.2768    Y=              1.0268    Z=              0.6425  Tot=              1.2425
 Quadrupole moment (field-independent basis, Debye-Ang):
   XX=            -87.6670   YY=           -103.8940   ZZ=           -106.3520
   XY=              4.9097   XZ=             -2.3451   YZ=             -1.4776

 Normal termination of Gaussian 16 at Wed Oct 27 01:33:20 2021.
