 Gaussian 16, Revision C.01,
 Gaussian 16:  ES64L-G16RevC.01  3-Jul-2019

 ----------------------------------
 # opt=modredundant mp2/aug-cc-pvdz
 ----------------------------------

 -------------
 pBTTT_-60.pdb
 -------------
 Symbolic Z-matrix:
 Charge =  0 Multiplicity = 1

 SCF Done:  E(RHF) =  -1613.81471857     A.U. after   17 cycles
 E2 =    -0.1927054518D+01 EUMP2 =    -0.16157417730855D+04
 SCF Done:  E(RHF) =  -1613.80613539     A.U. after   15 cycles
 E2 =    -0.1945122055D+01 EUMP2 =    -0.16157512574454D+04
 SCF Done:  E(RHF) =  -1613.80421284     A.U. after   13 cycles
 E2 =    -0.1947611975D+01 EUMP2 =    -0.16157518248117D+04
 SCF Done:  E(RHF) =  -1613.80366048     A.U. after   13 cycles
 E2 =    -0.1948232745D+01 EUMP2 =    -0.16157518932237D+04
 SCF Done:  E(RHF) =  -1613.80368299     A.U. after   12 cycles
 E2 =    -0.1948224566D+01 EUMP2 =    -0.16157519075548D+04
 SCF Done:  E(RHF) =  -1613.80378576     A.U. after   12 cycles
 E2 =    -0.1948134146D+01 EUMP2 =    -0.16157519199021D+04
 SCF Done:  E(RHF) =  -1613.80399922     A.U. after   13 cycles
 E2 =    -0.1947945076D+01 EUMP2 =    -0.16157519443007D+04
 SCF Done:  E(RHF) =  -1613.80395896     A.U. after   12 cycles
 E2 =    -0.1948001032D+01 EUMP2 =    -0.16157519599953D+04
 SCF Done:  E(RHF) =  -1613.80378453     A.U. after   11 cycles
 E2 =    -0.1948185203D+01 EUMP2 =    -0.16157519697345D+04
 SCF Done:  E(RHF) =  -1613.80373532     A.U. after   11 cycles
 E2 =    -0.1948235976D+01 EUMP2 =    -0.16157519712960D+04
 SCF Done:  E(RHF) =  -1613.80373363     A.U. after    9 cycles
 E2 =    -0.1948237746D+01 EUMP2 =    -0.16157519713751D+04
 SCF Done:  E(RHF) =  -1613.80374065     A.U. after    8 cycles
 E2 =    -0.1948230742D+01 EUMP2 =    -0.16157519713890D+04
 Optimization completed.
    -- Stationary point found.

                         Standard orientation:
 ---------------------------------------------------------------------
 Center     Atomic      Atomic             Coordinates (Angstroms)
 Number     Number       Type             X           Y           Z
 ---------------------------------------------------------------------
      1          6           0       -4.021038    0.338604    0.367671
      2          6           0       -2.679868    0.802734    0.511307
      3          6           0       -1.754718   -0.122427    0.003901
      4          6           0       -2.291375    2.114790    1.147331
      5          6           0       -4.113154   -0.916696   -0.227843
      6          1           0       -4.897978    0.897274    0.705884
      7         16           0       -2.551269   -1.537425   -0.634771
      8          1           0       -5.008460   -1.501681   -0.441341
      9          6           0       -0.297880   -0.037933   -0.005983
     10         16           0        0.502707    1.296206   -0.841129
     11          6           0        2.075187    0.664643   -0.439769
     12          6           0        1.956791   -0.546922    0.287852
     13          6           0        0.614848   -0.946408    0.535298
     14          1           0        0.294931   -1.831765    1.088929
     15         16           0        3.529076   -1.176300    0.695414
     16          6           0        4.314549    0.168356   -0.101103
     17          6           0        3.422831    1.075151   -0.660631
     18          1           0        5.404549    0.212960   -0.115655
     19          1           0        3.738062    1.972258   -1.196334
     20          1           0       -2.968725    2.351808    1.982670
     21          1           0       -2.346492    2.944259    0.422738
     22          1           0       -1.261135    2.071840    1.532698
 ---------------------------------------------------------------------

 The electronic state is 1-A.
 Alpha  occ. eigenvalues --  -91.99503 -91.99425 -91.99017 -11.29399 -11.28518
 Alpha  occ. eigenvalues --  -11.28083 -11.27966 -11.27948 -11.27909 -11.26562
 Alpha  occ. eigenvalues --  -11.26534 -11.26098 -11.25113 -11.24024  -8.99615
 Alpha  occ. eigenvalues --   -8.99517  -8.99166  -6.67780  -6.67700  -6.67680
 Alpha  occ. eigenvalues --   -6.67595  -6.67503  -6.67398  -6.67326  -6.67234
 Alpha  occ. eigenvalues --   -6.67057  -1.20638  -1.17697  -1.11849  -1.03482
 Alpha  occ. eigenvalues --   -1.02696  -1.01180  -0.94937  -0.94400  -0.91240
 Alpha  occ. eigenvalues --   -0.81966  -0.77088  -0.76019  -0.72040  -0.69776
 Alpha  occ. eigenvalues --   -0.66734  -0.66229  -0.60068  -0.58897  -0.58530
 Alpha  occ. eigenvalues --   -0.56845  -0.55728  -0.54204  -0.53479  -0.52362
 Alpha  occ. eigenvalues --   -0.51768  -0.50987  -0.49492  -0.47462  -0.46274
 Alpha  occ. eigenvalues --   -0.45813  -0.39072  -0.34368  -0.33192  -0.32223
 Alpha  occ. eigenvalues --   -0.28010
 Alpha virt. eigenvalues --    0.03470   0.03492   0.04164   0.04723   0.04832
 Alpha virt. eigenvalues --    0.05891   0.06033   0.06565   0.07483   0.08523
 Alpha virt. eigenvalues --    0.08751   0.09296   0.10269   0.10386   0.10956

 Mulliken charges:
               1
     1  C    0.479863
     2  C   -0.590113
     3  C    0.687325
     4  C    0.357306
     5  C   -0.326749
     6  H   -0.439612
     7  S    0.348350
     8  H   -0.333310
     9  C    0.217884
    10  S    0.366547
    11  C   -0.659257
    12  C   -0.295619
    13  C    0.144289
    14  H   -0.444574
    15  S    0.620422
    16  C   -0.128989
    17  C    0.565384
    18  H   -0.354329
    19  H   -0.295442
    20  H   -0.068109
    21  H    0.128075
    22  H    0.020659
 Sum of Mulliken charges =  -0.00000

 Dipole moment (field-independent basis, Debye):
    X=             -0.4034    Y=              0.9946    Z=              0.5775  Tot=              1.2188
 Quadrupole moment (field-independent basis, Debye-Ang):
   XX=            -87.3600   YY=           -101.3805   ZZ=           -108.8779
   XY=              2.3284   XZ=             -3.4896   YZ=             -1.2524

 Normal termination of Gaussian 16 at Wed Oct 27 02:50:51 2021.
