 Gaussian 16, Revision C.01,
 Gaussian 16:  ES64L-G16RevC.01  3-Jul-2019

 ----------------------------------
 # opt=modredundant mp2/aug-cc-pvdz
 ----------------------------------

 ------------
 pBTTT_40.pdb
 ------------
 Symbolic Z-matrix:
 Charge =  0 Multiplicity = 1

 SCF Done:  E(RHF) =  -1613.81377895     A.U. after   17 cycles
 E2 =    -0.1928378111D+01 EUMP2 =    -0.16157421570587D+04
 SCF Done:  E(RHF) =  -1613.80510898     A.U. after   15 cycles
 E2 =    -0.1946402427D+01 EUMP2 =    -0.16157515114031D+04
 SCF Done:  E(RHF) =  -1613.80331073     A.U. after   13 cycles
 E2 =    -0.1948766574D+01 EUMP2 =    -0.16157520773064D+04
 SCF Done:  E(RHF) =  -1613.80266141     A.U. after   14 cycles
 E2 =    -0.1949515894D+01 EUMP2 =    -0.16157521773005D+04
 SCF Done:  E(RHF) =  -1613.80261218     A.U. after   12 cycles
 E2 =    -0.1949600628D+01 EUMP2 =    -0.16157522128096D+04
 SCF Done:  E(RHF) =  -1613.80270532     A.U. after   13 cycles
 E2 =    -0.1949531238D+01 EUMP2 =    -0.16157522365556D+04
 SCF Done:  E(RHF) =  -1613.80294632     A.U. after   12 cycles
 E2 =    -0.1949317426D+01 EUMP2 =    -0.16157522637504D+04
 SCF Done:  E(RHF) =  -1613.80292607     A.U. after   12 cycles
 E2 =    -0.1949343145D+01 EUMP2 =    -0.16157522692194D+04
 SCF Done:  E(RHF) =  -1613.80286719     A.U. after   10 cycles
 E2 =    -0.1949403040D+01 EUMP2 =    -0.16157522702334D+04
 SCF Done:  E(RHF) =  -1613.80284338     A.U. after    9 cycles
 E2 =    -0.1949426974D+01 EUMP2 =    -0.16157522703589D+04
 Optimization completed.
    -- Stationary point found.

                         Standard orientation:
 ---------------------------------------------------------------------
 Center     Atomic      Atomic             Coordinates (Angstroms)
 Number     Number       Type             X           Y           Z
 ---------------------------------------------------------------------
      1          6           0        4.040283    0.304020    0.230128
      2          6           0        2.720022    0.831341    0.341809
      3          6           0        1.748615   -0.129298    0.010190
      4          6           0        2.412786    2.240192    0.789130
      5          6           0        4.078747   -1.026892   -0.175677
      6          1           0        4.942370    0.879322    0.455383
      7         16           0        2.486898   -1.645991   -0.445548
      8          1           0        4.948803   -1.666791   -0.326089
      9          6           0        0.297228   -0.026242    0.013911
     10         16           0       -0.504884    1.443531   -0.553865
     11          6           0       -2.077200    0.741462   -0.296235
     12          6           0       -1.960638   -0.584346    0.191773
     13          6           0       -0.620800   -1.019345    0.373708
     14          1           0       -0.307346   -1.990812    0.762526
     15         16           0       -3.534437   -1.279121    0.466226
     16          6           0       -4.317430    0.191157   -0.068470
     17          6           0       -3.423383    1.187044   -0.442728
     18          1           0       -5.407398    0.236871   -0.082717
     19          1           0       -3.736643    2.168725   -0.802470
     20          1           0        3.256038    2.643983    1.370176
     21          1           0        1.509609    2.268523    1.418795
     22          1           0        2.243942    2.910895   -0.069843
 ---------------------------------------------------------------------

 The electronic state is 1-A.
 Alpha  occ. eigenvalues --  -91.99478 -91.99475 -91.99056 -11.29623 -11.28459
 Alpha  occ. eigenvalues --  -11.28207 -11.28070 -11.27953 -11.27929 -11.26557
 Alpha  occ. eigenvalues --  -11.26405 -11.26184 -11.25203 -11.24179  -8.99586
 Alpha  occ. eigenvalues --   -8.99586  -8.99219  -6.67752  -6.67750  -6.67671
 Alpha  occ. eigenvalues --   -6.67666  -6.67475  -6.67467  -6.67382  -6.67290
 Alpha  occ. eigenvalues --   -6.67111  -1.20674  -1.17760  -1.11860  -1.03667
 Alpha  occ. eigenvalues --   -1.02685  -1.01324  -0.94935  -0.94359  -0.91413
 Alpha  occ. eigenvalues --   -0.82063  -0.77302  -0.76125  -0.71750  -0.69906
 Alpha  occ. eigenvalues --   -0.66839  -0.66272  -0.60014  -0.58952  -0.58643
 Alpha  occ. eigenvalues --   -0.56847  -0.55842  -0.54354  -0.53573  -0.52266
 Alpha  occ. eigenvalues --   -0.51896  -0.51169  -0.49634  -0.47313  -0.46280
 Alpha  occ. eigenvalues --   -0.45983  -0.39250  -0.34568  -0.34034  -0.32261
 Alpha  occ. eigenvalues --   -0.27004
 Alpha virt. eigenvalues --    0.03465   0.03495   0.04093   0.04779   0.04849
 Alpha virt. eigenvalues --    0.05734   0.05968   0.06082   0.07485   0.08493
 Alpha virt. eigenvalues --    0.09105   0.09683   0.10357   0.10512   0.10794

 Mulliken charges:
               1
     1  C    0.463116
     2  C   -0.476920
     3  C    0.722488
     4  C    0.412301
     5  C   -0.360173
     6  H   -0.456644
     7  S    0.394787
     8  H   -0.337649
     9  C   -0.004867
    10  S    0.433616
    11  C   -0.631483
    12  C   -0.278681
    13  C    0.217907
    14  H   -0.464158
    15  S    0.584140
    16  C   -0.155747
    17  C    0.493086
    18  H   -0.356670
    19  H   -0.297872
    20  H   -0.169672
    21  H    0.122550
    22  H    0.146545
 Sum of Mulliken charges =  -0.00000

 Dipole moment (field-independent basis, Debye):
    X=              0.5148    Y=              1.0836    Z=              0.4103  Tot=              1.2679
 Quadrupole moment (field-independent basis, Debye-Ang):
   XX=            -87.1681   YY=            -99.4808   ZZ=           -110.8087
   XY=             -2.4397   XZ=              2.4044   YZ=             -0.9053

 Normal termination of Gaussian 16 at Wed Oct 27 05:21:31 2021.
