 Gaussian 16, Revision C.01,
 Gaussian 16:  ES64L-G16RevC.01  3-Jul-2019

 ----------------------------------
 # opt=modredundant mp2/aug-cc-pvdz
 ----------------------------------

 ------------
 pBTTT_-5.pdb
 ------------
 Symbolic Z-matrix:
 Charge =  0 Multiplicity = 1

 SCF Done:  E(RHF) =  -1613.81183795     A.U. after   17 cycles
 E2 =    -0.1930168408D+01 EUMP2 =    -0.16157420063563D+04
 SCF Done:  E(RHF) =  -1613.80289983     A.U. after   16 cycles
 E2 =    -0.1948338405D+01 EUMP2 =    -0.16157512382394D+04
 SCF Done:  E(RHF) =  -1613.80138208     A.U. after   14 cycles
 E2 =    -0.1950342489D+01 EUMP2 =    -0.16157517245656D+04
 SCF Done:  E(RHF) =  -1613.80072964     A.U. after   14 cycles
 E2 =    -0.1951054685D+01 EUMP2 =    -0.16157517843280D+04
 SCF Done:  E(RHF) =  -1613.80103795     A.U. after   13 cycles
 E2 =    -0.1950756966D+01 EUMP2 =    -0.16157517949199D+04
 SCF Done:  E(RHF) =  -1613.80111076     A.U. after   11 cycles
 E2 =    -0.1950685029D+01 EUMP2 =    -0.16157517957893D+04
 SCF Done:  E(RHF) =  -1613.80111156     A.U. after    9 cycles
 E2 =    -0.1950684435D+01 EUMP2 =    -0.16157517959936D+04
 SCF Done:  E(RHF) =  -1613.80109841     A.U. after    9 cycles
 E2 =    -0.1950697649D+01 EUMP2 =    -0.16157517960562D+04
 SCF Done:  E(RHF) =  -1613.80109226     A.U. after    9 cycles
 E2 =    -0.1950703822D+01 EUMP2 =    -0.16157517960805D+04
 Optimization completed.
    -- Stationary point found.

                         Standard orientation:
 ---------------------------------------------------------------------
 Center     Atomic      Atomic             Coordinates (Angstroms)
 Number     Number       Type             X           Y           Z
 ---------------------------------------------------------------------
      1          6           0       -4.053375    0.291818    0.026625
      2          6           0       -2.743172    0.855887    0.042477
      3          6           0       -1.745174   -0.138131    0.004119
      4          6           0       -2.492680    2.343040    0.095789
      5          6           0       -4.066810   -1.096643   -0.024673
      6          1           0       -4.966295    0.892590    0.053253
      7         16           0       -2.459853   -1.736266   -0.057569
      8          1           0       -4.922772   -1.771622   -0.044463
      9          6           0       -0.296632   -0.027289    0.006670
     10         16           0        0.513336    1.549653   -0.064448
     11          6           0        2.082647    0.800308   -0.038140
     12          6           0        1.966877   -0.609985    0.023385
     13          6           0        0.628939   -1.079206    0.050694
     14          1           0        0.328884   -2.128344    0.102882
     15         16           0        3.541317   -1.355785    0.056966
     16          6           0        4.323276    0.208564   -0.010756
     17          6           0        3.427926    1.270520   -0.056688
     18          1           0        5.413181    0.257220   -0.014263
     19          1           0        3.740069    2.315397   -0.102142
     20          1           0       -3.450842    2.879533    0.166784
     21          1           0       -1.970074    2.699498   -0.807587
     22          1           0       -1.879858    2.620782    0.969335
 ---------------------------------------------------------------------

 The electronic state is 1-A.
 Alpha  occ. eigenvalues --  -91.99537 -91.99420 -91.99033 -11.29956 -11.28595
 Alpha  occ. eigenvalues --  -11.28348 -11.28075 -11.28063 -11.27798 -11.26524
 Alpha  occ. eigenvalues --  -11.26414 -11.26229 -11.25312 -11.24412  -8.99651
 Alpha  occ. eigenvalues --   -8.99530  -8.99227  -6.67815  -6.67732  -6.67696
 Alpha  occ. eigenvalues --   -6.67615  -6.67530  -6.67419  -6.67396  -6.67302
 Alpha  occ. eigenvalues --   -6.67120  -1.20684  -1.17844  -1.11836  -1.03964
 Alpha  occ. eigenvalues --   -1.02680  -1.01463  -0.94894  -0.94341  -0.91663
 Alpha  occ. eigenvalues --   -0.82188  -0.77580  -0.76193  -0.71425  -0.70117
 Alpha  occ. eigenvalues --   -0.67049  -0.66336  -0.59985  -0.59013  -0.58950
 Alpha  occ. eigenvalues --   -0.56862  -0.55898  -0.54637  -0.53766  -0.52229
 Alpha  occ. eigenvalues --   -0.51727  -0.51578  -0.49730  -0.47036  -0.46610
 Alpha  occ. eigenvalues --   -0.45739  -0.39547  -0.35035  -0.34509  -0.32323
 Alpha  occ. eigenvalues --   -0.26119
 Alpha virt. eigenvalues --    0.03404   0.03478   0.03971   0.04726   0.04987
 Alpha virt. eigenvalues --    0.05083   0.06043   0.06118   0.07386   0.08398
 Alpha virt. eigenvalues --    0.09644   0.09816   0.10315   0.10693   0.10835

 Mulliken charges:
               1
     1  C    0.481903
     2  C   -0.450650
     3  C    0.412666
     4  C    0.514036
     5  C   -0.400088
     6  H   -0.491071
     7  S    0.600826
     8  H   -0.371011
     9  C   -0.040646
    10  S    0.531214
    11  C   -0.751777
    12  C   -0.120594
    13  C    0.285209
    14  H   -0.503825
    15  S    0.500657
    16  C   -0.209455
    17  C    0.488779
    18  H   -0.367502
    19  H   -0.302745
    20  H   -0.219983
    21  H    0.207684
    22  H    0.206372
 Sum of Mulliken charges =  -0.00000

 Dipole moment (field-independent basis, Debye):
    X=             -0.7151    Y=              1.1861    Z=              0.0515  Tot=              1.3860
 Quadrupole moment (field-independent basis, Debye-Ang):
   XX=            -86.7908   YY=            -97.8362   ZZ=           -112.5484
   XY=              2.3042   XZ=             -0.3023   YZ=             -0.1185

 Normal termination of Gaussian 16 at Wed Oct 27 03:38:22 2021.
