 Gaussian 16, Revision C.01,
 Gaussian 16:  ES64L-G16RevC.01  3-Jul-2019

 ----------------------------------
 # opt=modredundant mp2/aug-cc-pvdz
 ----------------------------------

 -------------
 pBTTT_-95.pdb
 -------------
 Symbolic Z-matrix:
 Charge =  0 Multiplicity = 1

 SCF Done:  E(RHF) =  -1613.81207667     A.U. after   17 cycles
 E2 =    -0.1932865640D+01 EUMP2 =    -0.16157449423085D+04
 SCF Done:  E(RHF) =  -1613.80435040     A.U. after   14 cycles
 E2 =    -0.1945668464D+01 EUMP2 =    -0.16157500188657D+04
 SCF Done:  E(RHF) =  -1613.80268432     A.U. after   14 cycles
 E2 =    -0.1947768923D+01 EUMP2 =    -0.16157504532431D+04
 SCF Done:  E(RHF) =  -1613.80230512     A.U. after   12 cycles
 E2 =    -0.1948193356D+01 EUMP2 =    -0.16157504984739D+04
 SCF Done:  E(RHF) =  -1613.80230014     A.U. after   11 cycles
 E2 =    -0.1948205994D+01 EUMP2 =    -0.16157505061297D+04
 SCF Done:  E(RHF) =  -1613.80248648     A.U. after   11 cycles
 E2 =    -0.1948031290D+01 EUMP2 =    -0.16157505177725D+04
 SCF Done:  E(RHF) =  -1613.80290291     A.U. after   12 cycles
 E2 =    -0.1947655494D+01 EUMP2 =    -0.16157505584078D+04
 SCF Done:  E(RHF) =  -1613.80431225     A.U. after   14 cycles
 E2 =    -0.1946325593D+01 EUMP2 =    -0.16157506378415D+04
 SCF Done:  E(RHF) =  -1613.80416143     A.U. after   12 cycles
 E2 =    -0.1946568730D+01 EUMP2 =    -0.16157507301608D+04
 SCF Done:  E(RHF) =  -1613.80398726     A.U. after   13 cycles
 E2 =    -0.1946972542D+01 EUMP2 =    -0.16157509598030D+04
 SCF Done:  E(RHF) =  -1613.80378869     A.U. after   14 cycles
 E2 =    -0.1947280398D+01 EUMP2 =    -0.16157510690860D+04
 SCF Done:  E(RHF) =  -1613.80355753     A.U. after   12 cycles
 E2 =    -0.1947575668D+01 EUMP2 =    -0.16157511331974D+04
 SCF Done:  E(RHF) =  -1613.80358528     A.U. after   12 cycles
 E2 =    -0.1947563015D+01 EUMP2 =    -0.16157511482980D+04
 SCF Done:  E(RHF) =  -1613.80364208     A.U. after   11 cycles
 E2 =    -0.1947509416D+01 EUMP2 =    -0.16157511514967D+04
 SCF Done:  E(RHF) =  -1613.80366653     A.U. after   10 cycles
 E2 =    -0.1947485314D+01 EUMP2 =    -0.16157511518478D+04
 SCF Done:  E(RHF) =  -1613.80366204     A.U. after    9 cycles
 E2 =    -0.1947489956D+01 EUMP2 =    -0.16157511519938D+04
 SCF Done:  E(RHF) =  -1613.80365854     A.U. after    9 cycles
 E2 =    -0.1947493536D+01 EUMP2 =    -0.16157511520803D+04
 Optimization completed.
    -- Stationary point found.

                         Standard orientation:
 ---------------------------------------------------------------------
 Center     Atomic      Atomic             Coordinates (Angstroms)
 Number     Number       Type             X           Y           Z
 ---------------------------------------------------------------------
      1          6           0        3.963753    0.722851    0.182796
      2          6           0        2.580614    0.987850    0.414902
      3          6           0        1.762746   -0.015875   -0.122199
      4          6           0        2.041074    2.187895    1.150728
      5          6           0        4.188560   -0.464241   -0.508402
      6          1           0        4.775659    1.376418    0.513086
      7         16           0        2.705078   -1.268873   -0.886651
      8          1           0        5.140712   -0.899932   -0.813575
      9          6           0        0.301088   -0.083954   -0.072819
     10         16           0       -0.497632   -1.007003    1.201364
     11          6           0       -2.070013   -0.535314    0.620966
     12          6           0       -1.952163    0.307838   -0.513578
     13          6           0       -0.609586    0.563253   -0.908475
     14          1           0       -0.287073    1.178162   -1.751276
     15         16           0       -3.524492    0.778510   -1.097355
     16          6           0       -4.309632   -0.144961    0.163660
     17          6           0       -3.418274   -0.795814    1.007231
     18          1           0       -5.399460   -0.154709    0.213312
     19          1           0       -3.733338   -1.416475    1.847812
     20          1           0        2.299566    3.122012    0.625573
     21          1           0        2.462605    2.246079    2.167350
     22          1           0        0.945062    2.129137    1.231144
 ---------------------------------------------------------------------

 The electronic state is 1-A.
 Alpha  occ. eigenvalues --  -91.99532 -91.99391 -91.98905 -11.29234 -11.28562
 Alpha  occ. eigenvalues --  -11.28098 -11.27957 -11.27953 -11.27782 -11.26590
 Alpha  occ. eigenvalues --  -11.26568 -11.26113 -11.25030 -11.23958  -8.99643
 Alpha  occ. eigenvalues --   -8.99472  -8.99053  -6.67808  -6.67728  -6.67633
 Alpha  occ. eigenvalues --   -6.67548  -6.67532  -6.67353  -6.67214  -6.67123
 Alpha  occ. eigenvalues --   -6.66945  -1.20605  -1.17642  -1.11833  -1.03416
 Alpha  occ. eigenvalues --   -1.02664  -1.01059  -0.94947  -0.94436  -0.91128
 Alpha  occ. eigenvalues --   -0.81899  -0.76840  -0.75882  -0.72461  -0.69647
 Alpha  occ. eigenvalues --   -0.66672  -0.66209  -0.60230  -0.58761  -0.58515
 Alpha  occ. eigenvalues --   -0.56818  -0.55652  -0.54097  -0.53491  -0.52397
 Alpha  occ. eigenvalues --   -0.51695  -0.50805  -0.49396  -0.47554  -0.46284
 Alpha  occ. eigenvalues --   -0.45658  -0.38952  -0.34263  -0.32359  -0.31797
 Alpha  occ. eigenvalues --   -0.29316
 Alpha virt. eigenvalues --    0.03426   0.03495   0.04172   0.04641   0.04893
 Alpha virt. eigenvalues --    0.05625   0.06297   0.07379   0.07635   0.08396
 Alpha virt. eigenvalues --    0.08761   0.08908   0.09406   0.10233   0.10842

 Mulliken charges:
               1
     1  C    0.668217
     2  C   -1.053432
     3  C    0.867940
     4  C    0.382216
     5  C   -0.380711
     6  H   -0.434451
     7  S    0.336630
     8  H   -0.331719
     9  C    0.412115
    10  S    0.377226
    11  C   -0.723527
    12  C   -0.349257
    13  C    0.075489
    14  H   -0.437228
    15  S    0.638140
    16  C   -0.085035
    17  C    0.640718
    18  H   -0.353704
    19  H   -0.297121
    20  H    0.082824
    21  H    0.059493
    22  H   -0.094821
 Sum of Mulliken charges =  -0.00000

 Dipole moment (field-independent basis, Debye):
    X=              0.2780    Y=              1.0583    Z=              0.5868  Tot=              1.2416
 Quadrupole moment (field-independent basis, Debye-Ang):
   XX=            -87.6423   YY=           -104.7961   ZZ=           -105.4545
   XY=              4.5061   XZ=             -2.8470   YZ=             -1.3992

 Normal termination of Gaussian 16 at Wed Oct 27 02:19:14 2021.
