 Gaussian 16, Revision C.01,
 Gaussian 16:  ES64L-G16RevC.01  3-Jul-2019

 ----------------------------------
 # opt=modredundant mp2/aug-cc-pvdz
 ----------------------------------

 -------------
 pBTTT_-35.pdb
 -------------
 Symbolic Z-matrix:
 Charge =  0 Multiplicity = 1

 SCF Done:  E(RHF) =  -1613.81343136     A.U. after   17 cycles
 E2 =    -0.1928773735D+01 EUMP2 =    -0.16157422050977D+04
 SCF Done:  E(RHF) =  -1613.80471009     A.U. after   15 cycles
 E2 =    -0.1946800019D+01 EUMP2 =    -0.16157515101120D+04
 SCF Done:  E(RHF) =  -1613.80296979     A.U. after   13 cycles
 E2 =    -0.1949095434D+01 EUMP2 =    -0.16157520652211D+04
 SCF Done:  E(RHF) =  -1613.80231771     A.U. after   14 cycles
 E2 =    -0.1949844456D+01 EUMP2 =    -0.16157521621668D+04
 SCF Done:  E(RHF) =  -1613.80230976     A.U. after   12 cycles
 E2 =    -0.1949882990D+01 EUMP2 =    -0.16157521927493D+04
 SCF Done:  E(RHF) =  -1613.80241830     A.U. after   13 cycles
 E2 =    -0.1949793346D+01 EUMP2 =    -0.16157522116426D+04
 SCF Done:  E(RHF) =  -1613.80261165     A.U. after   12 cycles
 E2 =    -0.1949617355D+01 EUMP2 =    -0.16157522290077D+04
 SCF Done:  E(RHF) =  -1613.80258585     A.U. after   11 cycles
 E2 =    -0.1949646252D+01 EUMP2 =    -0.16157522320986D+04
 SCF Done:  E(RHF) =  -1613.80254117     A.U. after   10 cycles
 E2 =    -0.1949691398D+01 EUMP2 =    -0.16157522325661D+04
 Optimization completed.
    -- Stationary point found.

                         Standard orientation:
 ---------------------------------------------------------------------
 Center     Atomic      Atomic             Coordinates (Angstroms)
 Number     Number       Type             X           Y           Z
 ---------------------------------------------------------------------
      1          6           0       -4.043848    0.297877    0.198421
      2          6           0       -2.727253    0.836356    0.299937
      3          6           0       -1.747564   -0.131008    0.012515
      4          6           0       -2.435822    2.264295    0.694249
      5          6           0       -4.073186   -1.046728   -0.158925
      6          1           0       -4.950109    0.877146    0.394804
      7         16           0       -2.476336   -1.666838   -0.394989
      8          1           0       -4.938757   -1.696278   -0.292701
      9          6           0       -0.297063   -0.024821    0.017306
     10         16           0        0.505957    1.469772   -0.482986
     11          6           0        2.077941    0.755236   -0.261713
     12          6           0        1.961786   -0.590307    0.168234
     13          6           0        0.622414   -1.032136    0.333363
     14          1           0        0.311110   -2.019933    0.680681
     15         16           0        3.535852   -1.296794    0.409621
     16          6           0        4.318347    0.195247   -0.062135
     17          6           0        3.423886    1.206727   -0.390829
     18          1           0        5.408296    0.241311   -0.076678
     19          1           0        3.736823    2.203099   -0.707956
     20          1           0       -3.307686    2.698370    1.207088
     21          1           0       -2.216054    2.891773   -0.185651
     22          1           0       -1.569031    2.321838    1.371542
 ---------------------------------------------------------------------

 The electronic state is 1-A.
 Alpha  occ. eigenvalues --  -91.99490 -91.99466 -91.99055 -11.29684 -11.28441
 Alpha  occ. eigenvalues --  -11.28277 -11.28067 -11.27945 -11.27937 -11.26553
 Alpha  occ. eigenvalues --  -11.26370 -11.26218 -11.25223 -11.24224  -8.99601
 Alpha  occ. eigenvalues --   -8.99578  -8.99224  -6.67765  -6.67743  -6.67681
 Alpha  occ. eigenvalues --   -6.67663  -6.67482  -6.67466  -6.67388  -6.67295
 Alpha  occ. eigenvalues --   -6.67116  -1.20680  -1.17775  -1.11860  -1.03720
 Alpha  occ. eigenvalues --   -1.02683  -1.01354  -0.94931  -0.94352  -0.91460
 Alpha  occ. eigenvalues --   -0.82086  -0.77355  -0.76143  -0.71683  -0.69943
 Alpha  occ. eigenvalues --   -0.66872  -0.66284  -0.60006  -0.58964  -0.58688
 Alpha  occ. eigenvalues --   -0.56849  -0.55865  -0.54400  -0.53605  -0.52233
 Alpha  occ. eigenvalues --   -0.51925  -0.51216  -0.49664  -0.47269  -0.46311
 Alpha  occ. eigenvalues --   -0.45981  -0.39300  -0.34641  -0.34169  -0.32271
 Alpha  occ. eigenvalues --   -0.26806
 Alpha virt. eigenvalues --    0.03460   0.03494   0.04073   0.04766   0.04880
 Alpha virt. eigenvalues --    0.05590   0.05958   0.06094   0.07476   0.08486
 Alpha virt. eigenvalues --    0.09199   0.09787   0.10355   0.10445   0.10784

 Mulliken charges:
               1
     1  C    0.462590
     2  C   -0.461732
     3  C    0.712061
     4  C    0.424562
     5  C   -0.370943
     6  H   -0.461150
     7  S    0.411640
     8  H   -0.340956
     9  C   -0.034966
    10  S    0.463644
    11  C   -0.649410
    12  C   -0.262760
    13  C    0.234148
    14  H   -0.472845
    15  S    0.573564
    16  C   -0.162836
    17  C    0.480085
    18  H   -0.357619
    19  H   -0.298446
    20  H   -0.186264
    21  H    0.157470
    22  H    0.140160
 Sum of Mulliken charges =  -0.00000

 Dipole moment (field-independent basis, Debye):
    X=             -0.5480    Y=              1.1047    Z=              0.3643  Tot=              1.2859
 Quadrupole moment (field-independent basis, Debye-Ang):
   XX=            -87.1043   YY=            -99.1155   ZZ=           -111.1868
   XY=              2.4275   XZ=             -2.1248   YZ=             -0.8057

 Normal termination of Gaussian 16 at Wed Oct 27 03:01:02 2021.
