 Gaussian 16, Revision C.01,
 Gaussian 16:  ES64L-G16RevC.01  3-Jul-2019

 ----------------------------------
 # opt=modredundant mp2/aug-cc-pvdz
 ----------------------------------

 -------------
 pBTTT_-40.pdb
 -------------
 Symbolic Z-matrix:
 Charge =  0 Multiplicity = 1

 SCF Done:  E(RHF) =  -1613.81377884     A.U. after   17 cycles
 E2 =    -0.1928368480D+01 EUMP2 =    -0.16157421473205D+04
 SCF Done:  E(RHF) =  -1613.80510344     A.U. after   15 cycles
 E2 =    -0.1946413534D+01 EUMP2 =    -0.16157515169706D+04
 SCF Done:  E(RHF) =  -1613.80331332     A.U. after   13 cycles
 E2 =    -0.1948764841D+01 EUMP2 =    -0.16157520781632D+04
 SCF Done:  E(RHF) =  -1613.80266181     A.U. after   14 cycles
 E2 =    -0.1949516063D+01 EUMP2 =    -0.16157521778733D+04
 SCF Done:  E(RHF) =  -1613.80261441     A.U. after   12 cycles
 E2 =    -0.1949598888D+01 EUMP2 =    -0.16157522132953D+04
 SCF Done:  E(RHF) =  -1613.80270327     A.U. after   13 cycles
 E2 =    -0.1949533721D+01 EUMP2 =    -0.16157522369880D+04
 SCF Done:  E(RHF) =  -1613.80294536     A.U. after   12 cycles
 E2 =    -0.1949318414D+01 EUMP2 =    -0.16157522637785D+04
 SCF Done:  E(RHF) =  -1613.80292447     A.U. after   12 cycles
 E2 =    -0.1949344795D+01 EUMP2 =    -0.16157522692596D+04
 SCF Done:  E(RHF) =  -1613.80286622     A.U. after   10 cycles
 E2 =    -0.1949404016D+01 EUMP2 =    -0.16157522702388D+04
 SCF Done:  E(RHF) =  -1613.80284359     A.U. after    9 cycles
 E2 =    -0.1949426768D+01 EUMP2 =    -0.16157522703607D+04
 Optimization completed.
    -- Stationary point found.

                         Standard orientation:
 ---------------------------------------------------------------------
 Center     Atomic      Atomic             Coordinates (Angstroms)
 Number     Number       Type             X           Y           Z
 ---------------------------------------------------------------------
      1          6           0       -4.040278    0.304035    0.230145
      2          6           0       -2.720013    0.831344    0.341815
      3          6           0       -1.748616   -0.129301    0.010191
      4          6           0       -2.412767    2.240190    0.789149
      5          6           0       -4.078757   -1.026873   -0.175673
      6          1           0       -4.942358    0.879342    0.455412
      7         16           0       -2.486915   -1.645986   -0.445553
      8          1           0       -4.948817   -1.666764   -0.326085
      9          6           0       -0.297228   -0.026254    0.013896
     10         16           0        0.504884    1.443514   -0.553895
     11          6           0        2.077201    0.741464   -0.296224
     12          6           0        1.960639   -0.584346    0.191785
     13          6           0        0.620799   -1.019354    0.373697
     14          1           0        0.307348   -1.990819    0.762521
     15         16           0        3.534440   -1.279117    0.466233
     16          6           0        4.317431    0.191160   -0.068466
     17          6           0        3.423383    1.187048   -0.442721
     18          1           0        5.407399    0.236878   -0.082706
     19          1           0        3.736639    2.168728   -0.802464
     20          1           0       -3.256006    2.643971    1.370220
     21          1           0       -2.243941    2.910905   -0.069818
     22          1           0       -1.509576    2.268511    1.418795
 ---------------------------------------------------------------------

 The electronic state is 1-A.
 Alpha  occ. eigenvalues --  -91.99478 -91.99475 -91.99056 -11.29623 -11.28459
 Alpha  occ. eigenvalues --  -11.28207 -11.28071 -11.27953 -11.27929 -11.26557
 Alpha  occ. eigenvalues --  -11.26405 -11.26184 -11.25203 -11.24179  -8.99586
 Alpha  occ. eigenvalues --   -8.99586  -8.99219  -6.67752  -6.67750  -6.67671
 Alpha  occ. eigenvalues --   -6.67666  -6.67475  -6.67467  -6.67382  -6.67290
 Alpha  occ. eigenvalues --   -6.67111  -1.20674  -1.17760  -1.11860  -1.03667
 Alpha  occ. eigenvalues --   -1.02685  -1.01324  -0.94935  -0.94359  -0.91413
 Alpha  occ. eigenvalues --   -0.82063  -0.77302  -0.76125  -0.71750  -0.69907
 Alpha  occ. eigenvalues --   -0.66839  -0.66272  -0.60014  -0.58952  -0.58643
 Alpha  occ. eigenvalues --   -0.56847  -0.55842  -0.54354  -0.53573  -0.52266
 Alpha  occ. eigenvalues --   -0.51896  -0.51169  -0.49634  -0.47313  -0.46280
 Alpha  occ. eigenvalues --   -0.45983  -0.39250  -0.34568  -0.34034  -0.32261
 Alpha  occ. eigenvalues --   -0.27004
 Alpha virt. eigenvalues --    0.03465   0.03495   0.04093   0.04779   0.04849
 Alpha virt. eigenvalues --    0.05734   0.05968   0.06082   0.07485   0.08493
 Alpha virt. eigenvalues --    0.09105   0.09683   0.10357   0.10512   0.10794

 Mulliken charges:
               1
     1  C    0.463106
     2  C   -0.476930
     3  C    0.722493
     4  C    0.412297
     5  C   -0.360172
     6  H   -0.456645
     7  S    0.394786
     8  H   -0.337651
     9  C   -0.004848
    10  S    0.433590
    11  C   -0.631479
    12  C   -0.278678
    13  C    0.217918
    14  H   -0.464160
    15  S    0.584137
    16  C   -0.155754
    17  C    0.493110
    18  H   -0.356671
    19  H   -0.297874
    20  H   -0.169666
    21  H    0.146543
    22  H    0.122549
 Sum of Mulliken charges =  -0.00000

 Dipole moment (field-independent basis, Debye):
    X=             -0.5148    Y=              1.0836    Z=              0.4103  Tot=              1.2679
 Quadrupole moment (field-independent basis, Debye-Ang):
   XX=            -87.1681   YY=            -99.4809   ZZ=           -110.8087
   XY=              2.4397   XZ=             -2.4044   YZ=             -0.9052

 Normal termination of Gaussian 16 at Wed Oct 27 02:44:22 2021.
