 Gaussian 16, Revision C.01,
 Gaussian 16:  ES64L-G16RevC.01  3-Jul-2019

 ----------------------------------
 # opt=modredundant mp2/aug-cc-pvdz
 ----------------------------------

 --------------
 pBTTT_-135.pdb
 --------------
 Symbolic Z-matrix:
 Charge =  0 Multiplicity = 1

 SCF Done:  E(RHF) =  -1613.81433698     A.U. after   17 cycles
 E2 =    -0.1928196867D+01 EUMP2 =    -0.16157425338476D+04
 SCF Done:  E(RHF) =  -1613.80573173     A.U. after   15 cycles
 E2 =    -0.1946093258D+01 EUMP2 =    -0.16157518249899D+04
 SCF Done:  E(RHF) =  -1613.80379158     A.U. after   14 cycles
 E2 =    -0.1948614665D+01 EUMP2 =    -0.16157524062420D+04
 SCF Done:  E(RHF) =  -1613.80321063     A.U. after   12 cycles
 E2 =    -0.1949276596D+01 EUMP2 =    -0.16157524872253D+04
 SCF Done:  E(RHF) =  -1613.80318228     A.U. after   12 cycles
 E2 =    -0.1949325601D+01 EUMP2 =    -0.16157525078831D+04
 SCF Done:  E(RHF) =  -1613.80330525     A.U. after   11 cycles
 E2 =    -0.1949217597D+01 EUMP2 =    -0.16157525228513D+04
 SCF Done:  E(RHF) =  -1613.80349791     A.U. after   12 cycles
 E2 =    -0.1949041611D+01 EUMP2 =    -0.16157525395185D+04
 SCF Done:  E(RHF) =  -1613.80345223     A.U. after   11 cycles
 E2 =    -0.1949092003D+01 EUMP2 =    -0.16157525442321D+04
 SCF Done:  E(RHF) =  -1613.80337775     A.U. after   11 cycles
 E2 =    -0.1949167536D+01 EUMP2 =    -0.16157525452815D+04
 SCF Done:  E(RHF) =  -1613.80336428     A.U. after    9 cycles
 E2 =    -0.1949181064D+01 EUMP2 =    -0.16157525453400D+04
 Optimization completed.
    -- Stationary point found.

                         Standard orientation:
 ---------------------------------------------------------------------
 Center     Atomic      Atomic             Coordinates (Angstroms)
 Number     Number       Type             X           Y           Z
 ---------------------------------------------------------------------
      1          6           0        3.954015    0.804848    0.151443
      2          6           0        2.568579    1.110680    0.298369
      3          6           0        1.756451    0.026968   -0.076479
      4          6           0        2.036923    2.424135    0.814819
      5          6           0        4.192543   -0.485561   -0.312546
      6          1           0        4.759589    1.502895    0.395071
      7         16           0        2.714344   -1.339003   -0.593356
      8          1           0        5.149457   -0.973784   -0.499871
      9          6           0        0.303694   -0.049868   -0.050527
     10         16           0       -0.496755   -1.486772    0.596253
     11          6           0       -2.069176   -0.797567    0.301912
     12          6           0       -1.951536    0.502154   -0.252111
     13          6           0       -0.610360    0.925759   -0.458650
     14          1           0       -0.298610    1.869285   -0.910543
     15         16           0       -3.524842    1.191436   -0.543700
     16          6           0       -4.309255   -0.246638    0.070319
     17          6           0       -3.416169   -1.226834    0.485747
     18          1           0       -5.399266   -0.288174    0.091976
     19          1           0       -3.730260   -2.188384    0.895549
     20          1           0        2.736252    2.860419    1.544811
     21          1           0        1.059399    2.283483    1.302858
     22          1           0        1.905226    3.155234   -0.000783
 ---------------------------------------------------------------------

 The electronic state is 1-A.
 Alpha  occ. eigenvalues --  -91.99517 -91.99440 -91.99054 -11.29525 -11.28469
 Alpha  occ. eigenvalues --  -11.28150 -11.28092 -11.27985 -11.27961 -11.26557
 Alpha  occ. eigenvalues --  -11.26481 -11.26196 -11.25221 -11.24301  -8.99627
 Alpha  occ. eigenvalues --   -8.99538  -8.99219  -6.67793  -6.67712  -6.67701
 Alpha  occ. eigenvalues --   -6.67617  -6.67516  -6.67418  -6.67382  -6.67290
 Alpha  occ. eigenvalues --   -6.67111  -1.20670  -1.17777  -1.11865  -1.03760
 Alpha  occ. eigenvalues --   -1.02555  -1.01360  -0.94995  -0.94409  -0.91390
 Alpha  occ. eigenvalues --   -0.82088  -0.76786  -0.76298  -0.72457  -0.69776
 Alpha  occ. eigenvalues --   -0.66764  -0.66236  -0.60288  -0.58794  -0.58734
 Alpha  occ. eigenvalues --   -0.56566  -0.55810  -0.54344  -0.53801  -0.52433
 Alpha  occ. eigenvalues --   -0.51853  -0.50895  -0.49603  -0.47520  -0.46310
 Alpha  occ. eigenvalues --   -0.45990  -0.39179  -0.34511  -0.33914  -0.32233
 Alpha  occ. eigenvalues --   -0.27301
 Alpha virt. eigenvalues --    0.03416   0.03539   0.04047   0.04848   0.04925
 Alpha virt. eigenvalues --    0.05506   0.06106   0.06767   0.07576   0.08363
 Alpha virt. eigenvalues --    0.08690   0.09531   0.10052   0.10625   0.10945

 Mulliken charges:
               1
     1  C    0.470068
     2  C   -0.472824
     3  C    0.572101
     4  C    0.357634
     5  C   -0.358167
     6  H   -0.442395
     7  S    0.392248
     8  H   -0.334666
     9  C    0.180747
    10  S    0.440350
    11  C   -0.680992
    12  C   -0.313748
    13  C    0.190410
    14  H   -0.440900
    15  S    0.603731
    16  C   -0.114952
    17  C    0.515721
    18  H   -0.353902
    19  H   -0.296235
    20  H   -0.120544
    21  H    0.064825
    22  H    0.141490
 Sum of Mulliken charges =  -0.00000

 Dipole moment (field-independent basis, Debye):
    X=              0.3738    Y=              1.0314    Z=              0.4181  Tot=              1.1740
 Quadrupole moment (field-independent basis, Debye-Ang):
   XX=            -87.5849   YY=            -99.8853   ZZ=           -110.3125
   XY=              6.0330   XZ=             -1.0985   YZ=             -1.0723

 Normal termination of Gaussian 16 at Wed Oct 27 00:11:30 2021.
