 Gaussian 16, Revision C.01,
 Gaussian 16:  ES64L-G16RevC.01  3-Jul-2019

 ----------------------------------
 # opt=modredundant mp2/aug-cc-pvdz
 ----------------------------------

 ------------
 pBTTT_65.pdb
 ------------
 Symbolic Z-matrix:
 Charge =  0 Multiplicity = 1

 SCF Done:  E(RHF) =  -1613.81480432     A.U. after   17 cycles
 E2 =    -0.1926963259D+01 EUMP2 =    -0.16157417675801D+04
 SCF Done:  E(RHF) =  -1613.80620641     A.U. after   15 cycles
 E2 =    -0.1944910795D+01 EUMP2 =    -0.16157511172055D+04
 SCF Done:  E(RHF) =  -1613.80428543     A.U. after   13 cycles
 E2 =    -0.1947392837D+01 EUMP2 =    -0.16157516782712D+04
 SCF Done:  E(RHF) =  -1613.80374175     A.U. after   13 cycles
 E2 =    -0.1947997983D+01 EUMP2 =    -0.16157517397345D+04
 SCF Done:  E(RHF) =  -1613.80378437     A.U. after   12 cycles
 E2 =    -0.1947964410D+01 EUMP2 =    -0.16157517487778D+04
 SCF Done:  E(RHF) =  -1613.80389770     A.U. after   11 cycles
 E2 =    -0.1947859445D+01 EUMP2 =    -0.16157517571468D+04
 SCF Done:  E(RHF) =  -1613.80408387     A.U. after   13 cycles
 E2 =    -0.1947690238D+01 EUMP2 =    -0.16157517741101D+04
 SCF Done:  E(RHF) =  -1613.80404676     A.U. after   12 cycles
 E2 =    -0.1947736711D+01 EUMP2 =    -0.16157517834680D+04
 SCF Done:  E(RHF) =  -1613.80389791     A.U. after   11 cycles
 E2 =    -0.1947894294D+01 EUMP2 =    -0.16157517922066D+04
 SCF Done:  E(RHF) =  -1613.80383067     A.U. after   11 cycles
 E2 =    -0.1947963665D+01 EUMP2 =    -0.16157517943383D+04
 Optimization completed.
    -- Stationary point found.

                         Standard orientation:
 ---------------------------------------------------------------------
 Center     Atomic      Atomic             Coordinates (Angstroms)
 Number     Number       Type             X           Y           Z
 ---------------------------------------------------------------------
      1          6           0        4.014878    0.349145    0.404690
      2          6           0        2.667441    0.793862    0.553412
      3          6           0        1.756528   -0.121037    0.004734
      4          6           0        2.255919    2.077987    1.229874
      5          6           0        4.124041   -0.882293   -0.236061
      6          1           0        4.883811    0.903570    0.769540
      7         16           0        2.571958   -1.504318   -0.677244
      8          1           0        5.027306   -1.449504   -0.463778
      9          6           0        0.298052   -0.042570   -0.012718
     10         16           0       -0.502665    1.244271   -0.918291
     11          6           0       -2.074894    0.637193   -0.480053
     12          6           0       -1.956086   -0.532060    0.313889
     13          6           0       -0.613567   -0.918870    0.579679
     14          1           0       -0.292358   -1.773668    1.178684
     15         16           0       -3.527943   -1.137618    0.757479
     16          6           0       -4.314104    0.160844   -0.111616
     17          6           0       -3.423028    1.034659   -0.722203
     18          1           0       -5.404114    0.205359   -0.126928
     19          1           0       -3.738843    1.900524   -1.306751
     20          1           0        2.872834    2.257543    2.124499
     21          1           0        1.199418    2.035325    1.535577
     22          1           0        2.379271    2.942338    0.556280
 ---------------------------------------------------------------------

 The electronic state is 1-A.
 Alpha  occ. eigenvalues --  -91.99509 -91.99414 -91.98997 -11.29354 -11.28530
 Alpha  occ. eigenvalues --  -11.28086 -11.27964 -11.27914 -11.27897 -11.26563
 Alpha  occ. eigenvalues --  -11.26559 -11.26091 -11.25091 -11.23997  -8.99621
 Alpha  occ. eigenvalues --   -8.99502  -8.99143  -6.67786  -6.67706  -6.67665
 Alpha  occ. eigenvalues --   -6.67579  -6.67510  -6.67383  -6.67303  -6.67212
 Alpha  occ. eigenvalues --   -6.67035  -1.20625  -1.17679  -1.11843  -1.03447
 Alpha  occ. eigenvalues --   -1.02697  -1.01140  -0.94935  -0.94410  -0.91204
 Alpha  occ. eigenvalues --   -0.81942  -0.77038  -0.75983  -0.72114  -0.69747
 Alpha  occ. eigenvalues --   -0.66712  -0.66221  -0.60088  -0.58882  -0.58516
 Alpha  occ. eigenvalues --   -0.56845  -0.55700  -0.54175  -0.53466  -0.52371
 Alpha  occ. eigenvalues --   -0.51739  -0.50945  -0.49459  -0.47490  -0.46278
 Alpha  occ. eigenvalues --   -0.45762  -0.39036  -0.34332  -0.32917  -0.32215
 Alpha  occ. eigenvalues --   -0.28309
 Alpha virt. eigenvalues --    0.03464   0.03490   0.04178   0.04694   0.04845
 Alpha virt. eigenvalues --    0.05858   0.06039   0.06797   0.07467   0.08534
 Alpha virt. eigenvalues --    0.08682   0.09212   0.10195   0.10277   0.10971

 Mulliken charges:
               1
     1  C    0.499427
     2  C   -0.663741
     3  C    0.697406
     4  C    0.352476
     5  C   -0.325155
     6  H   -0.436108
     7  S    0.342454
     8  H   -0.333123
     9  C    0.275464
    10  S    0.365275
    11  C   -0.681159
    12  C   -0.301973
    13  C    0.133377
    14  H   -0.444382
    15  S    0.627814
    16  C   -0.123210
    17  C    0.587836
    18  H   -0.354016
    19  H   -0.295151
    20  H   -0.035725
    21  H   -0.016021
    22  H    0.128237
 Sum of Mulliken charges =  -0.00000

 Dipole moment (field-independent basis, Debye):
    X=              0.3806    Y=              0.9754    Z=              0.6164  Tot=              1.2149
 Quadrupole moment (field-independent basis, Debye-Ang):
   XX=            -87.3941   YY=           -101.9895   ZZ=           -108.2651
   XY=             -2.2402   XZ=              3.7664   YZ=             -1.3216

 Normal termination of Gaussian 16 at Wed Oct 27 04:36:32 2021.
