 Gaussian 16, Revision C.01,
 Gaussian 16:  ES64L-G16RevC.01  3-Jul-2019

 ----------------------------------
 # opt=modredundant mp2/aug-cc-pvdz
 ----------------------------------

 -------------
 pBTTT_110.pdb
 -------------
 Symbolic Z-matrix:
 Charge =  0 Multiplicity = 1

 SCF Done:  E(RHF) =  -1613.81468704     A.U. after   17 cycles
 E2 =    -0.1926756520D+01 EUMP2 =    -0.16157414435621D+04
 SCF Done:  E(RHF) =  -1613.80610924     A.U. after   15 cycles
 E2 =    -0.1944742732D+01 EUMP2 =    -0.16157508519768D+04
 SCF Done:  E(RHF) =  -1613.80406122     A.U. after   13 cycles
 E2 =    -0.1947420256D+01 EUMP2 =    -0.16157514814732D+04
 SCF Done:  E(RHF) =  -1613.80343027     A.U. after   13 cycles
 E2 =    -0.1948121870D+01 EUMP2 =    -0.16157515521442D+04
 SCF Done:  E(RHF) =  -1613.80352033     A.U. after   11 cycles
 E2 =    -0.1948038900D+01 EUMP2 =    -0.16157515592342D+04
 SCF Done:  E(RHF) =  -1613.80361049     A.U. after   11 cycles
 E2 =    -0.1947953801D+01 EUMP2 =    -0.16157515642885D+04
 SCF Done:  E(RHF) =  -1613.80370035     A.U. after   11 cycles
 E2 =    -0.1947869035D+01 EUMP2 =    -0.16157515693861D+04
 SCF Done:  E(RHF) =  -1613.80371298     A.U. after   11 cycles
 E2 =    -0.1947859329D+01 EUMP2 =    -0.16157515723085D+04
 SCF Done:  E(RHF) =  -1613.80363645     A.U. after   11 cycles
 E2 =    -0.1947939544D+01 EUMP2 =    -0.16157515759941D+04
 SCF Done:  E(RHF) =  -1613.80356914     A.U. after   11 cycles
 E2 =    -0.1948009052D+01 EUMP2 =    -0.16157515781941D+04
 SCF Done:  E(RHF) =  -1613.80357082     A.U. after    9 cycles
 E2 =    -0.1948007639D+01 EUMP2 =    -0.16157515784573D+04
 Optimization completed.
    -- Stationary point found.

                         Standard orientation:
 ---------------------------------------------------------------------
 Center     Atomic      Atomic             Coordinates (Angstroms)
 Number     Number       Type             X           Y           Z
 ---------------------------------------------------------------------
      1          6           0       -3.948790    0.765413    0.239653
      2          6           0       -2.558822    1.024133    0.434184
      3          6           0       -1.760791    0.013905   -0.122826
      4          6           0       -1.999906    2.223764    1.156659
      5          6           0       -4.199775   -0.426243   -0.434533
      6          1           0       -4.747525    1.422892    0.593605
      7         16           0       -2.731662   -1.240257   -0.850859
      8          1           0       -5.162423   -0.861287   -0.705679
      9          6           0       -0.302776   -0.077314   -0.095977
     10         16           0        0.492223   -1.311869    0.883899
     11          6           0        2.066227   -0.699722    0.459187
     12          6           0        1.951883    0.428556   -0.392632
     13          6           0        0.611013    0.780950   -0.709988
     14          1           0        0.292969    1.600705   -1.357651
     15         16           0        3.526325    1.038028   -0.822243
     16          6           0        4.307488   -0.205243    0.128543
     17          6           0        3.413085   -1.064058    0.755141
     18          1           0        5.397232   -0.231298    0.174641
     19          1           0        3.725221   -1.897061    1.387449
     20          1           0       -2.541215    2.395414    2.100645
     21          1           0       -2.094031    3.136494    0.544959
     22          1           0       -0.933406    2.074856    1.384804
 ---------------------------------------------------------------------

 The electronic state is 1-A.
 Alpha  occ. eigenvalues --  -91.99531 -91.99414 -91.98939 -11.29296 -11.28538
 Alpha  occ. eigenvalues --  -11.28089 -11.27976 -11.27970 -11.27885 -11.26568
 Alpha  occ. eigenvalues --  -11.26553 -11.26155 -11.25085 -11.24038  -8.99641
 Alpha  occ. eigenvalues --   -8.99497  -8.99093  -6.67807  -6.67726  -6.67659
 Alpha  occ. eigenvalues --   -6.67574  -6.67530  -6.67378  -6.67254  -6.67163
 Alpha  occ. eigenvalues --   -6.66985  -1.20620  -1.17679  -1.11840  -1.03517
 Alpha  occ. eigenvalues --   -1.02616  -1.01149  -0.94963  -0.94425  -0.91193
 Alpha  occ. eigenvalues --   -0.81952  -0.76797  -0.75995  -0.72503  -0.69658
 Alpha  occ. eigenvalues --   -0.66698  -0.66212  -0.60276  -0.58740  -0.58558
 Alpha  occ. eigenvalues --   -0.56736  -0.55692  -0.54133  -0.53586  -0.52422
 Alpha  occ. eigenvalues --   -0.51758  -0.50800  -0.49457  -0.47538  -0.46292
 Alpha  occ. eigenvalues --   -0.45776  -0.38995  -0.34316  -0.32891  -0.32032
 Alpha  occ. eigenvalues --   -0.28571
 Alpha virt. eigenvalues --    0.03429   0.03517   0.04121   0.04703   0.04907
 Alpha virt. eigenvalues --    0.05559   0.06488   0.07103   0.07468   0.08427
 Alpha virt. eigenvalues --    0.08769   0.08997   0.09755   0.10419   0.10638

 Mulliken charges:
               1
     1  C    0.601930
     2  C   -0.853567
     3  C    0.786210
     4  C    0.364977
     5  C   -0.380387
     6  H   -0.432874
     7  S    0.346959
     8  H   -0.333203
     9  C    0.338429
    10  S    0.404156
    11  C   -0.735420
    12  C   -0.301122
    13  C    0.099899
    14  H   -0.440864
    15  S    0.634216
    16  C   -0.093461
    17  C    0.589011
    18  H   -0.351151
    19  H   -0.296648
    20  H   -0.000023
    21  H    0.113251
    22  H   -0.060318
 Sum of Mulliken charges =  -0.00000

 Dipole moment (field-independent basis, Debye):
    X=             -0.2898    Y=              1.0225    Z=              0.6277  Tot=              1.2343
 Quadrupole moment (field-independent basis, Debye-Ang):
   XX=            -87.7012   YY=           -102.4495   ZZ=           -107.7802
   XY=             -5.3384   XZ=              1.8167   YZ=             -1.4541

 Normal termination of Gaussian 16 at Wed Oct 27 06:03:00 2021.
