 Gaussian 16, Revision C.01,
 Gaussian 16:  ES64L-G16RevC.01  3-Jul-2019

 ----------------------------------
 # opt=modredundant mp2/aug-cc-pvdz
 ----------------------------------

 --------------
 pBTTT_-110.pdb
 --------------
 Symbolic Z-matrix:
 Charge =  0 Multiplicity = 1

 SCF Done:  E(RHF) =  -1613.81468793     A.U. after   17 cycles
 E2 =    -0.1926859438D+01 EUMP2 =    -0.16157415473681D+04
 SCF Done:  E(RHF) =  -1613.80609440     A.U. after   15 cycles
 E2 =    -0.1944766882D+01 EUMP2 =    -0.16157508612806D+04
 SCF Done:  E(RHF) =  -1613.80405979     A.U. after   13 cycles
 E2 =    -0.1947424159D+01 EUMP2 =    -0.16157514839535D+04
 SCF Done:  E(RHF) =  -1613.80342945     A.U. after   13 cycles
 E2 =    -0.1948124292D+01 EUMP2 =    -0.16157515537468D+04
 SCF Done:  E(RHF) =  -1613.80350901     A.U. after   11 cycles
 E2 =    -0.1948051562D+01 EUMP2 =    -0.16157515605721D+04
 SCF Done:  E(RHF) =  -1613.80360471     A.U. after   10 cycles
 E2 =    -0.1947961425D+01 EUMP2 =    -0.16157515661343D+04
 SCF Done:  E(RHF) =  -1613.80370125     A.U. after   11 cycles
 E2 =    -0.1947870560D+01 EUMP2 =    -0.16157515718109D+04
 SCF Done:  E(RHF) =  -1613.80371224     A.U. after   11 cycles
 E2 =    -0.1947862580D+01 EUMP2 =    -0.16157515748155D+04
 SCF Done:  E(RHF) =  -1613.80363391     A.U. after   11 cycles
 E2 =    -0.1947944668D+01 EUMP2 =    -0.16157515785805D+04
 SCF Done:  E(RHF) =  -1613.80356995     A.U. after   11 cycles
 E2 =    -0.1948010764D+01 EUMP2 =    -0.16157515807137D+04
 SCF Done:  E(RHF) =  -1613.80357193     A.U. after    9 cycles
 E2 =    -0.1948009006D+01 EUMP2 =    -0.16157515809388D+04
 Optimization completed.
    -- Stationary point found.

                         Standard orientation:
 ---------------------------------------------------------------------
 Center     Atomic      Atomic             Coordinates (Angstroms)
 Number     Number       Type             X           Y           Z
 ---------------------------------------------------------------------
      1          6           0        3.948793    0.765512    0.239571
      2          6           0        2.558823    1.024375    0.433906
      3          6           0        1.760780    0.013980   -0.122793
      4          6           0        1.999941    2.224295    1.155932
      5          6           0        4.199775   -0.426390   -0.434175
      6          1           0        4.747529    1.423069    0.593371
      7         16           0        2.731653   -1.240474   -0.850334
      8          1           0        5.162421   -0.861588   -0.705082
      9          6           0        0.302776   -0.077233   -0.095966
     10         16           0       -0.492205   -1.312434    0.883117
     11          6           0       -2.066219   -0.700056    0.458771
     12          6           0       -1.951893    0.428810   -0.392265
     13          6           0       -0.611029    0.781448   -0.709375
     14          1           0       -0.293010    1.601621   -1.356520
     15         16           0       -3.526348    1.038524   -0.821486
     16          6           0       -4.307491   -0.205419    0.128436
     17          6           0       -3.413072   -1.064642    0.754448
     18          1           0       -5.397235   -0.231534    0.174502
     19          1           0       -3.725193   -1.898091    1.386175
     20          1           0        2.541742    2.396713    2.099493
     21          1           0        0.933616    2.075207    1.384778
     22          1           0        2.093424    3.136671    0.543602
 ---------------------------------------------------------------------

 The electronic state is 1-A.
 Alpha  occ. eigenvalues --  -91.99531 -91.99414 -91.98939 -11.29297 -11.28538
 Alpha  occ. eigenvalues --  -11.28089 -11.27976 -11.27970 -11.27885 -11.26568
 Alpha  occ. eigenvalues --  -11.26553 -11.26155 -11.25085 -11.24038  -8.99641
 Alpha  occ. eigenvalues --   -8.99498  -8.99093  -6.67807  -6.67726  -6.67659
 Alpha  occ. eigenvalues --   -6.67574  -6.67530  -6.67378  -6.67254  -6.67163
 Alpha  occ. eigenvalues --   -6.66985  -1.20621  -1.17679  -1.11840  -1.03517
 Alpha  occ. eigenvalues --   -1.02615  -1.01150  -0.94963  -0.94425  -0.91193
 Alpha  occ. eigenvalues --   -0.81953  -0.76797  -0.75996  -0.72503  -0.69658
 Alpha  occ. eigenvalues --   -0.66699  -0.66212  -0.60276  -0.58740  -0.58558
 Alpha  occ. eigenvalues --   -0.56736  -0.55692  -0.54133  -0.53586  -0.52422
 Alpha  occ. eigenvalues --   -0.51758  -0.50800  -0.49457  -0.47538  -0.46292
 Alpha  occ. eigenvalues --   -0.45776  -0.38995  -0.34316  -0.32893  -0.32032
 Alpha  occ. eigenvalues --   -0.28567
 Alpha virt. eigenvalues --    0.03429   0.03517   0.04121   0.04703   0.04908
 Alpha virt. eigenvalues --    0.05559   0.06489   0.07101   0.07468   0.08427
 Alpha virt. eigenvalues --    0.08769   0.08997   0.09756   0.10420   0.10638

 Mulliken charges:
               1
     1  C    0.601591
     2  C   -0.852415
     3  C    0.785656
     4  C    0.364869
     5  C   -0.380345
     6  H   -0.432880
     7  S    0.346962
     8  H   -0.333208
     9  C    0.338076
    10  S    0.404210
    11  C   -0.735392
    12  C   -0.301020
    13  C    0.100146
    14  H   -0.440869
    15  S    0.634185
    16  C   -0.093524
    17  C    0.588806
    18  H   -0.351145
    19  H   -0.296646
    20  H   -0.000305
    21  H   -0.060052
    22  H    0.113301
 Sum of Mulliken charges =  -0.00000

 Dipole moment (field-independent basis, Debye):
    X=              0.2899    Y=              1.0225    Z=              0.6274  Tot=              1.2342
 Quadrupole moment (field-independent basis, Debye-Ang):
   XX=            -87.7011   YY=           -102.4421   ZZ=           -107.7874
   XY=              5.3403   XZ=             -1.8143   YZ=             -1.4536

 Normal termination of Gaussian 16 at Wed Oct 27 00:35:36 2021.
