 Gaussian 16, Revision C.01,
 Gaussian 16:  ES64L-G16RevC.01  3-Jul-2019

 ----------------------------------
 # opt=modredundant mp2/aug-cc-pvdz
 ----------------------------------

 -------------
 pBTTT_-80.pdb
 -------------
 Symbolic Z-matrix:
 Charge =  0 Multiplicity = 1

 SCF Done:  E(RHF) =  -1613.81480018     A.U. after   17 cycles
 E2 =    -0.1926521682D+01 EUMP2 =    -0.16157413218618D+04
 SCF Done:  E(RHF) =  -1613.80618185     A.U. after   14 cycles
 E2 =    -0.1944464501D+01 EUMP2 =    -0.16157506463561D+04
 SCF Done:  E(RHF) =  -1613.80425715     A.U. after   14 cycles
 E2 =    -0.1946953440D+01 EUMP2 =    -0.16157512105928D+04
 SCF Done:  E(RHF) =  -1613.80367114     A.U. after   13 cycles
 E2 =    -0.1947599586D+01 EUMP2 =    -0.16157512707273D+04
 SCF Done:  E(RHF) =  -1613.80375899     A.U. after   11 cycles
 E2 =    -0.1947515185D+01 EUMP2 =    -0.16157512741795D+04
 SCF Done:  E(RHF) =  -1613.80385162     A.U. after   11 cycles
 E2 =    -0.1947426919D+01 EUMP2 =    -0.16157512785356D+04
 SCF Done:  E(RHF) =  -1613.80389108     A.U. after   10 cycles
 E2 =    -0.1947389201D+01 EUMP2 =    -0.16157512802772D+04
 SCF Done:  E(RHF) =  -1613.80391736     A.U. after   10 cycles
 E2 =    -0.1947363813D+01 EUMP2 =    -0.16157512811773D+04
 SCF Done:  E(RHF) =  -1613.80386276     A.U. after   10 cycles
 E2 =    -0.1947419562D+01 EUMP2 =    -0.16157512823187D+04
 SCF Done:  E(RHF) =  -1613.80381625     A.U. after   10 cycles
 E2 =    -0.1947467390D+01 EUMP2 =    -0.16157512836445D+04
 SCF Done:  E(RHF) =  -1613.80383202     A.U. after   10 cycles
 E2 =    -0.1947452000D+01 EUMP2 =    -0.16157512840221D+04
 SCF Done:  E(RHF) =  -1613.80385077     A.U. after   10 cycles
 E2 =    -0.1947433392D+01 EUMP2 =    -0.16157512841652D+04
 Optimization completed.
    -- Stationary point found.

                         Standard orientation:
 ---------------------------------------------------------------------
 Center     Atomic      Atomic             Coordinates (Angstroms)
 Number     Number       Type             X           Y           Z
 ---------------------------------------------------------------------
      1          6           0       -3.988598    0.416819    0.500271
      2          6           0       -2.620126    0.797906    0.637309
      3          6           0       -1.761188   -0.120632    0.018393
      4          6           0       -2.132766    2.029105    1.358476
      5          6           0       -4.161977   -0.769129   -0.207796
      6          1           0       -4.826138    0.986002    0.912568
      7         16           0       -2.647365   -1.429108   -0.719347
      8          1           0       -5.092803   -1.284315   -0.447983
      9          6           0       -0.299148   -0.072191   -0.035669
     10         16           0        0.500730    0.976699   -1.207851
     11          6           0        2.072947    0.499013   -0.631686
     12          6           0        1.954084   -0.446998    0.418535
     13          6           0        0.611106   -0.771997    0.756956
     14          1           0        0.288329   -1.467350    1.534594
     15         16           0        3.525789   -0.927153    0.996001
     16          6           0        4.312085    0.126764   -0.157317
     17          6           0        3.421442    0.826998   -0.961240
     18          1           0        5.401995    0.170677   -0.178104
     19          1           0        3.737353    1.528608   -1.735189
     20          1           0       -2.550475    2.076431    2.377072
     21          1           0       -2.437117    2.945500    0.826550
     22          1           0       -1.034760    2.023494    1.432259
 ---------------------------------------------------------------------

 The electronic state is 1-A.
 Alpha  occ. eigenvalues --  -91.99523 -91.99388 -91.98932 -11.29253 -11.28557
 Alpha  occ. eigenvalues --  -11.28093 -11.27955 -11.27931 -11.27786 -11.26600
 Alpha  occ. eigenvalues --  -11.26565 -11.26086 -11.25035 -11.23948  -8.99635
 Alpha  occ. eigenvalues --   -8.99470  -8.99075  -6.67800  -6.67720  -6.67632
 Alpha  occ. eigenvalues --   -6.67546  -6.67524  -6.67351  -6.67235  -6.67144
 Alpha  occ. eigenvalues --   -6.66967  -1.20606  -1.17644  -1.11834  -1.03390
 Alpha  occ. eigenvalues --   -1.02695  -1.01058  -0.94938  -0.94432  -0.91133
 Alpha  occ. eigenvalues --   -0.81897  -0.76918  -0.75892  -0.72326  -0.69680
 Alpha  occ. eigenvalues --   -0.66676  -0.66211  -0.60161  -0.58827  -0.58499
 Alpha  occ. eigenvalues --   -0.56849  -0.55650  -0.54116  -0.53459  -0.52380
 Alpha  occ. eigenvalues --   -0.51684  -0.50850  -0.49393  -0.47543  -0.46278
 Alpha  occ. eigenvalues --   -0.45651  -0.38968  -0.34266  -0.32228  -0.32064
 Alpha  occ. eigenvalues --   -0.29171
 Alpha virt. eigenvalues --    0.03436   0.03488   0.04196   0.04629   0.04875
 Alpha virt. eigenvalues --    0.05734   0.06133   0.07352   0.07520   0.08428
 Alpha virt. eigenvalues --    0.08687   0.09018   0.09611   0.10197   0.10987

 Mulliken charges:
               1
     1  C    0.611269
     2  C   -0.950131
     3  C    0.796304
     4  C    0.370629
     5  C   -0.350621
     6  H   -0.433737
     7  S    0.328262
     8  H   -0.332339
     9  C    0.396890
    10  S    0.359036
    11  C   -0.707722
    12  C   -0.355190
    13  C    0.117646
    14  H   -0.441091
    15  S    0.637864
    16  C   -0.100113
    17  C    0.644634
    18  H   -0.354330
    19  H   -0.296098
    20  H    0.041623
    21  H    0.106316
    22  H   -0.089099
 Sum of Mulliken charges =  -0.00000

 Dipole moment (field-independent basis, Debye):
    X=             -0.3134    Y=              0.9752    Z=              0.6765  Tot=              1.2276
 Quadrupole moment (field-independent basis, Debye-Ang):
   XX=            -87.5325   YY=           -104.2461   ZZ=           -106.0029
   XY=              1.5478   XZ=             -4.6576   YZ=             -1.4285

 Normal termination of Gaussian 16 at Wed Oct 27 01:52:58 2021.
