 Gaussian 16, Revision C.01,
 Gaussian 16:  ES64L-G16RevC.01  3-Jul-2019

 ----------------------------------
 # opt=modredundant mp2/aug-cc-pvdz
 ----------------------------------

 ------------
 pBTTT_95.pdb
 ------------
 Symbolic Z-matrix:
 Charge =  0 Multiplicity = 1

 SCF Done:  E(RHF) =  -1613.81469077     A.U. after   17 cycles
 E2 =    -0.1926479138D+01 EUMP2 =    -0.16157411699104D+04
 SCF Done:  E(RHF) =  -1613.80609106     A.U. after   14 cycles
 E2 =    -0.1944387782D+01 EUMP2 =    -0.16157504788390D+04
 SCF Done:  E(RHF) =  -1613.80410657     A.U. after   14 cycles
 E2 =    -0.1946969570D+01 EUMP2 =    -0.16157510761432D+04
 SCF Done:  E(RHF) =  -1613.80347205     A.U. after   13 cycles
 E2 =    -0.1947672368D+01 EUMP2 =    -0.16157511444144D+04
 SCF Done:  E(RHF) =  -1613.80357481     A.U. after   11 cycles
 E2 =    -0.1947573463D+01 EUMP2 =    -0.16157511482745D+04
 SCF Done:  E(RHF) =  -1613.80365546     A.U. after   11 cycles
 E2 =    -0.1947496065D+01 EUMP2 =    -0.16157511515290D+04
 SCF Done:  E(RHF) =  -1613.80367851     A.U. after   10 cycles
 E2 =    -0.1947473503D+01 EUMP2 =    -0.16157511520121D+04
 SCF Done:  E(RHF) =  -1613.80367715     A.U. after    9 cycles
 E2 =    -0.1947474998D+01 EUMP2 =    -0.16157511521433D+04
 SCF Done:  E(RHF) =  -1613.80366055     A.U. after    8 cycles
 E2 =    -0.1947491667D+01 EUMP2 =    -0.16157511522129D+04
 SCF Done:  E(RHF) =  -1613.80364966     A.U. after    8 cycles
 E2 =    -0.1947502629D+01 EUMP2 =    -0.16157511522866D+04
 SCF Done:  E(RHF) =  -1613.80365013     A.U. after    8 cycles
 E2 =    -0.1947502205D+01 EUMP2 =    -0.16157511523321D+04
 SCF Done:  E(RHF) =  -1613.80365593     A.U. after    8 cycles
 E2 =    -0.1947496447D+01 EUMP2 =    -0.16157511523785D+04
 SCF Done:  E(RHF) =  -1613.80366167     A.U. after    8 cycles
 E2 =    -0.1947490742D+01 EUMP2 =    -0.16157511524098D+04
 SCF Done:  E(RHF) =  -1613.80366391     A.U. after    8 cycles
 E2 =    -0.1947488512D+01 EUMP2 =    -0.16157511524231D+04
 Optimization completed.
    -- Stationary point found.

                         Standard orientation:
 ---------------------------------------------------------------------
 Center     Atomic      Atomic             Coordinates (Angstroms)
 Number     Number       Type             X           Y           Z
 ---------------------------------------------------------------------
      1          6           0       -3.963746    0.722774    0.183418
      2          6           0       -2.580592    0.987622    0.415631
      3          6           0       -1.762732   -0.015656   -0.122254
      4          6           0       -2.041116    2.187242    1.152211
      5          6           0       -4.188595   -0.463857   -0.508522
      6          1           0       -4.775622    1.376107    0.514217
      7         16           0       -2.705116   -1.268193   -0.887438
      8          1           0       -5.140737   -0.899391   -0.813917
      9          6           0       -0.301075   -0.083854   -0.072955
     10         16           0        0.497617   -1.008714    1.199908
     11          6           0        2.070017   -0.536210    0.620239
     12          6           0        1.952182    0.308611   -0.513067
     13          6           0        0.609631    0.564588   -0.907626
     14          1           0        0.287125    1.180742   -1.749509
     15         16           0        3.524540    0.780053   -1.096142
     16          6           0        4.309644   -0.145320    0.163484
     17          6           0        3.418253   -0.797333    1.006116
     18          1           0        5.399464   -0.155183    0.213096
     19          1           0        3.733301   -1.419230    1.845779
     20          1           0       -2.463562    2.245448    2.168438
     21          1           0       -2.298638    3.121590    0.626992
     22          1           0       -0.945217    2.127934    1.233606
 ---------------------------------------------------------------------

 The electronic state is 1-A.
 Alpha  occ. eigenvalues --  -91.99532 -91.99391 -91.98905 -11.29234 -11.28562
 Alpha  occ. eigenvalues --  -11.28098 -11.27957 -11.27953 -11.27783 -11.26590
 Alpha  occ. eigenvalues --  -11.26568 -11.26113 -11.25030 -11.23958  -8.99643
 Alpha  occ. eigenvalues --   -8.99472  -8.99053  -6.67808  -6.67728  -6.67633
 Alpha  occ. eigenvalues --   -6.67548  -6.67531  -6.67353  -6.67213  -6.67122
 Alpha  occ. eigenvalues --   -6.66944  -1.20605  -1.17642  -1.11834  -1.03417
 Alpha  occ. eigenvalues --   -1.02665  -1.01060  -0.94947  -0.94436  -0.91129
 Alpha  occ. eigenvalues --   -0.81900  -0.76840  -0.75882  -0.72461  -0.69648
 Alpha  occ. eigenvalues --   -0.66673  -0.66209  -0.60230  -0.58761  -0.58515
 Alpha  occ. eigenvalues --   -0.56819  -0.55653  -0.54098  -0.53491  -0.52397
 Alpha  occ. eigenvalues --   -0.51696  -0.50805  -0.49396  -0.47553  -0.46284
 Alpha  occ. eigenvalues --   -0.45659  -0.38953  -0.34263  -0.32360  -0.31798
 Alpha  occ. eigenvalues --   -0.29315
 Alpha virt. eigenvalues --    0.03426   0.03495   0.04172   0.04641   0.04893
 Alpha virt. eigenvalues --    0.05625   0.06298   0.07379   0.07634   0.08396
 Alpha virt. eigenvalues --    0.08761   0.08907   0.09407   0.10234   0.10842

 Mulliken charges:
               1
     1  C    0.668253
     2  C   -1.053222
     3  C    0.867863
     4  C    0.382186
     5  C   -0.380761
     6  H   -0.434481
     7  S    0.336643
     8  H   -0.331739
     9  C    0.411931
    10  S    0.377337
    11  C   -0.723597
    12  C   -0.349290
    13  C    0.075719
    14  H   -0.437249
    15  S    0.638187
    16  C   -0.085075
    17  C    0.640657
    18  H   -0.353721
    19  H   -0.297139
    20  H    0.059177
    21  H    0.083099
    22  H   -0.094779
 Sum of Mulliken charges =  -0.00000

 Dipole moment (field-independent basis, Debye):
    X=             -0.2780    Y=              1.0579    Z=              0.5876  Tot=              1.2417
 Quadrupole moment (field-independent basis, Debye-Ang):
   XX=            -87.6416   YY=           -104.7877   ZZ=           -105.4628
   XY=             -4.5112   XZ=              2.8412   YZ=             -1.4007

 Normal termination of Gaussian 16 at Wed Oct 27 06:16:25 2021.
