 Gaussian 16, Revision C.01,
 Gaussian 16:  ES64L-G16RevC.01  3-Jul-2019

 ----------------------------------
 # opt=modredundant mp2/aug-cc-pvdz
 ----------------------------------

 ------------
 pBTTT_25.pdb
 ------------
 Symbolic Z-matrix:
 Charge =  0 Multiplicity = 1

 SCF Done:  E(RHF) =  -1613.81273089     A.U. after   17 cycles
 E2 =    -0.1929279690D+01 EUMP2 =    -0.16157420105835D+04
 SCF Done:  E(RHF) =  -1613.80396096     A.U. after   15 cycles
 E2 =    -0.1947460604D+01 EUMP2 =    -0.16157514215625D+04
 SCF Done:  E(RHF) =  -1613.80227497     A.U. after   13 cycles
 E2 =    -0.1949691507D+01 EUMP2 =    -0.16157519664812D+04
 SCF Done:  E(RHF) =  -1613.80164463     A.U. after   13 cycles
 E2 =    -0.1950399496D+01 EUMP2 =    -0.16157520441272D+04
 SCF Done:  E(RHF) =  -1613.80174506     A.U. after   12 cycles
 E2 =    -0.1950315675D+01 EUMP2 =    -0.16157520607380D+04
 SCF Done:  E(RHF) =  -1613.80187304     A.U. after   13 cycles
 E2 =    -0.1950196978D+01 EUMP2 =    -0.16157520700194D+04
 SCF Done:  E(RHF) =  -1613.80194863     A.U. after   11 cycles
 E2 =    -0.1950125899D+01 EUMP2 =    -0.16157520745322D+04
 SCF Done:  E(RHF) =  -1613.80193072     A.U. after   10 cycles
 E2 =    -0.1950144901D+01 EUMP2 =    -0.16157520756247D+04
 SCF Done:  E(RHF) =  -1613.80190268     A.U. after   10 cycles
 E2 =    -0.1950173161D+01 EUMP2 =    -0.16157520758416D+04
 Optimization completed.
    -- Stationary point found.

                         Standard orientation:
 ---------------------------------------------------------------------
 Center     Atomic      Atomic             Coordinates (Angstroms)
 Number     Number       Type             X           Y           Z
 ---------------------------------------------------------------------
      1          6           0        4.049066    0.290927    0.139082
      2          6           0        2.737148    0.844905    0.216565
      3          6           0        1.746081   -0.134164    0.014767
      4          6           0        2.469144    2.303208    0.500161
      5          6           0        4.066906   -1.075331   -0.120450
      6          1           0        4.960379    0.878585    0.278661
      7         16           0        2.463462   -1.700704   -0.289916
      8          1           0        4.926327   -1.739020   -0.219528
      9          6           0        0.296808   -0.024359    0.020300
     10         16           0       -0.508535    1.510486   -0.342607
     11          6           0       -2.079664    0.777359   -0.191621
     12          6           0       -1.964021   -0.599783    0.121057
     13          6           0       -0.625499   -1.053865    0.248674
     14          1           0       -0.318966   -2.069850    0.507989
     15         16           0       -3.538481   -1.325237    0.295176
     16          6           0       -4.320307    0.202058   -0.048370
     17          6           0       -3.425171    1.238244   -0.285868
     18          1           0       -5.410231    0.249088   -0.061727
     19          1           0       -3.737522    2.258258   -0.516718
     20          1           0        3.385355    2.786759    0.871721
     21          1           0        1.679863    2.426972    1.259053
     22          1           0        2.148718    2.841303   -0.407693
 ---------------------------------------------------------------------

 The electronic state is 1-A.
 Alpha  occ. eigenvalues --  -91.99511 -91.99448 -91.99049 -11.29802 -11.28413
 Alpha  occ. eigenvalues --  -11.28403 -11.28064 -11.27990 -11.27891 -11.26543
 Alpha  occ. eigenvalues --  -11.26307 -11.26296 -11.25262 -11.24310  -8.99625
 Alpha  occ. eigenvalues --   -8.99559  -8.99227  -6.67789  -6.67724  -6.67706
 Alpha  occ. eigenvalues --   -6.67644  -6.67506  -6.67447  -6.67394  -6.67300
 Alpha  occ. eigenvalues --   -6.67120  -1.20685  -1.17804  -1.11853  -1.03825
 Alpha  occ. eigenvalues --   -1.02680  -1.01406  -0.94918  -0.94342  -0.91549
 Alpha  occ. eigenvalues --   -0.82131  -0.77454  -0.76169  -0.71564  -0.70015
 Alpha  occ. eigenvalues --   -0.66943  -0.66307  -0.59995  -0.58988  -0.58788
 Alpha  occ. eigenvalues --   -0.56853  -0.55893  -0.54495  -0.53672  -0.52190
 Alpha  occ. eigenvalues --   -0.51943  -0.51314  -0.49706  -0.47179  -0.46415
 Alpha  occ. eigenvalues --   -0.45910  -0.39403  -0.34805  -0.34353  -0.32292
 Alpha  occ. eigenvalues --   -0.26476
 Alpha virt. eigenvalues --    0.03444   0.03490   0.04034   0.04744   0.04937
 Alpha virt. eigenvalues --    0.05345   0.05963   0.06105   0.07452   0.08462
 Alpha virt. eigenvalues --    0.09389   0.09930   0.10290   0.10426   0.10789

 Mulliken charges:
               1
     1  C    0.459312
     2  C   -0.428121
     3  C    0.639086
     4  C    0.445751
     5  C   -0.390100
     6  H   -0.471161
     7  S    0.454346
     8  H   -0.350348
     9  C   -0.055090
    10  S    0.517187
    11  C   -0.701390
    12  C   -0.218046
    13  C    0.264505
    14  H   -0.488483
    15  S    0.549622
    16  C   -0.177923
    17  C    0.467169
    18  H   -0.360067
    19  H   -0.299649
    20  H   -0.208695
    21  H    0.171186
    22  H    0.180908
 Sum of Mulliken charges =  -0.00000

 Dipole moment (field-independent basis, Debye):
    X=              0.6167    Y=              1.1421    Z=              0.2668  Tot=              1.3250
 Quadrupole moment (field-independent basis, Debye-Ang):
   XX=            -86.9743   YY=            -98.5074   ZZ=           -111.8259
   XY=             -2.3829   XZ=              1.5445   YZ=             -0.5938

 Normal termination of Gaussian 16 at Wed Oct 27 04:20:59 2021.
