 Gaussian 16, Revision C.01,
 Gaussian 16:  ES64L-G16RevC.01  3-Jul-2019

 ----------------------------------
 # opt=modredundant mp2/aug-cc-pvdz
 ----------------------------------

 -------------
 pBTTT_120.pdb
 -------------
 Symbolic Z-matrix:
 Charge =  0 Multiplicity = 1

 SCF Done:  E(RHF) =  -1613.81468583     A.U. after   17 cycles
 E2 =    -0.1927303124D+01 EUMP2 =    -0.16157419889502D+04
 SCF Done:  E(RHF) =  -1613.80609767     A.U. after   15 cycles
 E2 =    -0.1945209561D+01 EUMP2 =    -0.16157513072289D+04
 SCF Done:  E(RHF) =  -1613.80405689     A.U. after   13 cycles
 E2 =    -0.1947867813D+01 EUMP2 =    -0.16157519247043D+04
 SCF Done:  E(RHF) =  -1613.80346035     A.U. after   12 cycles
 E2 =    -0.1948534628D+01 EUMP2 =    -0.16157519949796D+04
 SCF Done:  E(RHF) =  -1613.80349575     A.U. after   11 cycles
 E2 =    -0.1948510528D+01 EUMP2 =    -0.16157520062736D+04
 SCF Done:  E(RHF) =  -1613.80360176     A.U. after   11 cycles
 E2 =    -0.1948413856D+01 EUMP2 =    -0.16157520156164D+04
 SCF Done:  E(RHF) =  -1613.80376752     A.U. after   13 cycles
 E2 =    -0.1948262986D+01 EUMP2 =    -0.16157520305032D+04
 SCF Done:  E(RHF) =  -1613.80373037     A.U. after   11 cycles
 E2 =    -0.1948306578D+01 EUMP2 =    -0.16157520369464D+04
 SCF Done:  E(RHF) =  -1613.80361134     A.U. after   11 cycles
 E2 =    -0.1948429487D+01 EUMP2 =    -0.16157520408280D+04
 SCF Done:  E(RHF) =  -1613.80358562     A.U. after    9 cycles
 E2 =    -0.1948455622D+01 EUMP2 =    -0.16157520412464D+04
 Optimization completed.
    -- Stationary point found.

                         Standard orientation:
 ---------------------------------------------------------------------
 Center     Atomic      Atomic             Coordinates (Angstroms)
 Number     Number       Type             X           Y           Z
 ---------------------------------------------------------------------
      1          6           0       -3.947464    0.788223    0.215195
      2          6           0       -2.557688    1.064997    0.382461
      3          6           0       -1.758927    0.021712   -0.111387
      4          6           0       -2.003420    2.312603    1.023108
      5          6           0       -4.199107   -0.446740   -0.375687
      6          1           0       -4.746067    1.464116    0.532937
      7         16           0       -2.730640   -1.280463   -0.749873
      8          1           0       -5.161852   -0.903637   -0.607451
      9          6           0       -0.303430   -0.068321   -0.088644
     10         16           0        0.492053   -1.400498    0.754894
     11          6           0        2.066016   -0.749348    0.391602
     12          6           0        1.951582    0.464247   -0.333157
     13          6           0        0.610998    0.849766   -0.609481
     14          1           0        0.295371    1.730049   -1.173401
     15         16           0        3.526185    1.113289   -0.699843
     16          6           0        4.307363   -0.226946    0.108657
     17          6           0        3.412657   -1.146181    0.642394
     18          1           0        5.397175   -0.260395    0.147815
     19          1           0        3.724753   -2.043123    1.180215
     20          1           0       -2.612605    2.603151    1.893443
     21          1           0       -2.002874    3.159525    0.316548
     22          1           0       -0.966962    2.148986    1.356693
 ---------------------------------------------------------------------

 The electronic state is 1-A.
 Alpha  occ. eigenvalues --  -91.99525 -91.99430 -91.98984 -11.29374 -11.28508
 Alpha  occ. eigenvalues --  -11.28084 -11.27986 -11.27983 -11.27973 -11.26563
 Alpha  occ. eigenvalues --  -11.26523 -11.26177 -11.25140 -11.24128  -8.99635
 Alpha  occ. eigenvalues --   -8.99517  -8.99143  -6.67801  -6.67720  -6.67679
 Alpha  occ. eigenvalues --   -6.67594  -6.67524  -6.67397  -6.67305  -6.67213
 Alpha  occ. eigenvalues --   -6.67035  -1.20638  -1.17718  -1.11850  -1.03609
 Alpha  occ. eigenvalues --   -1.02586  -1.01233  -0.94977  -0.94418  -0.91263
 Alpha  occ. eigenvalues --   -0.82005  -0.76784  -0.76112  -0.72495  -0.69691
 Alpha  occ. eigenvalues --   -0.66724  -0.66218  -0.60289  -0.58751  -0.58614
 Alpha  occ. eigenvalues --   -0.56667  -0.55733  -0.54189  -0.53680  -0.52430
 Alpha  occ. eigenvalues --   -0.51806  -0.50822  -0.49515  -0.47526  -0.46293
 Alpha  occ. eigenvalues --   -0.45883  -0.39054  -0.34376  -0.33354  -0.32132
 Alpha  occ. eigenvalues --   -0.28012
 Alpha virt. eigenvalues --    0.03428   0.03529   0.04088   0.04757   0.04915
 Alpha virt. eigenvalues --    0.05534   0.06542   0.06770   0.07491   0.08412
 Alpha virt. eigenvalues --    0.08738   0.09176   0.09974   0.10572   0.10634

 Mulliken charges:
               1
     1  C    0.542100
     2  C   -0.672484
     3  C    0.695774
     4  C    0.356608
     5  C   -0.370765
     6  H   -0.434886
     7  S    0.353748
     8  H   -0.333672
     9  C    0.277641
    10  S    0.413794
    11  C   -0.725947
    12  C   -0.286630
    13  C    0.131917
    14  H   -0.439022
    15  S    0.625269
    16  C   -0.102402
    17  C    0.557231
    18  H   -0.351029
    19  H   -0.296064
    20  H   -0.046408
    21  H    0.118428
    22  H   -0.013201
 Sum of Mulliken charges =  -0.00000

 Dipole moment (field-independent basis, Debye):
    X=             -0.3194    Y=              1.0266    Z=              0.5618  Tot=              1.2130
 Quadrupole moment (field-independent basis, Debye-Ang):
   XX=            -87.6868   YY=           -101.2814   ZZ=           -108.9326
   XY=             -5.6449   XZ=              1.4726   YZ=             -1.3438

 Normal termination of Gaussian 16 at Wed Oct 27 07:16:33 2021.
