 Gaussian 16, Revision C.01,
 Gaussian 16:  ES64L-G16RevC.01  3-Jul-2019

 ----------------------------------
 # opt=modredundant mp2/aug-cc-pvdz
 ----------------------------------

 -------------
 pBTTT_-70.pdb
 -------------
 Symbolic Z-matrix:
 Charge =  0 Multiplicity = 1

 SCF Done:  E(RHF) =  -1613.81483415     A.U. after   17 cycles
 E2 =    -0.1926955789D+01 EUMP2 =    -0.16157417899430D+04
 SCF Done:  E(RHF) =  -1613.80619510     A.U. after   15 cycles
 E2 =    -0.1944774256D+01 EUMP2 =    -0.16157509693536D+04
 SCF Done:  E(RHF) =  -1613.80431098     A.U. after   13 cycles
 E2 =    -0.1947202412D+01 EUMP2 =    -0.16157515133931D+04
 SCF Done:  E(RHF) =  -1613.80376046     A.U. after   13 cycles
 E2 =    -0.1947810025D+01 EUMP2 =    -0.16157515704820D+04
 SCF Done:  E(RHF) =  -1613.80381693     A.U. after   11 cycles
 E2 =    -0.1947759141D+01 EUMP2 =    -0.16157515760688D+04
 SCF Done:  E(RHF) =  -1613.80393318     A.U. after   11 cycles
 E2 =    -0.1947649271D+01 EUMP2 =    -0.16157515824537D+04
 SCF Done:  E(RHF) =  -1613.80404608     A.U. after   12 cycles
 E2 =    -0.1947544914D+01 EUMP2 =    -0.16157515909940D+04
 SCF Done:  E(RHF) =  -1613.80407782     A.U. after   12 cycles
 E2 =    -0.1947519124D+01 EUMP2 =    -0.16157515969403D+04
 SCF Done:  E(RHF) =  -1613.80394075     A.U. after   11 cycles
 E2 =    -0.1947662399D+01 EUMP2 =    -0.16157516031511D+04
 SCF Done:  E(RHF) =  -1613.80387421     A.U. after   11 cycles
 E2 =    -0.1947730813D+01 EUMP2 =    -0.16157516050237D+04
 SCF Done:  E(RHF) =  -1613.80388983     A.U. after    9 cycles
 E2 =    -0.1947715318D+01 EUMP2 =    -0.16157516051494D+04
 SCF Done:  E(RHF) =  -1613.80389637     A.U. after    8 cycles
 E2 =    -0.1947708792D+01 EUMP2 =    -0.16157516051599D+04
 Optimization completed.
    -- Stationary point found.

                         Standard orientation:
 ---------------------------------------------------------------------
 Center     Atomic      Atomic             Coordinates (Angstroms)
 Number     Number       Type             X           Y           Z
 ---------------------------------------------------------------------
      1          6           0       -4.006981    0.363748    0.442311
      2          6           0       -2.652461    0.786131    0.593409
      3          6           0       -1.758226   -0.120624    0.006491
      4          6           0       -2.215939    2.042518    1.304689
      5          6           0       -4.136638   -0.843526   -0.238943
      6          1           0       -4.865956    0.916781    0.831947
      7         16           0       -2.596283   -1.470416   -0.713504
      8          1           0       -5.048750   -1.391243   -0.478828
      9          6           0       -0.298239   -0.050490   -0.021276
     10         16           0        0.502210    1.179922   -1.001727
     11          6           0        2.074471    0.604217   -0.523214
     12          6           0        1.955482   -0.512640    0.342974
     13          6           0        0.612745   -0.885241    0.628083
     14          1           0        0.290911   -1.702756    1.276645
     15         16           0        3.527204   -1.088722    0.824652
     16          6           0        4.313570    0.152169   -0.124573
     17          6           0        3.422761    0.985247   -0.789841
     18          1           0        5.403550    0.196520   -0.140760
     19          1           0        3.738714    1.812551   -1.427681
     20          1           0       -2.764550    2.161724    2.252515
     21          1           0       -2.408873    2.936512    0.688726
     22          1           0       -1.138419    2.008330    1.526028
 ---------------------------------------------------------------------

 The electronic state is 1-A.
 Alpha  occ. eigenvalues --  -91.99513 -91.99402 -91.98972 -11.29312 -11.28540
 Alpha  occ. eigenvalues --  -11.28087 -11.27960 -11.27919 -11.27852 -11.26578
 Alpha  occ. eigenvalues --  -11.26562 -11.26086 -11.25068 -11.23974  -8.99625
 Alpha  occ. eigenvalues --   -8.99488  -8.99117  -6.67791  -6.67710  -6.67650
 Alpha  occ. eigenvalues --   -6.67564  -6.67514  -6.67368  -6.67277  -6.67186
 Alpha  occ. eigenvalues --   -6.67009  -1.20618  -1.17665  -1.11840  -1.03419
 Alpha  occ. eigenvalues --   -1.02699  -1.01108  -0.94935  -0.94419  -0.91175
 Alpha  occ. eigenvalues --   -0.81924  -0.76993  -0.75950  -0.72190  -0.69722
 Alpha  occ. eigenvalues --   -0.66698  -0.66217  -0.60112  -0.58867  -0.58507
 Alpha  occ. eigenvalues --   -0.56850  -0.55677  -0.54153  -0.53459  -0.52376
 Alpha  occ. eigenvalues --   -0.51714  -0.50908  -0.49429  -0.47512  -0.46277
 Alpha  occ. eigenvalues --   -0.45715  -0.39008  -0.34303  -0.32627  -0.32210
 Alpha  occ. eigenvalues --   -0.28617
 Alpha virt. eigenvalues --    0.03456   0.03489   0.04189   0.04666   0.04858
 Alpha virt. eigenvalues --    0.05818   0.06059   0.07033   0.07451   0.08522
 Alpha virt. eigenvalues --    0.08649   0.09135   0.10016   0.10235   0.10980

 Mulliken charges:
               1
     1  C    0.530310
     2  C   -0.759043
     3  C    0.721060
     4  C    0.355377
     5  C   -0.328622
     6  H   -0.433947
     7  S    0.337007
     8  H   -0.332943
     9  C    0.326399
    10  S    0.363801
    11  C   -0.696869
    12  C   -0.317917
    13  C    0.130538
    14  H   -0.444277
    15  S    0.633056
    16  C   -0.116840
    17  C    0.611403
    18  H   -0.354020
    19  H   -0.295227
    20  H   -0.004168
    21  H    0.125989
    22  H   -0.051068
 Sum of Mulliken charges =  -0.00000

 Dipole moment (field-independent basis, Debye):
    X=             -0.3577    Y=              0.9618    Z=              0.6527  Tot=              1.2161
 Quadrupole moment (field-independent basis, Debye-Ang):
   XX=            -87.4351   YY=           -102.6661   ZZ=           -107.5842
   XY=              2.1046   XZ=             -4.0518   YZ=             -1.3805

 Normal termination of Gaussian 16 at Wed Oct 27 01:54:10 2021.
