 Gaussian 16, Revision C.01,
 Gaussian 16:  ES64L-G16RevC.01  3-Jul-2019

 ----------------------------------
 # opt=modredundant mp2/aug-cc-pvdz
 ----------------------------------

 -------------
 pBTTT_155.pdb
 -------------
 Symbolic Z-matrix:
 Charge =  0 Multiplicity = 1

 SCF Done:  E(RHF) =  -1613.81272420     A.U. after   17 cycles
 E2 =    -0.1929685397D+01 EUMP2 =    -0.16157424095921D+04
 SCF Done:  E(RHF) =  -1613.80410275     A.U. after   15 cycles
 E2 =    -0.1947462131D+01 EUMP2 =    -0.16157515648861D+04
 SCF Done:  E(RHF) =  -1613.80238637     A.U. after   13 cycles
 E2 =    -0.1949709489D+01 EUMP2 =    -0.16157520958639D+04
 SCF Done:  E(RHF) =  -1613.80183399     A.U. after   12 cycles
 E2 =    -0.1950333743D+01 EUMP2 =    -0.16157521677338D+04
 SCF Done:  E(RHF) =  -1613.80191978     A.U. after   11 cycles
 E2 =    -0.1950259756D+01 EUMP2 =    -0.16157521795359D+04
 SCF Done:  E(RHF) =  -1613.80202909     A.U. after   11 cycles
 E2 =    -0.1950156567D+01 EUMP2 =    -0.16157521856561D+04
 SCF Done:  E(RHF) =  -1613.80207266     A.U. after   11 cycles
 E2 =    -0.1950115946D+01 EUMP2 =    -0.16157521886074D+04
 SCF Done:  E(RHF) =  -1613.80205295     A.U. after   11 cycles
 E2 =    -0.1950136161D+01 EUMP2 =    -0.16157521891131D+04
 Optimization completed.
    -- Stationary point found.

                         Standard orientation:
 ---------------------------------------------------------------------
 Center     Atomic      Atomic             Coordinates (Angstroms)
 Number     Number       Type             X           Y           Z
 ---------------------------------------------------------------------
      1          6           0       -3.966553    0.807145    0.048215
      2          6           0       -2.589248    1.149074    0.184192
      3          6           0       -1.754335    0.033354   -0.013178
      4          6           0       -2.097587    2.531092    0.533775
      5          6           0       -4.182659   -0.535338   -0.246868
      6          1           0       -4.783132    1.522941    0.175964
      7         16           0       -2.689396   -1.398210   -0.377580
      8          1           0       -5.129173   -1.057549   -0.389081
      9          6           0       -0.302696   -0.026385    0.019354
     10         16           0        0.503194   -1.555099    0.402208
     11          6           0        2.074438   -0.834922    0.188410
     12          6           0        1.955251    0.535857   -0.148997
     13          6           0        0.614623    0.995345   -0.254286
     14          1           0        0.313952    1.999071   -0.555421
     15         16           0        3.527748    1.257926   -0.353328
     16          6           0        4.313316   -0.262055    0.010935
     17          6           0        3.420818   -1.292538    0.281612
     18          1           0        5.403196   -0.311175    0.004726
     19          1           0        3.735836   -2.307895    0.528481
     20          1           0       -2.896845    3.105055    1.026939
     21          1           0       -1.789163    3.091896   -0.365202
     22          1           0       -1.231634    2.480024    1.213806
 ---------------------------------------------------------------------

 The electronic state is 1-A.
 Alpha  occ. eigenvalues --  -91.99509 -91.99411 -91.99108 -11.29760 -11.28439
 Alpha  occ. eigenvalues --  -11.28383 -11.28089 -11.27986 -11.27941 -11.26555
 Alpha  occ. eigenvalues --  -11.26426 -11.26241 -11.25296 -11.24563  -8.99619
 Alpha  occ. eigenvalues --   -8.99530  -8.99284  -6.67785  -6.67705  -6.67695
 Alpha  occ. eigenvalues --   -6.67610  -6.67509  -6.67448  -6.67409  -6.67355
 Alpha  occ. eigenvalues --   -6.67175  -1.20700  -1.17841  -1.11873  -1.03955
 Alpha  occ. eigenvalues --   -1.02533  -1.01495  -0.95007  -0.94397  -0.91577
 Alpha  occ. eigenvalues --   -0.82177  -0.76819  -0.76516  -0.72395  -0.69940
 Alpha  occ. eigenvalues --   -0.66812  -0.66265  -0.60265  -0.58960  -0.58836
 Alpha  occ. eigenvalues --   -0.56454  -0.55931  -0.54646  -0.53874  -0.52437
 Alpha  occ. eigenvalues --   -0.51851  -0.51057  -0.49685  -0.47545  -0.46414
 Alpha  occ. eigenvalues --   -0.45879  -0.39362  -0.34828  -0.34300  -0.32278
 Alpha  occ. eigenvalues --   -0.26631
 Alpha virt. eigenvalues --    0.03382   0.03544   0.03991   0.04902   0.04980
 Alpha virt. eigenvalues --    0.05364   0.05646   0.06767   0.07899   0.08248
 Alpha virt. eigenvalues --    0.08786   0.09863   0.10133   0.10730   0.10789

 Mulliken charges:
               1
     1  C    0.435380
     2  C   -0.289321
     3  C    0.359181
     4  C    0.380188
     5  C   -0.350588
     6  H   -0.461650
     7  S    0.465526
     8  H   -0.345855
     9  C   -0.012659
    10  S    0.467908
    11  C   -0.580417
    12  C   -0.352473
    13  C    0.420289
    14  H   -0.522103
    15  S    0.560097
    16  C   -0.144510
    17  C    0.465442
    18  H   -0.358369
    19  H   -0.299665
    20  H   -0.215749
    21  H    0.209513
    22  H    0.169832
 Sum of Mulliken charges =  -0.00000

 Dipole moment (field-independent basis, Debye):
    X=             -0.4461    Y=              1.0461    Z=              0.1892  Tot=              1.1529
 Quadrupole moment (field-independent basis, Debye-Ang):
   XX=            -87.3546   YY=            -98.5003   ZZ=           -111.6566
   XY=             -6.4426   XZ=              0.7260   YZ=             -0.5894

 Normal termination of Gaussian 16 at Wed Oct 27 07:31:09 2021.
