 Gaussian 16, Revision C.01,
 Gaussian 16:  ES64L-G16RevC.01  3-Jul-2019

 ----------------------------------
 # opt=modredundant mp2/aug-cc-pvdz
 ----------------------------------

 ------------
 pBTTT_75.pdb
 ------------
 Symbolic Z-matrix:
 Charge =  0 Multiplicity = 1

 SCF Done:  E(RHF) =  -1613.81342513     A.U. after   17 cycles
 E2 =    -0.1928170910D+01 EUMP2 =    -0.16157415960355D+04
 SCF Done:  E(RHF) =  -1613.80484255     A.U. after   15 cycles
 E2 =    -0.1945295646D+01 EUMP2 =    -0.16157501381953D+04
 SCF Done:  E(RHF) =  -1613.80302921     A.U. after   14 cycles
 E2 =    -0.1947622408D+01 EUMP2 =    -0.16157506516196D+04
 SCF Done:  E(RHF) =  -1613.80252991     A.U. after   13 cycles
 E2 =    -0.1948170269D+01 EUMP2 =    -0.16157507001748D+04
 SCF Done:  E(RHF) =  -1613.80259511     A.U. after   12 cycles
 E2 =    -0.1948107694D+01 EUMP2 =    -0.16157507028008D+04
 SCF Done:  E(RHF) =  -1613.80269933     A.U. after   11 cycles
 E2 =    -0.1948008365D+01 EUMP2 =    -0.16157507076956D+04
 SCF Done:  E(RHF) =  -1613.80274337     A.U. after   11 cycles
 E2 =    -0.1947967192D+01 EUMP2 =    -0.16157507105665D+04
 SCF Done:  E(RHF) =  -1613.80291466     A.U. after   12 cycles
 E2 =    -0.1947804328D+01 EUMP2 =    -0.16157507189886D+04
 SCF Done:  E(RHF) =  -1613.80284973     A.U. after   13 cycles
 E2 =    -0.1947902020D+01 EUMP2 =    -0.16157507517539D+04
 SCF Done:  E(RHF) =  -1613.80204690     A.U. after   14 cycles
 E2 =    -0.1948283651D+01 EUMP2 =    -0.16157503305513D+04
 E2 =    -0.1948046179D+01 EUMP2 =    -0.16157508078097D+04
 E2 =    -0.1948906454D+01 EUMP2 =    -0.16157509001715D+04
 E2 =    -0.1948686242D+01 EUMP2 =    -0.16157504938464D+04
 E2 =    -0.1944755380D+01 EUMP2 =    -0.16157504253959D+04
 SCF Done:  E(RHF) =  -1613.80304045     A.U. after   14 cycles
 E2 =    -0.1948136659D+01 EUMP2 =    -0.16157511771099D+04
 SCF Done:  E(RHF) =  -1613.80351511     A.U. after   12 cycles
 E2 =    -0.1947745915D+01 EUMP2 =    -0.16157512610243D+04
 SCF Done:  E(RHF) =  -1613.80416406     A.U. after   14 cycles
 E2 =    -0.1947227426D+01 EUMP2 =    -0.16157513914869D+04
 SCF Done:  E(RHF) =  -1613.80412526     A.U. after   11 cycles
 E2 =    -0.1947278968D+01 EUMP2 =    -0.16157514042295D+04
 SCF Done:  E(RHF) =  -1613.80395479     A.U. after   13 cycles
 E2 =    -0.1947470097D+01 EUMP2 =    -0.16157514248834D+04
 SCF Done:  E(RHF) =  -1613.80367761     A.U. after   13 cycles
 E2 =    -0.1947737362D+01 EUMP2 =    -0.16157514149725D+04
 SCF Done:  E(RHF) =  -1613.80391671     A.U. after   12 cycles
 E2 =    -0.1947507582D+01 EUMP2 =    -0.16157514242937D+04
 SCF Done:  E(RHF) =  -1613.80385478     A.U. after   12 cycles
 E2 =    -0.1947572377D+01 EUMP2 =    -0.16157514271603D+04
 SCF Done:  E(RHF) =  -1613.80386712     A.U. after   11 cycles
 E2 =    -0.1947562441D+01 EUMP2 =    -0.16157514295618D+04
 SCF Done:  E(RHF) =  -1613.80389009     A.U. after    9 cycles
 E2 =    -0.1947539555D+01 EUMP2 =    -0.16157514296402D+04
 Optimization completed.
    -- Stationary point found.

                         Standard orientation:
 ---------------------------------------------------------------------
 Center     Atomic      Atomic             Coordinates (Angstroms)
 Number     Number       Type             X           Y           Z
 ---------------------------------------------------------------------
      1          6           0        3.998325    0.383080    0.476694
      2          6           0        2.636772    0.783530    0.625834
      3          6           0        1.759830   -0.120643    0.010379
      4          6           0        2.174677    2.017781    1.358791
      5          6           0        4.149342   -0.804725   -0.233559
      6          1           0        4.846901    0.938441    0.885306
      7         16           0        2.621482   -1.441042   -0.735407
      8          1           0        5.070725   -1.333556   -0.480391
      9          6           0        0.298613   -0.059964   -0.029434
     10         16           0       -0.501583    1.099044   -1.093106
     11          6           0       -2.073808    0.562346   -0.571333
     12          6           0       -1.954850   -0.487214    0.375367
     13          6           0       -0.611920   -0.841343    0.683039
     14          1           0       -0.289528   -1.610823    1.387632
     15         16           0       -3.526489   -1.025312    0.899369
     16          6           0       -4.312926    0.141736   -0.139229
     17          6           0       -3.422280    0.922464   -0.865310
     18          1           0       -5.402882    0.185972   -0.157167
     19          1           0       -3.738325    1.700233   -1.562644
     20          1           0        2.656087    2.086418    2.347460
     21          1           0        1.083788    1.996374    1.502320
     22          1           0        2.428022    2.931631    0.796358
 ---------------------------------------------------------------------

 The electronic state is 1-A.
 Alpha  occ. eigenvalues --  -91.99518 -91.99394 -91.98951 -11.29279 -11.28549
 Alpha  occ. eigenvalues --  -11.28090 -11.27957 -11.27925 -11.27815 -11.26592
 Alpha  occ. eigenvalues --  -11.26563 -11.26085 -11.25049 -11.23958  -8.99630
 Alpha  occ. eigenvalues --   -8.99477  -8.99095  -6.67796  -6.67715  -6.67639
 Alpha  occ. eigenvalues --   -6.67553  -6.67519  -6.67358  -6.67255  -6.67163
 Alpha  occ. eigenvalues --   -6.66986  -1.20610  -1.17653  -1.11836  -1.03400
 Alpha  occ. eigenvalues --   -1.02698  -1.01079  -0.94936  -0.94426  -0.91150
 Alpha  occ. eigenvalues --   -0.81908  -0.76953  -0.75918  -0.72261  -0.69699
 Alpha  occ. eigenvalues --   -0.66685  -0.66213  -0.60136  -0.58849  -0.58501
 Alpha  occ. eigenvalues --   -0.56850  -0.55660  -0.54132  -0.53457  -0.52378
 Alpha  occ. eigenvalues --   -0.51696  -0.50876  -0.49406  -0.47530  -0.46277
 Alpha  occ. eigenvalues --   -0.45677  -0.38985  -0.34281  -0.32341  -0.32207
 Alpha  occ. eigenvalues --   -0.28912
 Alpha virt. eigenvalues --    0.03445   0.03488   0.04195   0.04643   0.04868
 Alpha virt. eigenvalues --    0.05776   0.06090   0.07238   0.07451   0.08476
 Alpha virt. eigenvalues --    0.08661   0.09072   0.09809   0.10211   0.10987

 Mulliken charges:
               1
     1  C    0.569180
     2  C   -0.858618
     3  C    0.755825
     4  C    0.362526
     5  C   -0.337387
     6  H   -0.433179
     7  S    0.332246
     8  H   -0.332651
     9  C    0.366296
    10  S    0.361425
    11  C   -0.704455
    12  C   -0.338060
    13  C    0.127070
    14  H   -0.443209
    15  S    0.636327
    16  C   -0.108921
    17  C    0.630752
    18  H   -0.354126
    19  H   -0.295578
    20  H    0.021698
    21  H   -0.075776
    22  H    0.118613
 Sum of Mulliken charges =  -0.00000

 Dipole moment (field-independent basis, Debye):
    X=              0.3352    Y=              0.9575    Z=              0.6785  Tot=              1.2205
 Quadrupole moment (field-independent basis, Debye-Ang):
   XX=            -87.4808   YY=           -103.4033   ZZ=           -106.8457
   XY=             -1.9032   XZ=              4.3418   YZ=             -1.4222

 Normal termination of Gaussian 16 at Wed Oct 27 06:41:42 2021.
