 Gaussian 16, Revision C.01,
 Gaussian 16:  ES64L-G16RevC.01  3-Jul-2019

 ----------------------------------
 # opt=modredundant mp2/aug-cc-pvdz
 ----------------------------------

 -------------
 pBTTT_125.pdb
 -------------
 Symbolic Z-matrix:
 Charge =  0 Multiplicity = 1

 SCF Done:  E(RHF) =  -1613.81463413     A.U. after   17 cycles
 E2 =    -0.1927608935D+01 EUMP2 =    -0.16157422430600D+04
 SCF Done:  E(RHF) =  -1613.80603220     A.U. after   15 cycles
 E2 =    -0.1945490046D+01 EUMP2 =    -0.16157515222481D+04
 SCF Done:  E(RHF) =  -1613.80402076     A.U. after   13 cycles
 E2 =    -0.1948107856D+01 EUMP2 =    -0.16157521286141D+04
 SCF Done:  E(RHF) =  -1613.80343926     A.U. after   12 cycles
 E2 =    -0.1948761751D+01 EUMP2 =    -0.16157522010140D+04
 SCF Done:  E(RHF) =  -1613.80345113     A.U. after   12 cycles
 E2 =    -0.1948764276D+01 EUMP2 =    -0.16157522154092D+04
 SCF Done:  E(RHF) =  -1613.80355931     A.U. after   11 cycles
 E2 =    -0.1948667707D+01 EUMP2 =    -0.16157522270201D+04
 SCF Done:  E(RHF) =  -1613.80373990     A.U. after   13 cycles
 E2 =    -0.1948504769D+01 EUMP2 =    -0.16157522446736D+04
 SCF Done:  E(RHF) =  -1613.80369193     A.U. after   11 cycles
 E2 =    -0.1948559764D+01 EUMP2 =    -0.16157522516981D+04
 SCF Done:  E(RHF) =  -1613.80358157     A.U. after   10 cycles
 E2 =    -0.1948672728D+01 EUMP2 =    -0.16157522543005D+04
 Optimization completed.
    -- Stationary point found.

                         Standard orientation:
 ---------------------------------------------------------------------
 Center     Atomic      Atomic             Coordinates (Angstroms)
 Number     Number       Type             X           Y           Z
 ---------------------------------------------------------------------
      1          6           0       -3.948959    0.795680    0.196336
      2          6           0       -2.560259    1.082195    0.354893
      3          6           0       -1.758086    0.023981   -0.101763
      4          6           0       -2.011920    2.352671    0.954602
      5          6           0       -4.197298   -0.459251   -0.352288
      6          1           0       -4.749567    1.479484    0.491291
      7         16           0       -2.726392   -1.300746   -0.698357
      8          1           0       -5.158747   -0.926641   -0.567762
      9          6           0       -0.303593   -0.062614   -0.078827
     10         16           0        0.493274   -1.433691    0.699476
     11          6           0        2.066715   -0.767778    0.361328
     12          6           0        1.951460    0.478432   -0.305331
     13          6           0        0.610622    0.877640   -0.559718
     14          1           0        0.295772    1.781103   -1.085997
     15         16           0        3.525666    1.142519   -0.645971
     16          6           0        4.307753   -0.234649    0.096882
     17          6           0        3.413608   -1.176973    0.589686
     18          1           0        5.397619   -0.271190    0.131305
     19          1           0        3.726534   -2.098276    1.084096
     20          1           0       -2.652254    2.695699    1.782295
     21          1           0       -1.967337    3.163065    0.207664
     22          1           0       -0.993032    2.191452    1.339952
 ---------------------------------------------------------------------

 The electronic state is 1-A.
 Alpha  occ. eigenvalues --  -91.99522 -91.99436 -91.99009 -11.29419 -11.28492
 Alpha  occ. eigenvalues --  -11.28085 -11.28039 -11.27983 -11.27971 -11.26560
 Alpha  occ. eigenvalues --  -11.26508 -11.26186 -11.25167 -11.24181  -8.99632
 Alpha  occ. eigenvalues --   -8.99526  -8.99170  -6.67798  -6.67718  -6.67688
 Alpha  occ. eigenvalues --   -6.67603  -6.67521  -6.67405  -6.67331  -6.67240
 Alpha  occ. eigenvalues --   -6.67061  -1.20649  -1.17738  -1.11856  -1.03658
 Alpha  occ. eigenvalues --   -1.02573  -1.01276  -0.94984  -0.94415  -0.91303
 Alpha  occ. eigenvalues --   -0.82032  -0.76780  -0.76172  -0.72486  -0.69714
 Alpha  occ. eigenvalues --   -0.66737  -0.66222  -0.60291  -0.58762  -0.58650
 Alpha  occ. eigenvalues --   -0.56631  -0.55757  -0.54229  -0.53726  -0.52433
 Alpha  occ. eigenvalues --   -0.51826  -0.50842  -0.49545  -0.47523  -0.46296
 Alpha  occ. eigenvalues --   -0.45932  -0.39091  -0.34412  -0.33563  -0.32171
 Alpha  occ. eigenvalues --   -0.27759
 Alpha virt. eigenvalues --    0.03425   0.03533   0.04074   0.04787   0.04918
 Alpha virt. eigenvalues --    0.05524   0.06441   0.06728   0.07509   0.08398
 Alpha virt. eigenvalues --    0.08720   0.09284   0.10033   0.10572   0.10750

 Mulliken charges:
               1
     1  C    0.515177
     2  C   -0.596489
     3  C    0.653449
     4  C    0.356034
     5  C   -0.365912
     6  H   -0.436709
     7  S    0.363099
     8  H   -0.333712
     9  C    0.246083
    10  S    0.421184
    11  C   -0.715181
    12  C   -0.289393
    13  C    0.147728
    14  H   -0.437422
    15  S    0.619362
    16  C   -0.106267
    17  C    0.542582
    18  H   -0.351732
    19  H   -0.295964
    20  H   -0.070721
    21  H    0.122737
    22  H    0.012067
 Sum of Mulliken charges =  -0.00000

 Dipole moment (field-independent basis, Debye):
    X=             -0.3368    Y=              1.0280    Z=              0.5184  Tot=              1.1995
 Quadrupole moment (field-independent basis, Debye-Ang):
   XX=            -87.6592   YY=           -100.7820   ZZ=           -109.4272
   XY=             -5.7808   XZ=              1.3377   YZ=             -1.2659

 Normal termination of Gaussian 16 at Wed Oct 27 06:58:59 2021.
