 Gaussian 16, Revision C.01,
 Gaussian 16:  ES64L-G16RevC.01  3-Jul-2019

 ----------------------------------
 # opt=modredundant mp2/aug-cc-pvdz
 ----------------------------------

 -----------
 pBTTT_0.pdb
 -----------
 Symbolic Z-matrix:
 Charge =  0 Multiplicity = 1

 SCF Done:  E(RHF) =  -1613.81180217     A.U. after   17 cycles
 E2 =    -0.1930239118D+01 EUMP2 =    -0.16157420412879D+04
 SCF Done:  E(RHF) =  -1613.80286648     A.U. after   16 cycles
 E2 =    -0.1948359556D+01 EUMP2 =    -0.16157512260366D+04
 SCF Done:  E(RHF) =  -1613.80134009     A.U. after   14 cycles
 E2 =    -0.1950374726D+01 EUMP2 =    -0.16157517148204D+04
 SCF Done:  E(RHF) =  -1613.80068832     A.U. after   14 cycles
 E2 =    -0.1951086452D+01 EUMP2 =    -0.16157517747759D+04
 SCF Done:  E(RHF) =  -1613.80101456     A.U. after   13 cycles
 E2 =    -0.1950770902D+01 EUMP2 =    -0.16157517854597D+04
 SCF Done:  E(RHF) =  -1613.80107410     A.U. after   10 cycles
 E2 =    -0.1950711974D+01 EUMP2 =    -0.16157517860692D+04
 Optimization completed.
    -- Stationary point found.

                         Standard orientation:
 ---------------------------------------------------------------------
 Center     Atomic      Atomic             Coordinates (Angstroms)
 Number     Number       Type             X           Y           Z
 ---------------------------------------------------------------------
      1          6           0       -4.053529    0.292376    0.000046
      2          6           0       -2.743124    0.856446    0.000055
      3          6           0       -1.745189   -0.138416    0.000001
      4          6           0       -2.493306    2.344648    0.000109
      5          6           0       -4.067405   -1.096911   -0.000013
      6          1           0       -4.966177    0.894125    0.000079
      7         16           0       -2.460459   -1.737619   -0.000050
      8          1           0       -4.923340   -1.772170   -0.000036
      9          6           0       -0.296562   -0.028018   -0.000003
     10         16           0        0.513497    1.550745    0.000069
     11          6           0        2.082934    0.801181    0.000023
     12          6           0        1.967194   -0.610416   -0.000046
     13          6           0        0.629324   -1.080559   -0.000060
     14          1           0        0.329827   -2.131140   -0.000110
     15         16           0        3.541730   -1.356827   -0.000091
     16          6           0        4.323651    0.209035   -0.000019
     17          6           0        3.428172    1.271870    0.000039
     18          1           0        5.413542    0.257660   -0.000023
     19          1           0        3.740117    2.317781    0.000089
     20          1           0       -3.453032    2.882945    0.000113
     21          1           0       -1.925076    2.661329   -0.890312
     22          1           0       -1.925101    2.661268    0.890570
 ---------------------------------------------------------------------

 The electronic state is 1-A.
 Alpha  occ. eigenvalues --  -91.99536 -91.99418 -91.99031 -11.29965 -11.28605
 Alpha  occ. eigenvalues --  -11.28346 -11.28080 -11.28064 -11.27794 -11.26523
 Alpha  occ. eigenvalues --  -11.26421 -11.26228 -11.25315 -11.24415  -8.99650
 Alpha  occ. eigenvalues --   -8.99528  -8.99225  -6.67815  -6.67731  -6.67694
 Alpha  occ. eigenvalues --   -6.67613  -6.67529  -6.67417  -6.67395  -6.67300
 Alpha  occ. eigenvalues --   -6.67119  -1.20683  -1.17845  -1.11835  -1.03970
 Alpha  occ. eigenvalues --   -1.02678  -1.01466  -0.94892  -0.94342  -0.91669
 Alpha  occ. eigenvalues --   -0.82191  -0.77585  -0.76196  -0.71421  -0.70122
 Alpha  occ. eigenvalues --   -0.67055  -0.66338  -0.59986  -0.59014  -0.58958
 Alpha  occ. eigenvalues --   -0.56864  -0.55896  -0.54645  -0.53772  -0.52232
 Alpha  occ. eigenvalues --   -0.51659  -0.51645  -0.49728  -0.47026  -0.46620
 Alpha  occ. eigenvalues --   -0.45728  -0.39554  -0.35046  -0.34514  -0.32324
 Alpha  occ. eigenvalues --   -0.26108
 Alpha virt. eigenvalues --    0.03401   0.03476   0.03967   0.04726   0.04987
 Alpha virt. eigenvalues --    0.05072   0.06047   0.06126   0.07381   0.08394
 Alpha virt. eigenvalues --    0.09648   0.09814   0.10309   0.10703   0.10849

 Mulliken charges:
               1
     1  C    0.490649
     2  C   -0.464706
     3  C    0.395381
     4  C    0.523462
     5  C   -0.398924
     6  H   -0.492523
     7  S    0.616143
     8  H   -0.372315
     9  C   -0.033766
    10  S    0.522780
    11  C   -0.747689
    12  C   -0.110715
    13  C    0.274558
    14  H   -0.504443
    15  S    0.497011
    16  C   -0.211266
    17  C    0.492411
    18  H   -0.368377
    19  H   -0.303022
    20  H   -0.219338
    21  H    0.207344
    22  H    0.207343
 Sum of Mulliken charges =  -0.00000

 Dipole moment (field-independent basis, Debye):
    X=             -0.7198    Y=              1.1881    Z=              0.0001  Tot=              1.3891
 Quadrupole moment (field-independent basis, Debye-Ang):
   XX=            -86.7779   YY=            -97.8094   ZZ=           -112.5790
   XY=              2.3004   XZ=             -0.0000   YZ=              0.0006

 Normal termination of Gaussian 16 at Wed Oct 27 03:44:18 2021.
