 Gaussian 16, Revision C.01,
 Gaussian 16:  ES64L-G16RevC.01  3-Jul-2019

 ----------------------------------
 # opt=modredundant mp2/aug-cc-pvdz
 ----------------------------------

 --------------
 pBTTT_-130.pdb
 --------------
 Symbolic Z-matrix:
 Charge =  0 Multiplicity = 1

 SCF Done:  E(RHF) =  -1613.81452183     A.U. after   17 cycles
 E2 =    -0.1927773193D+01 EUMP2 =    -0.16157422950184D+04
 SCF Done:  E(RHF) =  -1613.80594285     A.U. after   15 cycles
 E2 =    -0.1945744217D+01 EUMP2 =    -0.16157516870661D+04
 SCF Done:  E(RHF) =  -1613.80393454     A.U. after   13 cycles
 E2 =    -0.1948358337D+01 EUMP2 =    -0.16157522928784D+04
 SCF Done:  E(RHF) =  -1613.80335937     A.U. after   12 cycles
 E2 =    -0.1949010338D+01 EUMP2 =    -0.16157523697091D+04
 SCF Done:  E(RHF) =  -1613.80334372     A.U. after   12 cycles
 E2 =    -0.1949044067D+01 EUMP2 =    -0.16157523877901D+04
 SCF Done:  E(RHF) =  -1613.80346417     A.U. after   11 cycles
 E2 =    -0.1948937649D+01 EUMP2 =    -0.16157524018164D+04
 SCF Done:  E(RHF) =  -1613.80366254     A.U. after   12 cycles
 E2 =    -0.1948758164D+01 EUMP2 =    -0.16157524207057D+04
 SCF Done:  E(RHF) =  -1613.80360460     A.U. after   11 cycles
 E2 =    -0.1948822606D+01 EUMP2 =    -0.16157524272028D+04
 SCF Done:  E(RHF) =  -1613.80350878     A.U. after   10 cycles
 E2 =    -0.1948920154D+01 EUMP2 =    -0.16157524289342D+04
 SCF Done:  E(RHF) =  -1613.80349465     A.U. after    9 cycles
 E2 =    -0.1948934368D+01 EUMP2 =    -0.16157524290175D+04
 Optimization completed.
    -- Stationary point found.

                         Standard orientation:
 ---------------------------------------------------------------------
 Center     Atomic      Atomic             Coordinates (Angstroms)
 Number     Number       Type             X           Y           Z
 ---------------------------------------------------------------------
      1          6           0        3.951054    0.801302    0.175393
      2          6           0        2.563780    1.097373    0.326771
      3          6           0        1.757215    0.025611   -0.090197
      4          6           0        2.023018    2.390063    0.884497
      5          6           0        4.195193   -0.472123   -0.330838
      6          1           0        4.753696    1.492831    0.445810
      7         16           0        2.721015   -1.320356   -0.646033
      8          1           0        5.154584   -0.950281   -0.531188
      9          6           0        0.303701   -0.056423   -0.066199
     10         16           0       -0.494806   -1.462268    0.646533
     11          6           0       -2.067825   -0.783985    0.331079
     12          6           0       -1.951381    0.490824   -0.278699
     13          6           0       -0.610429    0.902847   -0.509730
     14          1           0       -0.297110    1.827588   -0.998339
     15         16           0       -3.525201    1.168470   -0.593656
     16          6           0       -4.308412   -0.241185    0.084410
     17          6           0       -3.414692   -1.203790    0.537624
     18          1           0       -5.398364   -0.280275    0.112759
     19          1           0       -3.728036   -2.146617    0.989357
     20          1           0        2.693409    2.782090    1.665144
     21          1           0        1.023716    2.236750    1.321518
     22          1           0        1.934648    3.161300    0.100758
 ---------------------------------------------------------------------

 The electronic state is 1-A.
 Alpha  occ. eigenvalues --  -91.99519 -91.99439 -91.99032 -11.29471 -11.28480
 Alpha  occ. eigenvalues --  -11.28093 -11.28089 -11.27986 -11.27966 -11.26559
 Alpha  occ. eigenvalues --  -11.26494 -11.26190 -11.25195 -11.24239  -8.99629
 Alpha  occ. eigenvalues --   -8.99533  -8.99195  -6.67795  -6.67715  -6.67696
 Alpha  occ. eigenvalues --   -6.67611  -6.67518  -6.67413  -6.67357  -6.67266
 Alpha  occ. eigenvalues --   -6.67087  -1.20659  -1.17758  -1.11860  -1.03709
 Alpha  occ. eigenvalues --   -1.02563  -1.01319  -0.94990  -0.94412  -0.91345
 Alpha  occ. eigenvalues --   -0.82061  -0.76783  -0.76236  -0.72472  -0.69743
 Alpha  occ. eigenvalues --   -0.66751  -0.66229  -0.60290  -0.58776  -0.58692
 Alpha  occ. eigenvalues --   -0.56599  -0.55782  -0.54282  -0.53767  -0.52432
 Alpha  occ. eigenvalues --   -0.51842  -0.50865  -0.49575  -0.47520  -0.46299
 Alpha  occ. eigenvalues --   -0.45969  -0.39133  -0.34457  -0.33751  -0.32205
 Alpha  occ. eigenvalues --   -0.27519
 Alpha virt. eigenvalues --    0.03421   0.03536   0.04060   0.04818   0.04921
 Alpha virt. eigenvalues --    0.05515   0.06276   0.06745   0.07535   0.08381
 Alpha virt. eigenvalues --    0.08703   0.09403   0.10057   0.10591   0.10859

 Mulliken charges:
               1
     1  C    0.491000
     2  C   -0.530024
     3  C    0.612738
     4  C    0.355932
     5  C   -0.361614
     6  H   -0.439226
     7  S    0.375987
     8  H   -0.333901
     9  C    0.214250
    10  S    0.430395
    11  C   -0.699922
    12  C   -0.299223
    13  C    0.165730
    14  H   -0.437373
    15  S    0.612030
    16  C   -0.110463
    17  C    0.529098
    18  H   -0.352677
    19  H   -0.295961
    20  H   -0.095727
    21  H    0.038516
    22  H    0.130436
 Sum of Mulliken charges =  -0.00000

 Dipole moment (field-independent basis, Debye):
    X=              0.3552    Y=              1.0298    Z=              0.4709  Tot=              1.1868
 Quadrupole moment (field-independent basis, Debye-Ang):
   XX=            -87.6288   YY=           -100.3145   ZZ=           -109.8889
   XY=              5.9093   XZ=             -1.2111   YZ=             -1.1754

 Normal termination of Gaussian 16 at Wed Oct 27 00:16:50 2021.
