 Gaussian 16, Revision C.01,
 Gaussian 16:  ES64L-G16RevC.01  3-Jul-2019

 ----------------------------------
 # opt=modredundant mp2/aug-cc-pvdz
 ----------------------------------

 --------------
 pBTTT_-175.pdb
 --------------
 Symbolic Z-matrix:
 Charge =  0 Multiplicity = 1

 SCF Done:  E(RHF) =  -1613.81056635     A.U. after   17 cycles
 E2 =    -0.1930678538D+01 EUMP2 =    -0.16157412448888D+04
 SCF Done:  E(RHF) =  -1613.80199068     A.U. after   16 cycles
 E2 =    -0.1948473547D+01 EUMP2 =    -0.16157504642269D+04
 SCF Done:  E(RHF) =  -1613.80037801     A.U. after   14 cycles
 E2 =    -0.1950585090D+01 EUMP2 =    -0.16157509631010D+04
 SCF Done:  E(RHF) =  -1613.79991877     A.U. after   13 cycles
 E2 =    -0.1951090544D+01 EUMP2 =    -0.16157510093104D+04
 SCF Done:  E(RHF) =  -1613.80006353     A.U. after   11 cycles
 E2 =    -0.1950949398D+01 EUMP2 =    -0.16157510129230D+04
 SCF Done:  E(RHF) =  -1613.80011909     A.U. after   11 cycles
 E2 =    -0.1950894519D+01 EUMP2 =    -0.16157510136120D+04
 SCF Done:  E(RHF) =  -1613.80011869     A.U. after    9 cycles
 E2 =    -0.1950895192D+01 EUMP2 =    -0.16157510138820D+04
 SCF Done:  E(RHF) =  -1613.80011082     A.U. after   10 cycles
 E2 =    -0.1950903221D+01 EUMP2 =    -0.16157510140371D+04
 SCF Done:  E(RHF) =  -1613.80010381     A.U. after    8 cycles
 E2 =    -0.1950910272D+01 EUMP2 =    -0.16157510140779D+04
 Optimization completed.
    -- Stationary point found.

                         Standard orientation:
 ---------------------------------------------------------------------
 Center     Atomic      Atomic             Coordinates (Angstroms)
 Number     Number       Type             X           Y           Z
 ---------------------------------------------------------------------
      1          6           0        3.974831    0.806033   -0.001206
      2          6           0        2.599067    1.174450    0.041775
      3          6           0        1.753089    0.046760    0.007609
      4          6           0        2.130628    2.604688    0.129012
      5          6           0        4.186910   -0.566812   -0.070162
      6          1           0        4.792862    1.530922    0.021351
      7         16           0        2.688522   -1.429094   -0.088430
      8          1           0        5.130187   -1.111862   -0.109744
      9          6           0        0.300420   -0.014792    0.017124
     10         16           0       -0.500464   -1.594620    0.100949
     11          6           0       -2.076750   -0.857595    0.043458
     12          6           0       -1.965978    0.551365   -0.032521
     13          6           0       -0.629446    1.033004   -0.050876
     14          1           0       -0.350348    2.082106   -0.124901
     15         16           0       -3.543207    1.290078   -0.085605
     16          6           0       -4.319089   -0.275738   -0.006078
     17          6           0       -3.419301   -1.333573    0.059475
     18          1           0       -5.408758   -0.329209   -0.012713
     19          1           0       -3.727262   -2.379151    0.114452
     20          1           0        2.993389    3.276747    0.249201
     21          1           0        1.456597    2.753350    0.989399
     22          1           0        1.589411    2.908533   -0.783316
 ---------------------------------------------------------------------

 The electronic state is 1-A.
 Alpha  occ. eigenvalues --  -91.99494 -91.99354 -91.99125 -11.29982 -11.28605
 Alpha  occ. eigenvalues --  -11.28423 -11.28046 -11.28025 -11.27912 -11.26549
 Alpha  occ. eigenvalues --  -11.26353 -11.26351 -11.25343 -11.24801  -8.99605
 Alpha  occ. eigenvalues --   -8.99489  -8.99317  -6.67771  -6.67691  -6.67657
 Alpha  occ. eigenvalues --   -6.67571  -6.67495  -6.67483  -6.67390  -6.67367
 Alpha  occ. eigenvalues --   -6.67209  -1.20699  -1.17889  -1.11854  -1.04120
 Alpha  occ. eigenvalues --   -1.02517  -1.01585  -0.94996  -0.94384  -0.91749
 Alpha  occ. eigenvalues --   -0.82234  -0.76871  -0.76674  -0.72337  -0.70122
 Alpha  occ. eigenvalues --   -0.66861  -0.66283  -0.60208  -0.59141  -0.58931
 Alpha  occ. eigenvalues --   -0.56399  -0.56030  -0.54948  -0.53919  -0.52427
 Alpha  occ. eigenvalues --   -0.51777  -0.51238  -0.49727  -0.47582  -0.46537
 Alpha  occ. eigenvalues --   -0.45603  -0.39499  -0.35138  -0.34488  -0.32226
 Alpha  occ. eigenvalues --   -0.26229
 Alpha virt. eigenvalues --    0.03330   0.03544   0.03922   0.04896   0.04976
 Alpha virt. eigenvalues --    0.05021   0.05801   0.06627   0.07928   0.08185
 Alpha virt. eigenvalues --    0.09584   0.09738   0.10230   0.10785   0.11288

 Mulliken charges:
               1
     1  C    0.572334
     2  C   -0.187684
     3  C   -0.027480
     4  C    0.446843
     5  C   -0.325672
     6  H   -0.499754
     7  S    0.495267
     8  H   -0.367248
     9  C   -0.365383
    10  S    0.565727
    11  C   -0.491335
    12  C   -0.172204
    13  C    0.794016
    14  H   -0.715912
    15  S    0.504226
    16  C   -0.215908
    17  C    0.431180
    18  H   -0.361381
    19  H   -0.307180
    20  H   -0.293970
    21  H    0.258833
    22  H    0.262685
 Sum of Mulliken charges =  -0.00000

 Dipole moment (field-independent basis, Debye):
    X=              0.5237    Y=              1.0773    Z=              0.0224  Tot=              1.1980
 Quadrupole moment (field-independent basis, Debye-Ang):
   XX=            -87.1366   YY=            -97.5364   ZZ=           -112.5394
   XY=              6.6354   XZ=             -0.1873   YZ=             -0.1061

 Normal termination of Gaussian 16 at Tue Oct 26 23:18:07 2021.
