 Gaussian 16, Revision C.01,
 Gaussian 16:  ES64L-G16RevC.01  3-Jul-2019

 ----------------------------------
 # opt=modredundant mp2/aug-cc-pvdz
 ----------------------------------

 ------------
 pBTTT_70.pdb
 ------------
 Symbolic Z-matrix:
 Charge =  0 Multiplicity = 1

 SCF Done:  E(RHF) =  -1613.81483408     A.U. after   17 cycles
 E2 =    -0.1926962443D+01 EUMP2 =    -0.16157417965216D+04
 SCF Done:  E(RHF) =  -1613.80619363     A.U. after   15 cycles
 E2 =    -0.1944776613D+01 EUMP2 =    -0.16157509702438D+04
 SCF Done:  E(RHF) =  -1613.80431084     A.U. after   13 cycles
 E2 =    -0.1947202583D+01 EUMP2 =    -0.16157515134256D+04
 SCF Done:  E(RHF) =  -1613.80375988     A.U. after   13 cycles
 E2 =    -0.1947810588D+01 EUMP2 =    -0.16157515704688D+04
 SCF Done:  E(RHF) =  -1613.80381648     A.U. after   11 cycles
 E2 =    -0.1947759589D+01 EUMP2 =    -0.16157515760663D+04
 SCF Done:  E(RHF) =  -1613.80393292     A.U. after   11 cycles
 E2 =    -0.1947649541D+01 EUMP2 =    -0.16157515824608D+04
 SCF Done:  E(RHF) =  -1613.80404611     A.U. after   12 cycles
 E2 =    -0.1947544875D+01 EUMP2 =    -0.16157515909825D+04
 SCF Done:  E(RHF) =  -1613.80407786     A.U. after   12 cycles
 E2 =    -0.1947519034D+01 EUMP2 =    -0.16157515968915D+04
 SCF Done:  E(RHF) =  -1613.80394059     A.U. after   11 cycles
 E2 =    -0.1947662567D+01 EUMP2 =    -0.16157516031562D+04
 SCF Done:  E(RHF) =  -1613.80387409     A.U. after   11 cycles
 E2 =    -0.1947730934D+01 EUMP2 =    -0.16157516050196D+04
 SCF Done:  E(RHF) =  -1613.80388981     A.U. after    9 cycles
 E2 =    -0.1947715337D+01 EUMP2 =    -0.16157516051488D+04
 SCF Done:  E(RHF) =  -1613.80389654     A.U. after    8 cycles
 E2 =    -0.1947708618D+01 EUMP2 =    -0.16157516051596D+04
 Optimization completed.
    -- Stationary point found.

                         Standard orientation:
 ---------------------------------------------------------------------
 Center     Atomic      Atomic             Coordinates (Angstroms)
 Number     Number       Type             X           Y           Z
 ---------------------------------------------------------------------
      1          6           0        4.006981    0.363754    0.442303
      2          6           0        2.652460    0.786128    0.593414
      3          6           0        1.758225   -0.120630    0.006500
      4          6           0        2.215934    2.042512    1.304695
      5          6           0        4.136638   -0.843520   -0.238953
      6          1           0        4.865957    0.916791    0.831933
      7         16           0        2.596282   -1.470417   -0.713503
      8          1           0        5.048751   -1.391232   -0.478843
      9          6           0        0.298239   -0.050491   -0.021270
     10         16           0       -0.502206    1.179916   -1.001730
     11          6           0       -2.074468    0.604214   -0.523217
     12          6           0       -1.955482   -0.512634    0.342980
     13          6           0       -0.612746   -0.885235    0.628096
     14          1           0       -0.290916   -1.702747    1.276662
     15         16           0       -3.527205   -1.088715    0.824656
     16          6           0       -4.313569    0.152167   -0.124584
     17          6           0       -3.422758    0.985241   -0.789853
     18          1           0       -5.403549    0.196517   -0.140776
     19          1           0       -3.738709    1.812539   -1.427702
     20          1           0        2.764567    2.161734    2.252506
     21          1           0        1.138419    2.008306    1.526061
     22          1           0        2.408836    2.936505    0.688720
 ---------------------------------------------------------------------

 The electronic state is 1-A.
 Alpha  occ. eigenvalues --  -91.99513 -91.99402 -91.98972 -11.29312 -11.28540
 Alpha  occ. eigenvalues --  -11.28087 -11.27960 -11.27919 -11.27852 -11.26578
 Alpha  occ. eigenvalues --  -11.26562 -11.26086 -11.25068 -11.23974  -8.99625
 Alpha  occ. eigenvalues --   -8.99488  -8.99117  -6.67791  -6.67710  -6.67650
 Alpha  occ. eigenvalues --   -6.67564  -6.67514  -6.67368  -6.67277  -6.67186
 Alpha  occ. eigenvalues --   -6.67009  -1.20618  -1.17665  -1.11840  -1.03419
 Alpha  occ. eigenvalues --   -1.02699  -1.01108  -0.94935  -0.94419  -0.91175
 Alpha  occ. eigenvalues --   -0.81924  -0.76993  -0.75950  -0.72190  -0.69722
 Alpha  occ. eigenvalues --   -0.66698  -0.66217  -0.60112  -0.58867  -0.58507
 Alpha  occ. eigenvalues --   -0.56850  -0.55677  -0.54153  -0.53459  -0.52376
 Alpha  occ. eigenvalues --   -0.51714  -0.50908  -0.49429  -0.47512  -0.46277
 Alpha  occ. eigenvalues --   -0.45715  -0.39008  -0.34303  -0.32627  -0.32210
 Alpha  occ. eigenvalues --   -0.28617
 Alpha virt. eigenvalues --    0.03456   0.03489   0.04189   0.04666   0.04858
 Alpha virt. eigenvalues --    0.05818   0.06059   0.07033   0.07451   0.08522
 Alpha virt. eigenvalues --    0.08649   0.09135   0.10016   0.10235   0.10980

 Mulliken charges:
               1
     1  C    0.530315
     2  C   -0.759043
     3  C    0.721053
     4  C    0.355370
     5  C   -0.328624
     6  H   -0.433946
     7  S    0.337006
     8  H   -0.332943
     9  C    0.326410
    10  S    0.363802
    11  C   -0.696875
    12  C   -0.317908
    13  C    0.130526
    14  H   -0.444277
    15  S    0.633056
    16  C   -0.116837
    17  C    0.611404
    18  H   -0.354020
    19  H   -0.295226
    20  H   -0.004176
    21  H   -0.051058
    22  H    0.125991
 Sum of Mulliken charges =  -0.00000

 Dipole moment (field-independent basis, Debye):
    X=              0.3577    Y=              0.9618    Z=              0.6526  Tot=              1.2161
 Quadrupole moment (field-independent basis, Debye-Ang):
   XX=            -87.4352   YY=           -102.6662   ZZ=           -107.5841
   XY=             -2.1045   XZ=              4.0518   YZ=             -1.3805

 Normal termination of Gaussian 16 at Wed Oct 27 04:55:08 2021.
