 Gaussian 16, Revision C.01,
 Gaussian 16:  ES64L-G16RevC.01  3-Jul-2019

 ----------------------------------
 # opt=modredundant mp2/aug-cc-pvdz
 ----------------------------------

 ------------
 pBTTT_55.pdb
 ------------
 Symbolic Z-matrix:
 Charge =  0 Multiplicity = 1

 SCF Done:  E(RHF) =  -1613.81457249     A.U. after   17 cycles
 E2 =    -0.1927510404D+01 EUMP2 =    -0.16157420828930D+04
 SCF Done:  E(RHF) =  -1613.80593350     A.U. after   15 cycles
 E2 =    -0.1945456244D+01 EUMP2 =    -0.16157513897406D+04
 SCF Done:  E(RHF) =  -1613.80408158     A.U. after   13 cycles
 E2 =    -0.1947857596D+01 EUMP2 =    -0.16157519391763D+04
 SCF Done:  E(RHF) =  -1613.80350447     A.U. after   13 cycles
 E2 =    -0.1948511476D+01 EUMP2 =    -0.16157520159476D+04
 SCF Done:  E(RHF) =  -1613.80349805     A.U. after   12 cycles
 E2 =    -0.1948539224D+01 EUMP2 =    -0.16157520372788D+04
 SCF Done:  E(RHF) =  -1613.80358155     A.U. after   13 cycles
 E2 =    -0.1948474199D+01 EUMP2 =    -0.16157520557512D+04
 SCF Done:  E(RHF) =  -1613.80380924     A.U. after   13 cycles
 E2 =    -0.1948278163D+01 EUMP2 =    -0.16157520874028D+04
 SCF Done:  E(RHF) =  -1613.80377448     A.U. after   12 cycles
 E2 =    -0.1948332119D+01 EUMP2 =    -0.16157521066008D+04
 SCF Done:  E(RHF) =  -1613.80366986     A.U. after   11 cycles
 E2 =    -0.1948444746D+01 EUMP2 =    -0.16157521146097D+04
 SCF Done:  E(RHF) =  -1613.80358521     A.U. after   11 cycles
 E2 =    -0.1948530681D+01 EUMP2 =    -0.16157521158927D+04
 SCF Done:  E(RHF) =  -1613.80358142     A.U. after    9 cycles
 E2 =    -0.1948534529D+01 EUMP2 =    -0.16157521159457D+04
 SCF Done:  E(RHF) =  -1613.80358541     A.U. after    8 cycles
 E2 =    -0.1948530550D+01 EUMP2 =    -0.16157521159556D+04
 Optimization completed.
    -- Stationary point found.

                         Standard orientation:
 ---------------------------------------------------------------------
 Center     Atomic      Atomic             Coordinates (Angstroms)
 Number     Number       Type             X           Y           Z
 ---------------------------------------------------------------------
      1          6           0        4.026577    0.329093    0.331672
      2          6           0        2.691304    0.811313    0.468724
      3          6           0        1.753002   -0.124121    0.004437
      4          6           0        2.324670    2.150085    1.061261
      5          6           0        4.103110   -0.948329   -0.217166
      6          1           0        4.910906    0.892125    0.642280
      7         16           0        2.532421   -1.568325   -0.589607
      8          1           0        4.991240   -1.549344   -0.415387
      9          6           0        0.297740   -0.034118   -0.000100
     10         16           0       -0.502910    1.340565   -0.767521
     11          6           0       -2.075494    0.687820   -0.402141
     12          6           0       -1.957594   -0.559082    0.262942
     13          6           0       -0.616167   -0.969175    0.493394
     14          1           0       -0.297521   -1.880257    1.004482
     15         16           0       -3.530284   -1.208344    0.636450
     16          6           0       -4.315071    0.175091   -0.091513
     17          6           0       -3.422734    1.109316   -0.603028
     18          1           0       -5.405066    0.219991   -0.105675
     19          1           0       -3.737452    2.032513   -1.092752
     20          1           0        3.053844    2.438224    1.834382
     21          1           0        1.323953    2.115137    1.518861
     22          1           0        2.316408    2.941904    0.293760
 ---------------------------------------------------------------------

 The electronic state is 1-A.
 Alpha  occ. eigenvalues --  -91.99497 -91.99438 -91.99034 -11.29450 -11.28505
 Alpha  occ. eigenvalues --  -11.28080 -11.28006 -11.27968 -11.27908 -11.26562
 Alpha  occ. eigenvalues --  -11.26505 -11.26110 -11.25137 -11.24057  -8.99609
 Alpha  occ. eigenvalues --   -8.99534  -8.99186  -6.67774  -6.67697  -6.67694
 Alpha  occ. eigenvalues --   -6.67612  -6.67497  -6.67415  -6.67346  -6.67255
 Alpha  occ. eigenvalues --   -6.67077  -1.20649  -1.17713  -1.11854  -1.03522
 Alpha  occ. eigenvalues --   -1.02694  -1.01217  -0.94938  -0.94390  -0.91279
 Alpha  occ. eigenvalues --   -0.81989  -0.77140  -0.76050  -0.71966  -0.69806
 Alpha  occ. eigenvalues --   -0.66756  -0.66238  -0.60050  -0.58911  -0.58549
 Alpha  occ. eigenvalues --   -0.56844  -0.55757  -0.54235  -0.53497  -0.52347
 Alpha  occ. eigenvalues --   -0.51798  -0.51032  -0.49528  -0.47430  -0.46271
 Alpha  occ. eigenvalues --   -0.45867  -0.39111  -0.34408  -0.33443  -0.32232
 Alpha  occ. eigenvalues --   -0.27728
 Alpha virt. eigenvalues --    0.03471   0.03494   0.04149   0.04754   0.04819
 Alpha virt. eigenvalues --    0.05911   0.06039   0.06345   0.07492   0.08511
 Alpha virt. eigenvalues --    0.08834   0.09388   0.10300   0.10491   0.10925

 Mulliken charges:
               1
     1  C    0.469005
     2  C   -0.540431
     3  C    0.692158
     4  C    0.368448
     5  C   -0.331977
     6  H   -0.443620
     7  S    0.356458
     8  H   -0.333535
     9  C    0.155853
    10  S    0.372218
    11  C   -0.639253
    12  C   -0.293459
    13  C    0.159884
    14  H   -0.446154
    15  S    0.612080
    16  C   -0.134875
    17  C    0.544645
    18  H   -0.354748
    19  H   -0.295966
    20  H   -0.098814
    21  H    0.053453
    22  H    0.128629
 Sum of Mulliken charges =  -0.00000

 Dipole moment (field-independent basis, Debye):
    X=              0.4276    Y=              1.0163    Z=              0.5375  Tot=              1.2266
 Quadrupole moment (field-independent basis, Debye-Ang):
   XX=            -87.3230   YY=           -100.8326   ZZ=           -109.4314
   XY=             -2.3873   XZ=              3.2181   YZ=             -1.1750

 Normal termination of Gaussian 16 at Wed Oct 27 05:27:23 2021.
