 Gaussian 16, Revision C.01,
 Gaussian 16:  ES64L-G16RevC.01  3-Jul-2019

 ----------------------------------
 # opt=modredundant mp2/aug-cc-pvdz
 ----------------------------------

 -------------
 pBTTT_-50.pdb
 -------------
 Symbolic Z-matrix:
 Charge =  0 Multiplicity = 1

 SCF Done:  E(RHF) =  -1613.81436365     A.U. after   17 cycles
 E2 =    -0.1927873907D+01 EUMP2 =    -0.16157422375581D+04
 SCF Done:  E(RHF) =  -1613.80570101     A.U. after   15 cycles
 E2 =    -0.1945769386D+01 EUMP2 =    -0.16157514703999D+04
 SCF Done:  E(RHF) =  -1613.80388021     A.U. after   13 cycles
 E2 =    -0.1948138830D+01 EUMP2 =    -0.16157520190379D+04
 SCF Done:  E(RHF) =  -1613.80327579     A.U. after   13 cycles
 E2 =    -0.1948829389D+01 EUMP2 =    -0.16157521051755D+04
 SCF Done:  E(RHF) =  -1613.80323184     A.U. after   12 cycles
 E2 =    -0.1948901841D+01 EUMP2 =    -0.16157521336783D+04
 SCF Done:  E(RHF) =  -1613.80331137     A.U. after   13 cycles
 E2 =    -0.1948845744D+01 EUMP2 =    -0.16157521571099D+04
 SCF Done:  E(RHF) =  -1613.80355934     A.U. after   13 cycles
 E2 =    -0.1948635277D+01 EUMP2 =    -0.16157521946203D+04
 SCF Done:  E(RHF) =  -1613.80352342     A.U. after   12 cycles
 E2 =    -0.1948686775D+01 EUMP2 =    -0.16157522101961D+04
 SCF Done:  E(RHF) =  -1613.80342984     A.U. after   11 cycles
 E2 =    -0.1948785226D+01 EUMP2 =    -0.16157522150692D+04
 SCF Done:  E(RHF) =  -1613.80338253     A.U. after   11 cycles
 E2 =    -0.1948833020D+01 EUMP2 =    -0.16157522155511D+04
 SCF Done:  E(RHF) =  -1613.80337999     A.U. after    9 cycles
 E2 =    -0.1948835600D+01 EUMP2 =    -0.16157522155884D+04
 Optimization completed.
    -- Stationary point found.

                         Standard orientation:
 ---------------------------------------------------------------------
 Center     Atomic      Atomic             Coordinates (Angstroms)
 Number     Number       Type             X           Y           Z
 ---------------------------------------------------------------------
      1          6           0       -4.031584    0.320124    0.296893
      2          6           0       -2.701799    0.818949    0.426387
      3          6           0       -1.751389   -0.125847    0.005857
      4          6           0       -2.356200    2.182791    0.973234
      5          6           0       -4.093966   -0.977207   -0.204823
      6          1           0       -4.922570    0.887421    0.579447
      7         16           0       -2.515355   -1.596616   -0.543043
      8          1           0       -4.975510   -1.592654   -0.387402
      9          6           0       -0.297581   -0.030949    0.005012
     10         16           0        0.503357    1.379136   -0.696103
     11          6           0        2.075938    0.707868   -0.366276
     12          6           0        1.958502   -0.569069    0.238866
     13          6           0        0.617591   -0.988343    0.453096
     14          1           0        0.300425   -1.921756    0.923296
     15         16           0        3.531574   -1.235351    0.579516
     16          6           0        4.315738    0.181053   -0.082989
     17          6           0        3.422797    1.138670   -0.548311
     18          1           0        5.405731    0.226208   -0.097060
     19          1           0        3.736981    2.084076   -0.994066
     20          1           0       -3.128749    2.514414    1.684123
     21          1           0       -2.291596    2.935812    0.170177
     22          1           0       -1.386200    2.163530    1.493899
 ---------------------------------------------------------------------

 The electronic state is 1-A.
 Alpha  occ. eigenvalues --  -91.99490 -91.99451 -91.99046 -11.29505 -11.28491
 Alpha  occ. eigenvalues --  -11.28078 -11.28069 -11.27967 -11.27910 -11.26561
 Alpha  occ. eigenvalues --  -11.26473 -11.26129 -11.25159 -11.24094  -8.99602
 Alpha  occ. eigenvalues --   -8.99552  -8.99201  -6.67767  -6.67715  -6.67687
 Alpha  occ. eigenvalues --   -6.67631  -6.67491  -6.67433  -6.67362  -6.67270
 Alpha  occ. eigenvalues --   -6.67092  -1.20658  -1.17729  -1.11857  -1.03567
 Alpha  occ. eigenvalues --   -1.02691  -1.01254  -0.94938  -0.94379  -0.91321
 Alpha  occ. eigenvalues --   -0.82013  -0.77193  -0.76079  -0.71892  -0.69837
 Alpha  occ. eigenvalues --   -0.66780  -0.66248  -0.60035  -0.58925  -0.58573
 Alpha  occ. eigenvalues --   -0.56844  -0.55786  -0.54271  -0.53519  -0.52325
 Alpha  occ. eigenvalues --   -0.51829  -0.51078  -0.49565  -0.47395  -0.46267
 Alpha  occ. eigenvalues --   -0.45918  -0.39154  -0.34454  -0.33668  -0.32241
 Alpha  occ. eigenvalues --   -0.27466
 Alpha virt. eigenvalues --    0.03471   0.03496   0.04131   0.04785   0.04805
 Alpha virt. eigenvalues --    0.05912   0.06051   0.06150   0.07494   0.08503
 Alpha virt. eigenvalues --    0.08921   0.09482   0.10324   0.10551   0.10875

 Mulliken charges:
               1
     1  C    0.464296
     2  C   -0.510558
     3  C    0.705607
     4  C    0.382984
     5  C   -0.339810
     6  H   -0.447850
     7  S    0.366999
     8  H   -0.334103
     9  C    0.094755
    10  S    0.385102
    11  C   -0.626362
    12  C   -0.292076
    13  C    0.178969
    14  H   -0.449994
    15  S    0.603191
    16  C   -0.141384
    17  C    0.525918
    18  H   -0.355251
    19  H   -0.296595
    20  H   -0.125826
    21  H    0.131672
    22  H    0.080315
 Sum of Mulliken charges =  -0.00000

 Dipole moment (field-independent basis, Debye):
    X=             -0.4540    Y=              1.0388    Z=              0.4968  Tot=              1.2378
 Quadrupole moment (field-independent basis, Debye-Ang):
   XX=            -87.2793   YY=           -100.3390   ZZ=           -109.9317
   XY=              2.4225   XZ=             -2.9502   YZ=             -1.0912

 Normal termination of Gaussian 16 at Wed Oct 27 02:16:06 2021.
