 Gaussian 16, Revision C.01,
 Gaussian 16:  ES64L-G16RevC.01  3-Jul-2019

 ----------------------------------
 # opt=modredundant mp2/aug-cc-pvdz
 ----------------------------------

 ------------
 pBTTT_20.pdb
 ------------
 Symbolic Z-matrix:
 Charge =  0 Multiplicity = 1

 SCF Done:  E(RHF) =  -1613.81241614     A.U. after   17 cycles
 E2 =    -0.1929608350D+01 EUMP2 =    -0.16157420244934D+04
 SCF Done:  E(RHF) =  -1613.80359529     A.U. after   15 cycles
 E2 =    -0.1947768534D+01 EUMP2 =    -0.16157513638207D+04
 SCF Done:  E(RHF) =  -1613.80195752     A.U. after   14 cycles
 E2 =    -0.1949935307D+01 EUMP2 =    -0.16157518928262D+04
 SCF Done:  E(RHF) =  -1613.80133629     A.U. after   13 cycles
 E2 =    -0.1950623875D+01 EUMP2 =    -0.16157519601661D+04
 SCF Done:  E(RHF) =  -1613.80149397     A.U. after   13 cycles
 E2 =    -0.1950478768D+01 EUMP2 =    -0.16157519727362D+04
 SCF Done:  E(RHF) =  -1613.80161858     A.U. after   12 cycles
 E2 =    -0.1950360090D+01 EUMP2 =    -0.16157519786710D+04
 SCF Done:  E(RHF) =  -1613.80165069     A.U. after   11 cycles
 E2 =    -0.1950330160D+01 EUMP2 =    -0.16157519808497D+04
 SCF Done:  E(RHF) =  -1613.80163347     A.U. after   10 cycles
 E2 =    -0.1950348136D+01 EUMP2 =    -0.16157519816029D+04
 SCF Done:  E(RHF) =  -1613.80161407     A.U. after   10 cycles
 E2 =    -0.1950367693D+01 EUMP2 =    -0.16157519817645D+04
 Optimization completed.
    -- Stationary point found.

                         Standard orientation:
 ---------------------------------------------------------------------
 Center     Atomic      Atomic             Coordinates (Angstroms)
 Number     Number       Type             X           Y           Z
 ---------------------------------------------------------------------
      1          6           0        4.050823    0.289959    0.110537
      2          6           0        2.740025    0.848596    0.174086
      3          6           0        1.745646   -0.135549    0.014095
      4          6           0        2.479554    2.318085    0.400327
      5          6           0        4.065864   -1.084522   -0.098626
      6          1           0        4.963291    0.881794    0.221773
      7         16           0        2.460622   -1.713840   -0.234458
      8          1           0        4.923552   -1.752904   -0.179095
      9          6           0        0.296730   -0.024947    0.019466
     10         16           0       -0.509967    1.525491   -0.272341
     11          6           0       -2.080558    0.785852   -0.155032
     12          6           0       -1.964999   -0.603487    0.096961
     13          6           0       -0.626768   -1.062811    0.202883
     14          1           0       -0.322476   -2.090537    0.414182
     15         16           0       -3.539525   -1.336362    0.236608
     16          6           0       -4.321245    0.204559   -0.040533
     17          6           0       -3.425943    1.250267   -0.231167
     18          1           0       -5.411161    0.252103   -0.052488
     19          1           0       -3.738159    2.279420   -0.417324
     20          1           0        3.412013    2.821212    0.697975
     21          1           0        1.732085    2.478150    1.194243
     22          1           0        2.108014    2.810123   -0.514181
 ---------------------------------------------------------------------

 The electronic state is 1-A.
 Alpha  occ. eigenvalues --  -91.99519 -91.99438 -91.99044 -11.29855 -11.28474
 Alpha  occ. eigenvalues --  -11.28385 -11.28063 -11.28016 -11.27863 -11.26537
 Alpha  occ. eigenvalues --  -11.26334 -11.26280 -11.25279 -11.24347  -8.99634
 Alpha  occ. eigenvalues --   -8.99549  -8.99228  -6.67799  -6.67715  -6.67715
 Alpha  occ. eigenvalues --   -6.67634  -6.67515  -6.67438  -6.67395  -6.67301
 Alpha  occ. eigenvalues --   -6.67120  -1.20686  -1.17817  -1.11848  -1.03873
 Alpha  occ. eigenvalues --   -1.02679  -1.01427  -0.94911  -0.94341  -0.91588
 Alpha  occ. eigenvalues --   -0.82151  -0.77498  -0.76179  -0.71514  -0.70049
 Alpha  occ. eigenvalues --   -0.66977  -0.66317  -0.59991  -0.58998  -0.58839
 Alpha  occ. eigenvalues --   -0.56856  -0.55899  -0.54542  -0.53704  -0.52192
 Alpha  occ. eigenvalues --   -0.51914  -0.51371  -0.49718  -0.47135  -0.46475
 Alpha  occ. eigenvalues --   -0.45859  -0.39451  -0.34884  -0.34413  -0.32302
 Alpha  occ. eigenvalues --   -0.26346
 Alpha virt. eigenvalues --    0.03433   0.03487   0.04015   0.04737   0.04960
 Alpha virt. eigenvalues --    0.05250   0.05977   0.06106   0.07436   0.08445
 Alpha virt. eigenvalues --    0.09481   0.09916   0.10316   0.10460   0.10796

 Mulliken charges:
               1
     1  C    0.458204
     2  C   -0.416446
     3  C    0.580916
     4  C    0.458069
     5  C   -0.397024
     6  H   -0.476733
     7  S    0.484162
     8  H   -0.356072
     9  C   -0.053707
    10  S    0.536307
    11  C   -0.727273
    12  C   -0.193147
    13  C    0.280530
    14  H   -0.494403
    15  S    0.536375
    16  C   -0.186414
    17  C    0.467923
    18  H   -0.361658
    19  H   -0.300375
    20  H   -0.215318
    21  H    0.184546
    22  H    0.191536
 Sum of Mulliken charges =  -0.00000

 Dipole moment (field-independent basis, Debye):
    X=              0.6493    Y=              1.1577    Z=              0.2147  Tot=              1.3446
 Quadrupole moment (field-independent basis, Debye-Ang):
   XX=            -86.9131   YY=            -98.2649   ZZ=           -112.0849
   XY=             -2.3571   XZ=              1.2422   YZ=             -0.4809

 Normal termination of Gaussian 16 at Wed Oct 27 03:44:58 2021.
