 Gaussian 16, Revision C.01,
 Gaussian 16:  ES64L-G16RevC.01  3-Jul-2019

 ----------------------------------
 # opt=modredundant mp2/aug-cc-pvdz
 ----------------------------------

 --------------
 pBTTT_-165.pdb
 --------------
 Symbolic Z-matrix:
 Charge =  0 Multiplicity = 1

 SCF Done:  E(RHF) =  -1613.81150963     A.U. after   16 cycles
 E2 =    -0.1930283915D+01 EUMP2 =    -0.16157417935429D+04
 SCF Done:  E(RHF) =  -1613.80290821     A.U. after   15 cycles
 E2 =    -0.1948068331D+01 EUMP2 =    -0.16157509765435D+04
 SCF Done:  E(RHF) =  -1613.80125359     A.U. after   13 cycles
 E2 =    -0.1950239984D+01 EUMP2 =    -0.16157514935758D+04
 SCF Done:  E(RHF) =  -1613.80074694     A.U. after   12 cycles
 E2 =    -0.1950803415D+01 EUMP2 =    -0.16157515503559D+04
 SCF Done:  E(RHF) =  -1613.80087339     A.U. after   11 cycles
 E2 =    -0.1950683848D+01 EUMP2 =    -0.16157515572409D+04
 SCF Done:  E(RHF) =  -1613.80096590     A.U. after   11 cycles
 E2 =    -0.1950594614D+01 EUMP2 =    -0.16157515605141D+04
 SCF Done:  E(RHF) =  -1613.80098289     A.U. after   11 cycles
 E2 =    -0.1950578885D+01 EUMP2 =    -0.16157515617791D+04
 SCF Done:  E(RHF) =  -1613.80096346     A.U. after   11 cycles
 E2 =    -0.1950598762D+01 EUMP2 =    -0.16157515622238D+04
 Optimization completed.
    -- Stationary point found.

                         Standard orientation:
 ---------------------------------------------------------------------
 Center     Atomic      Atomic             Coordinates (Angstroms)
 Number     Number       Type             X           Y           Z
 ---------------------------------------------------------------------
      1          6           0        3.971216    0.806370    0.010374
      2          6           0        2.595863    1.163964    0.118601
      3          6           0        1.753656    0.039882    0.008479
      4          6           0        2.119446    2.574298    0.357825
      5          6           0        4.182829   -0.554842   -0.183194
      6          1           0        4.789593    1.527833    0.081730
      7         16           0        2.685852   -1.417942   -0.247972
      8          1           0        5.126549   -1.090753   -0.287144
      9          6           0        0.301584   -0.018753    0.034837
     10         16           0       -0.502694   -1.579032    0.275364
     11          6           0       -2.075909   -0.848425    0.122905
     12          6           0       -1.960305    0.546102   -0.093819
     13          6           0       -0.621650    1.018919   -0.152226
     14          1           0       -0.331673    2.048727   -0.356124
     15         16           0       -3.534719    1.278749   -0.237012
     16          6           0       -4.316055   -0.269444   -0.007697
     17          6           0       -3.420488   -1.316882    0.174390
     18          1           0       -5.405747   -0.321264   -0.020595
     19          1           0       -3.732598   -2.350762    0.331811
     20          1           0        2.957533    3.204930    0.690812
     21          1           0        1.334472    2.601511    1.131609
     22          1           0        1.705729    3.024243   -0.561041
 ---------------------------------------------------------------------

 The electronic state is 1-A.
 Alpha  occ. eigenvalues --  -91.99501 -91.99380 -91.99119 -11.29884 -11.28507
 Alpha  occ. eigenvalues --  -11.28430 -11.28069 -11.28002 -11.27928 -11.26553
 Alpha  occ. eigenvalues --  -11.26389 -11.26295 -11.25323 -11.24698  -8.99613
 Alpha  occ. eigenvalues --   -8.99509  -8.99303  -6.67778  -6.67698  -6.67676
 Alpha  occ. eigenvalues --   -6.67590  -6.67502  -6.67469  -6.67387  -6.67375
 Alpha  occ. eigenvalues --   -6.67194  -1.20703  -1.17868  -1.11865  -1.04049
 Alpha  occ. eigenvalues --   -1.02524  -1.01549  -0.95003  -0.94389  -0.91674
 Alpha  occ. eigenvalues --   -0.82210  -0.76845  -0.76609  -0.72362  -0.70039
 Alpha  occ. eigenvalues --   -0.66838  -0.66276  -0.60241  -0.59063  -0.58883
 Alpha  occ. eigenvalues --   -0.56414  -0.55992  -0.54814  -0.53897  -0.52435
 Alpha  occ. eigenvalues --   -0.51819  -0.51157  -0.49710  -0.47566  -0.46480
 Alpha  occ. eigenvalues --   -0.45735  -0.39443  -0.35008  -0.34410  -0.32258
 Alpha  occ. eigenvalues --   -0.26388
 Alpha virt. eigenvalues --    0.03357   0.03545   0.03956   0.04904   0.04998
 Alpha virt. eigenvalues --    0.05163   0.05668   0.06714   0.08052   0.08148
 Alpha virt. eigenvalues --    0.09103   0.09749   0.10343   0.10754   0.10805

 Mulliken charges:
               1
     1  C    0.469557
     2  C   -0.200766
     3  C    0.182404
     4  C    0.405219
     5  C   -0.349923
     6  H   -0.477250
     7  S    0.490671
     8  H   -0.356274
     9  C   -0.149515
    10  S    0.492992
    11  C   -0.530528
    12  C   -0.305170
    13  C    0.603481
    14  H   -0.616745
    15  S    0.531852
    16  C   -0.172093
    17  C    0.437640
    18  H   -0.359790
    19  H   -0.302902
    20  H   -0.260546
    21  H    0.223282
    22  H    0.244403
 Sum of Mulliken charges =  -0.00000

 Dipole moment (field-independent basis, Debye):
    X=              0.4871    Y=              1.0620    Z=              0.0882  Tot=              1.1717
 Quadrupole moment (field-independent basis, Debye-Ang):
   XX=            -87.2321   YY=            -97.9362   ZZ=           -112.1796
   XY=              6.5735   XZ=             -0.5012   YZ=             -0.3355

 Normal termination of Gaussian 16 at Tue Oct 26 23:10:39 2021.
