 Gaussian 16, Revision C.01,
 Gaussian 16:  ES64L-G16RevC.01  3-Jul-2019

 ----------------------------------
 # opt=modredundant mp2/aug-cc-pvdz
 ----------------------------------

 -------------
 pBTTT_-30.pdb
 -------------
 Symbolic Z-matrix:
 Charge =  0 Multiplicity = 1

 SCF Done:  E(RHF) =  -1613.81307394     A.U. after   17 cycles
 E2 =    -0.1929073090D+01 EUMP2 =    -0.16157421470324D+04
 SCF Done:  E(RHF) =  -1613.80432322     A.U. after   15 cycles
 E2 =    -0.1947154731D+01 EUMP2 =    -0.16157514779546D+04
 SCF Done:  E(RHF) =  -1613.80261639     A.U. after   13 cycles
 E2 =    -0.1949410570D+01 EUMP2 =    -0.16157520269578D+04
 SCF Done:  E(RHF) =  -1613.80197646     A.U. after   13 cycles
 E2 =    -0.1950138791D+01 EUMP2 =    -0.16157521152505D+04
 SCF Done:  E(RHF) =  -1613.80202221     A.U. after   12 cycles
 E2 =    -0.1950116442D+01 EUMP2 =    -0.16157521386526D+04
 SCF Done:  E(RHF) =  -1613.80214242     A.U. after   13 cycles
 E2 =    -0.1950009837D+01 EUMP2 =    -0.16157521522605D+04
 SCF Done:  E(RHF) =  -1613.80226980     A.U. after   12 cycles
 E2 =    -0.1949891539D+01 EUMP2 =    -0.16157521613432D+04
 SCF Done:  E(RHF) =  -1613.80224870     A.U. after   11 cycles
 E2 =    -0.1949914306D+01 EUMP2 =    -0.16157521630046D+04
 SCF Done:  E(RHF) =  -1613.80221548     A.U. after   10 cycles
 E2 =    -0.1949947811D+01 EUMP2 =    -0.16157521632893D+04
 Optimization completed.
    -- Stationary point found.

                         Standard orientation:
 ---------------------------------------------------------------------
 Center     Atomic      Atomic             Coordinates (Angstroms)
 Number     Number       Type             X           Y           Z
 ---------------------------------------------------------------------
      1          6           0       -4.046753    0.293537    0.168086
      2          6           0       -2.732933    0.840875    0.258096
      3          6           0       -1.746708   -0.132654    0.014127
      4          6           0       -2.454690    2.285426    0.597357
      5          6           0       -4.069282   -1.062871   -0.140334
      6          1           0       -4.956036    0.877017    0.335814
      7         16           0       -2.468585   -1.685149   -0.342873
      8          1           0       -4.931297   -1.720359   -0.256982
      9          6           0       -0.296919   -0.024295    0.019472
     10         16           0        0.507176    1.492066   -0.412325
     11          6           0        2.078779    0.767242   -0.226757
     12          6           0        1.962942   -0.595456    0.144557
     13          6           0        0.624041   -1.043746    0.291553
     14          1           0        0.315143   -2.046486    0.595633
     15         16           0        3.537250   -1.312184    0.352288
     16          6           0        4.319331    0.199010   -0.055286
     17          6           0        3.424468    1.223887   -0.338370
     18          1           0        5.409267    0.245562   -0.069384
     19          1           0        3.737054    2.233094   -0.612355
     20          1           0       -3.350886    2.746137    1.040096
     21          1           0       -2.184400    2.868380   -0.298996
     22          1           0       -1.625965    2.375192    1.317728
 ---------------------------------------------------------------------

 The electronic state is 1-A.
 Alpha  occ. eigenvalues --  -91.99501 -91.99457 -91.99053 -11.29745 -11.28422
 Alpha  occ. eigenvalues --  -11.28347 -11.28065 -11.27966 -11.27916 -11.26549
 Alpha  occ. eigenvalues --  -11.26337 -11.26256 -11.25243 -11.24269  -8.99614
 Alpha  occ. eigenvalues --   -8.99568  -8.99226  -6.67778  -6.67733  -6.67694
 Alpha  occ. eigenvalues --   -6.67653  -6.67495  -6.67456  -6.67392  -6.67298
 Alpha  occ. eigenvalues --   -6.67118  -1.20684  -1.17790  -1.11857  -1.03774
 Alpha  occ. eigenvalues --   -1.02681  -1.01382  -0.94925  -0.94346  -0.91506
 Alpha  occ. eigenvalues --   -0.82110  -0.77407  -0.76158  -0.71620  -0.69980
 Alpha  occ. eigenvalues --   -0.66907  -0.66296  -0.60000  -0.58976  -0.58737
 Alpha  occ. eigenvalues --   -0.56851  -0.55882  -0.54448  -0.53639  -0.52204
 Alpha  occ. eigenvalues --   -0.51945  -0.51264  -0.49688  -0.47224  -0.46359
 Alpha  occ. eigenvalues --   -0.45953  -0.39352  -0.34722  -0.34274  -0.32282
 Alpha  occ. eigenvalues --   -0.26628
 Alpha virt. eigenvalues --    0.03453   0.03492   0.04053   0.04754   0.04910
 Alpha virt. eigenvalues --    0.05458   0.05957   0.06101   0.07465   0.08476
 Alpha virt. eigenvalues --    0.09295   0.09879   0.10314   0.10419   0.10784

 Mulliken charges:
               1
     1  C    0.461145
     2  C   -0.444559
     3  C    0.683828
     4  C    0.435251
     5  C   -0.381230
     6  H   -0.465989
     7  S    0.431023
     8  H   -0.345260
     9  C   -0.050682
    10  S    0.492420
    11  C   -0.674094
    12  C   -0.241765
    13  C    0.249416
    14  H   -0.481243
    15  S    0.561977
    16  C   -0.170267
    17  C    0.471245
    18  H   -0.358735
    19  H   -0.299025
    20  H   -0.199215
    21  H    0.169352
    22  H    0.156409
 Sum of Mulliken charges =  -0.00000

 Dipole moment (field-independent basis, Debye):
    X=             -0.5827    Y=              1.1245    Z=              0.3163  Tot=              1.3054
 Quadrupole moment (field-independent basis, Debye-Ang):
   XX=            -87.0390   YY=            -98.7888   ZZ=           -111.5282
   XY=              2.4076   XZ=             -1.8357   YZ=             -0.7008

 Normal termination of Gaussian 16 at Wed Oct 27 02:49:29 2021.
