 Gaussian 16, Revision C.01,
 Gaussian 16:  ES64L-G16RevC.01  3-Jul-2019

 ----------------------------------
 # opt=modredundant mp2/aug-cc-pvdz
 ----------------------------------

 ------------
 pBTTT_60.pdb
 ------------
 Symbolic Z-matrix:
 Charge =  0 Multiplicity = 1

 SCF Done:  E(RHF) =  -1613.81472106     A.U. after   17 cycles
 E2 =    -0.1927177229D+01 EUMP2 =    -0.16157418982900D+04
 SCF Done:  E(RHF) =  -1613.80611784     A.U. after   15 cycles
 E2 =    -0.1945147210D+01 EUMP2 =    -0.16157512650535D+04
 SCF Done:  E(RHF) =  -1613.80421200     A.U. after   13 cycles
 E2 =    -0.1947612292D+01 EUMP2 =    -0.16157518242955D+04
 SCF Done:  E(RHF) =  -1613.80366122     A.U. after   13 cycles
 E2 =    -0.1948230665D+01 EUMP2 =    -0.16157518918826D+04
 SCF Done:  E(RHF) =  -1613.80367969     A.U. after   12 cycles
 E2 =    -0.1948226279D+01 EUMP2 =    -0.16157519059738D+04
 SCF Done:  E(RHF) =  -1613.80378657     A.U. after   12 cycles
 E2 =    -0.1948131676D+01 EUMP2 =    -0.16157519182432D+04
 SCF Done:  E(RHF) =  -1613.80400613     A.U. after   13 cycles
 E2 =    -0.1947937308D+01 EUMP2 =    -0.16157519434386D+04
 SCF Done:  E(RHF) =  -1613.80395698     A.U. after   12 cycles
 E2 =    -0.1948001605D+01 EUMP2 =    -0.16157519585885D+04
 SCF Done:  E(RHF) =  -1613.80378149     A.U. after   11 cycles
 E2 =    -0.1948186727D+01 EUMP2 =    -0.16157519682158D+04
 SCF Done:  E(RHF) =  -1613.80373608     A.U. after   11 cycles
 E2 =    -0.1948233622D+01 EUMP2 =    -0.16157519697003D+04
 SCF Done:  E(RHF) =  -1613.80373507     A.U. after    9 cycles
 E2 =    -0.1948234697D+01 EUMP2 =    -0.16157519697683D+04
 Optimization completed.
    -- Stationary point found.

                         Standard orientation:
 ---------------------------------------------------------------------
 Center     Atomic      Atomic             Coordinates (Angstroms)
 Number     Number       Type             X           Y           Z
 ---------------------------------------------------------------------
      1          6           0        4.021016    0.338613    0.368123
      2          6           0        2.679800    0.802668    0.511746
      3          6           0        1.754742   -0.122349    0.003943
      4          6           0        2.291154    2.114424    1.148270
      5          6           0        4.113218   -0.916459   -0.227930
      6          1           0        4.897907    0.897189    0.706645
      7         16           0        2.551382   -1.537075   -0.635282
      8          1           0        5.008629   -1.501292   -0.441474
      9          6           0        0.297891   -0.037858   -0.006071
     10         16           0       -0.502764    1.295789   -0.841958
     11          6           0       -2.075204    0.664289   -0.440318
     12          6           0       -1.956767   -0.546908    0.287900
     13          6           0       -0.614781   -0.946188    0.535610
     14          1           0       -0.294852   -1.831255    1.089714
     15         16           0       -3.529014   -1.175947    0.696140
     16          6           0       -4.314569    0.168301   -0.101041
     17          6           0       -3.422879    1.074801   -0.661160
     18          1           0       -5.404583    0.212891   -0.115643
     19          1           0       -3.738093    1.971625   -1.197363
     20          1           0        2.967542    2.350471    1.984678
     21          1           0        1.260384    2.071705    1.532272
     22          1           0        2.347664    2.944393    0.424346
 ---------------------------------------------------------------------

 The electronic state is 1-A.
 Alpha  occ. eigenvalues --  -91.99503 -91.99425 -91.99017 -11.29399 -11.28519
 Alpha  occ. eigenvalues --  -11.28083 -11.27967 -11.27948 -11.27910 -11.26563
 Alpha  occ. eigenvalues --  -11.26535 -11.26098 -11.25114 -11.24025  -8.99615
 Alpha  occ. eigenvalues --   -8.99517  -8.99166  -6.67780  -6.67700  -6.67680
 Alpha  occ. eigenvalues --   -6.67595  -6.67504  -6.67398  -6.67326  -6.67234
 Alpha  occ. eigenvalues --   -6.67057  -1.20637  -1.17696  -1.11848  -1.03481
 Alpha  occ. eigenvalues --   -1.02696  -1.01178  -0.94937  -0.94400  -0.91239
 Alpha  occ. eigenvalues --   -0.81965  -0.77088  -0.76018  -0.72040  -0.69775
 Alpha  occ. eigenvalues --   -0.66733  -0.66229  -0.60068  -0.58896  -0.58530
 Alpha  occ. eigenvalues --   -0.56845  -0.55727  -0.54203  -0.53479  -0.52362
 Alpha  occ. eigenvalues --   -0.51767  -0.50986  -0.49492  -0.47462  -0.46274
 Alpha  occ. eigenvalues --   -0.45813  -0.39071  -0.34367  -0.33190  -0.32223
 Alpha  occ. eigenvalues --   -0.28013
 Alpha virt. eigenvalues --    0.03470   0.03492   0.04165   0.04723   0.04832
 Alpha virt. eigenvalues --    0.05890   0.06033   0.06567   0.07483   0.08524
 Alpha virt. eigenvalues --    0.08751   0.09295   0.10268   0.10384   0.10956

 Mulliken charges:
               1
     1  C    0.479802
     2  C   -0.591194
     3  C    0.688265
     4  C    0.357148
     5  C   -0.326645
     6  H   -0.439532
     7  S    0.348392
     8  H   -0.333254
     9  C    0.218279
    10  S    0.366409
    11  C   -0.659522
    12  C   -0.295306
    13  C    0.143797
    14  H   -0.444547
    15  S    0.620460
    16  C   -0.128907
    17  C    0.565450
    18  H   -0.354269
    19  H   -0.295422
    20  H   -0.067544
    21  H    0.020049
    22  H    0.128092
 Sum of Mulliken charges =  -0.00000

 Dipole moment (field-independent basis, Debye):
    X=              0.4032    Y=              0.9945    Z=              0.5781  Tot=              1.2189
 Quadrupole moment (field-independent basis, Debye-Ang):
   XX=            -87.3606   YY=           -101.3865   ZZ=           -108.8722
   XY=             -2.3280   XZ=              3.4929   YZ=             -1.2533

 Normal termination of Gaussian 16 at Wed Oct 27 05:26:55 2021.
