 Gaussian 16, Revision C.01,
 Gaussian 16:  ES64L-G16RevC.01  3-Jul-2019

 ----------------------------------
 # opt=modredundant mp2/aug-cc-pvdz
 ----------------------------------

 --------------
 pBTTT_-125.pdb
 --------------
 Symbolic Z-matrix:
 Charge =  0 Multiplicity = 1

 SCF Done:  E(RHF) =  -1613.81463261     A.U. after   17 cycles
 E2 =    -0.1927583647D+01 EUMP2 =    -0.16157422162615D+04
 SCF Done:  E(RHF) =  -1613.80603753     A.U. after   15 cycles
 E2 =    -0.1945483445D+01 EUMP2 =    -0.16157515209747D+04
 SCF Done:  E(RHF) =  -1613.80402019     A.U. after   13 cycles
 E2 =    -0.1948109293D+01 EUMP2 =    -0.16157521294865D+04
 SCF Done:  E(RHF) =  -1613.80343564     A.U. after   12 cycles
 E2 =    -0.1948766273D+01 EUMP2 =    -0.16157522019145D+04
 SCF Done:  E(RHF) =  -1613.80343903     A.U. after   12 cycles
 E2 =    -0.1948777224D+01 EUMP2 =    -0.16157522162553D+04
 SCF Done:  E(RHF) =  -1613.80355823     A.U. after   11 cycles
 E2 =    -0.1948669896D+01 EUMP2 =    -0.16157522281241D+04
 SCF Done:  E(RHF) =  -1613.80375242     A.U. after   13 cycles
 E2 =    -0.1948494531D+01 EUMP2 =    -0.16157522469529D+04
 SCF Done:  E(RHF) =  -1613.80368868     A.U. after   11 cycles
 E2 =    -0.1948565095D+01 EUMP2 =    -0.16157522537792D+04
 SCF Done:  E(RHF) =  -1613.80357842     A.U. after   10 cycles
 E2 =    -0.1948677925D+01 EUMP2 =    -0.16157522563473D+04
 Optimization completed.
    -- Stationary point found.

                         Standard orientation:
 ---------------------------------------------------------------------
 Center     Atomic      Atomic             Coordinates (Angstroms)
 Number     Number       Type             X           Y           Z
 ---------------------------------------------------------------------
      1          6           0        3.949002    0.795715    0.196118
      2          6           0        2.560324    1.082357    0.354593
      3          6           0        1.758086    0.024001   -0.101650
      4          6           0        2.012088    2.353076    0.953886
      5          6           0        4.197283   -0.459412   -0.352097
      6          1           0        4.749640    1.479587    0.490833
      7         16           0        2.726328   -1.300969   -0.697826
      8          1           0        5.158706   -0.926927   -0.567422
      9          6           0        0.303596   -0.062530   -0.078694
     10         16           0       -0.493294   -1.433971    0.698951
     11          6           0       -2.066738   -0.767945    0.361024
     12          6           0       -1.951476    0.478586   -0.305041
     13          6           0       -0.610637    0.877939   -0.559187
     14          1           0       -0.295811    1.781643   -1.085066
     15         16           0       -3.525683    1.142792   -0.645433
     16          6           0       -4.307775   -0.234743    0.096740
     17          6           0       -3.413620   -1.177281    0.589136
     18          1           0       -5.397643   -0.271318    0.131083
     19          1           0       -3.726531   -2.098829    1.083100
     20          1           0        2.652706    2.696575    1.781162
     21          1           0        0.993356    2.191954    1.339697
     22          1           0        1.967140    3.163101    0.206565
 ---------------------------------------------------------------------

 The electronic state is 1-A.
 Alpha  occ. eigenvalues --  -91.99522 -91.99436 -91.99009 -11.29420 -11.28492
 Alpha  occ. eigenvalues --  -11.28086 -11.28039 -11.27984 -11.27971 -11.26560
 Alpha  occ. eigenvalues --  -11.26508 -11.26186 -11.25168 -11.24181  -8.99632
 Alpha  occ. eigenvalues --   -8.99526  -8.99170  -6.67798  -6.67718  -6.67688
 Alpha  occ. eigenvalues --   -6.67603  -6.67521  -6.67406  -6.67332  -6.67240
 Alpha  occ. eigenvalues --   -6.67062  -1.20649  -1.17738  -1.11856  -1.03659
 Alpha  occ. eigenvalues --   -1.02573  -1.01276  -0.94984  -0.94415  -0.91303
 Alpha  occ. eigenvalues --   -0.82032  -0.76780  -0.76172  -0.72485  -0.69714
 Alpha  occ. eigenvalues --   -0.66737  -0.66222  -0.60291  -0.58762  -0.58650
 Alpha  occ. eigenvalues --   -0.56631  -0.55757  -0.54229  -0.53726  -0.52432
 Alpha  occ. eigenvalues --   -0.51827  -0.50842  -0.49545  -0.47523  -0.46296
 Alpha  occ. eigenvalues --   -0.45932  -0.39091  -0.34413  -0.33565  -0.32171
 Alpha  occ. eigenvalues --   -0.27757
 Alpha virt. eigenvalues --    0.03425   0.03533   0.04074   0.04787   0.04918
 Alpha virt. eigenvalues --    0.05524   0.06440   0.06728   0.07509   0.08398
 Alpha virt. eigenvalues --    0.08719   0.09285   0.10034   0.10572   0.10752

 Mulliken charges:
               1
     1  C    0.514904
     2  C   -0.595824
     3  C    0.653104
     4  C    0.356034
     5  C   -0.365869
     6  H   -0.436730
     7  S    0.363223
     8  H   -0.333707
     9  C    0.245791
    10  S    0.421280
    11  C   -0.715018
    12  C   -0.289480
    13  C    0.147846
    14  H   -0.437411
    15  S    0.619291
    16  C   -0.106319
    17  C    0.542438
    18  H   -0.351734
    19  H   -0.295962
    20  H   -0.070947
    21  H    0.012293
    22  H    0.122799
 Sum of Mulliken charges =  -0.00000

 Dipole moment (field-independent basis, Debye):
    X=              0.3370    Y=              1.0279    Z=              0.5179  Tot=              1.1994
 Quadrupole moment (field-independent basis, Debye-Ang):
   XX=            -87.6586   YY=           -100.7769   ZZ=           -109.4323
   XY=              5.7822   XZ=             -1.3362   YZ=             -1.2650

 Normal termination of Gaussian 16 at Wed Oct 27 00:25:20 2021.
