 Gaussian 16, Revision C.01,
 Gaussian 16:  ES64L-G16RevC.01  3-Jul-2019

 ----------------------------------
 # opt=modredundant mp2/aug-cc-pvdz
 ----------------------------------

 ------------
 pBTTT_10.pdb
 ------------
 Symbolic Z-matrix:
 Charge =  0 Multiplicity = 1

 SCF Done:  E(RHF) =  -1613.81195838     A.U. after   17 cycles
 E2 =    -0.1929869193D+01 EUMP2 =    -0.16157418275771D+04
 SCF Done:  E(RHF) =  -1613.80308561     A.U. after   16 cycles
 E2 =    -0.1948156675D+01 EUMP2 =    -0.16157512422806D+04
 SCF Done:  E(RHF) =  -1613.80149736     A.U. after   14 cycles
 E2 =    -0.1950261657D+01 EUMP2 =    -0.16157517590223D+04
 SCF Done:  E(RHF) =  -1613.80085286     A.U. after   14 cycles
 E2 =    -0.1950966806D+01 EUMP2 =    -0.16157518196701D+04
 SCF Done:  E(RHF) =  -1613.80113060     A.U. after   13 cycles
 E2 =    -0.1950699819D+01 EUMP2 =    -0.16157518304207D+04
 SCF Done:  E(RHF) =  -1613.80122351     A.U. after   11 cycles
 E2 =    -0.1950608501D+01 EUMP2 =    -0.16157518320125D+04
 SCF Done:  E(RHF) =  -1613.80122530     A.U. after    9 cycles
 E2 =    -0.1950607326D+01 EUMP2 =    -0.16157518326254D+04
 SCF Done:  E(RHF) =  -1613.80120791     A.U. after    9 cycles
 E2 =    -0.1950624917D+01 EUMP2 =    -0.16157518328244D+04
 SCF Done:  E(RHF) =  -1613.80119755     A.U. after    9 cycles
 E2 =    -0.1950635351D+01 EUMP2 =    -0.16157518329054D+04
 Optimization completed.
    -- Stationary point found.

                         Standard orientation:
 ---------------------------------------------------------------------
 Center     Atomic      Atomic             Coordinates (Angstroms)
 Number     Number       Type             X           Y           Z
 ---------------------------------------------------------------------
      1          6           0        4.052933    0.291001    0.054876
      2          6           0        2.742763    0.854257    0.087685
      3          6           0        1.745253   -0.137572    0.008537
      4          6           0        2.490538    2.337999    0.199136
      5          6           0        4.066307   -1.094586   -0.050906
      6          1           0        4.965952    0.889714    0.110019
      7         16           0        2.459545   -1.731676   -0.118825
      8          1           0        4.922473   -1.768386   -0.091884
      9          6           0        0.296649   -0.026651    0.012700
     10         16           0       -0.512527    1.544868   -0.134108
     11          6           0       -2.082151    0.797359   -0.078683
     12          6           0       -1.966496   -0.608619    0.048504
     13          6           0       -0.628525   -1.075705    0.104434
     14          1           0       -0.327564   -2.120331    0.212305
     15         16           0       -3.540978   -1.351747    0.118162
     16          6           0       -4.322814    0.207773   -0.021956
     17          6           0       -3.427441    1.266405   -0.117269
     18          1           0       -5.412720    0.256180   -0.029020
     19          1           0       -3.739608    2.308032   -0.211302
     20          1           0        3.443691    2.867772    0.346953
     21          1           0        1.830838    2.574769    1.050111
     22          1           0        2.018199    2.739176   -0.713203
 ---------------------------------------------------------------------

 The electronic state is 1-A.
 Alpha  occ. eigenvalues --  -91.99533 -91.99424 -91.99036 -11.29934 -11.28568
 Alpha  occ. eigenvalues --  -11.28356 -11.28063 -11.28061 -11.27814 -11.26527
 Alpha  occ. eigenvalues --  -11.26396 -11.26240 -11.25305 -11.24399  -8.99647
 Alpha  occ. eigenvalues --   -8.99534  -8.99227  -6.67812  -6.67728  -6.67700
 Alpha  occ. eigenvalues --   -6.67620  -6.67527  -6.67423  -6.67396  -6.67302
 Alpha  occ. eigenvalues --   -6.67120  -1.20685  -1.17838  -1.11839  -1.03945
 Alpha  occ. eigenvalues --   -1.02679  -1.01456  -0.94898  -0.94341  -0.91647
 Alpha  occ. eigenvalues --   -0.82180  -0.77562  -0.76190  -0.71444  -0.70102
 Alpha  occ. eigenvalues --   -0.67033  -0.66332  -0.59986  -0.59012  -0.58924
 Alpha  occ. eigenvalues --   -0.56860  -0.55899  -0.54615  -0.53753  -0.52219
 Alpha  occ. eigenvalues --   -0.51800  -0.51503  -0.49729  -0.47060  -0.46578
 Alpha  occ. eigenvalues --   -0.45767  -0.39526  -0.35003  -0.34490  -0.32318
 Alpha  occ. eigenvalues --   -0.26166
 Alpha virt. eigenvalues --    0.03412   0.03481   0.03982   0.04728   0.04985
 Alpha virt. eigenvalues --    0.05118   0.06024   0.06107   0.07400   0.08410
 Alpha virt. eigenvalues --    0.09618   0.09833   0.10329   0.10637   0.10814

 Mulliken charges:
               1
     1  C    0.467286
     2  C   -0.427391
     3  C    0.458585
     4  C    0.492825
     5  C   -0.401826
     6  H   -0.487328
     7  S    0.562458
     8  H   -0.367118
     9  C   -0.047820
    10  S    0.544996
    11  C   -0.755195
    12  C   -0.144005
    13  C    0.298240
    14  H   -0.501913
    15  S    0.510529
    16  C   -0.203647
    17  C    0.480871
    18  H   -0.365514
    19  H   -0.302011
    20  H   -0.220570
    21  H    0.202827
    22  H    0.205721
 Sum of Mulliken charges =  -0.00000

 Dipole moment (field-independent basis, Debye):
    X=              0.7004    Y=              1.1800    Z=              0.1070  Tot=              1.3764
 Quadrupole moment (field-independent basis, Debye-Ang):
   XX=            -86.8171   YY=            -97.9263   ZZ=           -112.4510
   XY=             -2.3157   XZ=              0.6246   YZ=             -0.2447

 Normal termination of Gaussian 16 at Wed Oct 27 03:42:41 2021.
