 Gaussian 16, Revision C.01,
 Gaussian 16:  ES64L-G16RevC.01  3-Jul-2019

 ----------------------------------
 # opt=modredundant mp2/aug-cc-pvdz
 ----------------------------------

 --------------
 pBTTT_-105.pdb
 --------------
 Symbolic Z-matrix:
 Charge =  0 Multiplicity = 1

 SCF Done:  E(RHF) =  -1613.81467421     A.U. after   17 cycles
 E2 =    -0.1926744885D+01 EUMP2 =    -0.16157414190933D+04
 SCF Done:  E(RHF) =  -1613.80607175     A.U. after   14 cycles
 E2 =    -0.1944610804D+01 EUMP2 =    -0.16157506825541D+04
 SCF Done:  E(RHF) =  -1613.80406177     A.U. after   14 cycles
 E2 =    -0.1947232420D+01 EUMP2 =    -0.16157512941873D+04
 SCF Done:  E(RHF) =  -1613.80342303     A.U. after   13 cycles
 E2 =    -0.1947940537D+01 EUMP2 =    -0.16157513635665D+04
 SCF Done:  E(RHF) =  -1613.80351671     A.U. after   11 cycles
 E2 =    -0.1947852164D+01 EUMP2 =    -0.16157513688723D+04
 SCF Done:  E(RHF) =  -1613.80360426     A.U. after   10 cycles
 E2 =    -0.1947768790D+01 EUMP2 =    -0.16157513730476D+04
 SCF Done:  E(RHF) =  -1613.80366231     A.U. after   11 cycles
 E2 =    -0.1947713205D+01 EUMP2 =    -0.16157513755136D+04
 SCF Done:  E(RHF) =  -1613.80368273     A.U. after   10 cycles
 E2 =    -0.1947694147D+01 EUMP2 =    -0.16157513768781D+04
 SCF Done:  E(RHF) =  -1613.80362248     A.U. after   10 cycles
 E2 =    -0.1947756472D+01 EUMP2 =    -0.16157513789498D+04
 SCF Done:  E(RHF) =  -1613.80356986     A.U. after   11 cycles
 E2 =    -0.1947810935D+01 EUMP2 =    -0.16157513807947D+04
 SCF Done:  E(RHF) =  -1613.80358934     A.U. after   10 cycles
 E2 =    -0.1947791939D+01 EUMP2 =    -0.16157513812746D+04
 SCF Done:  E(RHF) =  -1613.80359823     A.U. after    9 cycles
 E2 =    -0.1947783094D+01 EUMP2 =    -0.16157513813275D+04
 Optimization completed.
    -- Stationary point found.

                         Standard orientation:
 ---------------------------------------------------------------------
 Center     Atomic      Atomic             Coordinates (Angstroms)
 Number     Number       Type             X           Y           Z
 ---------------------------------------------------------------------
      1          6           0        3.952291    0.749818    0.241305
      2          6           0        2.563684    1.002418    0.453311
      3          6           0        1.761674    0.007570   -0.124211
      4          6           0        2.007648    2.181501    1.210757
      5          6           0        4.197752   -0.422127   -0.468369
      6          1           0        4.753817    1.398300    0.605297
      7         16           0        2.726548   -1.225290   -0.894557
      8          1           0        5.158176   -0.848382   -0.760533
      9          6           0        0.302265   -0.079662   -0.092522
     10         16           0       -0.493760   -1.249464    0.962387
     11          6           0       -2.067299   -0.665473    0.498630
     12          6           0       -1.951939    0.404081   -0.425809
     13          6           0       -0.610541    0.735729   -0.763069
     14          1           0       -0.290775    1.513730   -1.459487
     15         16           0       -3.525764    0.986370   -0.893533
     16          6           0       -4.308038   -0.190566    0.137233
     17          6           0       -3.414579   -1.007287    0.818810
     18          1           0       -5.397780   -0.212432    0.184822
     19          1           0       -3.727656   -1.796363    1.504678
     20          1           0        2.510869    2.290946    2.184761
     21          1           0        0.928656    2.053245    1.385858
     22          1           0        2.154805    3.119101    0.649455
 ---------------------------------------------------------------------

 The electronic state is 1-A.
 Alpha  occ. eigenvalues --  -91.99532 -91.99405 -91.98920 -11.29267 -11.28548
 Alpha  occ. eigenvalues --  -11.28093 -11.27969 -11.27965 -11.27842 -11.26568
 Alpha  occ. eigenvalues --  -11.26566 -11.26141 -11.25060 -11.24002  -8.99642
 Alpha  occ. eigenvalues --   -8.99487  -8.99073  -6.67808  -6.67727  -6.67649
 Alpha  occ. eigenvalues --   -6.67563  -6.67531  -6.67368  -6.67233  -6.67142
 Alpha  occ. eigenvalues --   -6.66964  -1.20615  -1.17664  -1.11839  -1.03477
 Alpha  occ. eigenvalues --   -1.02633  -1.01113  -0.94958  -0.94430  -0.91165
 Alpha  occ. eigenvalues --   -0.81931  -0.76808  -0.75946  -0.72500  -0.69650
 Alpha  occ. eigenvalues --   -0.66688  -0.66211  -0.60265  -0.58741  -0.58539
 Alpha  occ. eigenvalues --   -0.56770  -0.55676  -0.54116  -0.53545  -0.52414
 Alpha  occ. eigenvalues --   -0.51734  -0.50797  -0.49432  -0.47544  -0.46289
 Alpha  occ. eigenvalues --   -0.45728  -0.38975  -0.34293  -0.32667  -0.31963
 Alpha  occ. eigenvalues --   -0.28857
 Alpha virt. eigenvalues --    0.03428   0.03509   0.04139   0.04679   0.04903
 Alpha virt. eigenvalues --    0.05576   0.06428   0.07276   0.07471   0.08424
 Alpha virt. eigenvalues --    0.08776   0.08937   0.09618   0.10338   0.10698

 Mulliken charges:
               1
     1  C    0.631229
     2  C   -0.944642
     3  C    0.827373
     4  C    0.372745
     5  C   -0.383046
     6  H   -0.432859
     7  S    0.346109
     8  H   -0.332694
     9  C    0.366529
    10  S    0.398195
    11  C   -0.734045
    12  C   -0.316739
    13  C    0.086083
    14  H   -0.439756
    15  S    0.636780
    16  C   -0.089210
    17  C    0.607130
    18  H   -0.351983
    19  H   -0.297012
    20  H    0.021289
    21  H   -0.078713
    22  H    0.107235
 Sum of Mulliken charges =  -0.00000

 Dipole moment (field-independent basis, Debye):
    X=              0.2808    Y=              1.0213    Z=              0.6446  Tot=              1.2400
 Quadrupole moment (field-independent basis, Debye-Ang):
   XX=            -87.6874   YY=           -103.1280   ZZ=           -107.1106
   XY=              5.1530   XZ=             -2.0434   YZ=             -1.4797

 Normal termination of Gaussian 16 at Wed Oct 27 01:13:42 2021.
