 Gaussian 16, Revision C.01,
 Gaussian 16:  ES64L-G16RevC.01  3-Jul-2019

 ----------------------------------
 # opt=modredundant mp2/aug-cc-pvdz
 ----------------------------------

 -------------
 pBTTT_145.pdb
 -------------
 Symbolic Z-matrix:
 Charge =  0 Multiplicity = 1

 SCF Done:  E(RHF) =  -1613.81370991     A.U. after   17 cycles
 E2 =    -0.1928958484D+01 EUMP2 =    -0.16157426683907D+04
 SCF Done:  E(RHF) =  -1613.80508311     A.U. after   15 cycles
 E2 =    -0.1946786623D+01 EUMP2 =    -0.16157518697295D+04
 SCF Done:  E(RHF) =  -1613.80326928     A.U. after   14 cycles
 E2 =    -0.1949150358D+01 EUMP2 =    -0.16157524196377D+04
 SCF Done:  E(RHF) =  -1613.80268166     A.U. after   12 cycles
 E2 =    -0.1949820226D+01 EUMP2 =    -0.16157525018904D+04
 SCF Done:  E(RHF) =  -1613.80267405     A.U. after   12 cycles
 E2 =    -0.1949845712D+01 EUMP2 =    -0.16157525197647D+04
 SCF Done:  E(RHF) =  -1613.80281068     A.U. after   11 cycles
 E2 =    -0.1949720809D+01 EUMP2 =    -0.16157525314925D+04
 SCF Done:  E(RHF) =  -1613.80296064     A.U. after   11 cycles
 E2 =    -0.1949579846D+01 EUMP2 =    -0.16157525404843D+04
 SCF Done:  E(RHF) =  -1613.80292810     A.U. after   11 cycles
 E2 =    -0.1949614037D+01 EUMP2 =    -0.16157525421383D+04
 SCF Done:  E(RHF) =  -1613.80288137     A.U. after   10 cycles
 E2 =    -0.1949661118D+01 EUMP2 =    -0.16157525424877D+04
 Optimization completed.
    -- Stationary point found.

                         Standard orientation:
 ---------------------------------------------------------------------
 Center     Atomic      Atomic             Coordinates (Angstroms)
 Number     Number       Type             X           Y           Z
 ---------------------------------------------------------------------
      1          6           0       -3.960689    0.807469    0.099422
      2          6           0       -2.579462    1.131927    0.242490
      3          6           0       -1.755228    0.029454   -0.044967
      4          6           0       -2.068112    2.481921    0.678860
      5          6           0       -4.186910   -0.511615   -0.282267
      6          1           0       -4.772517    1.515706    0.286247
      7         16           0       -2.700304   -1.371619   -0.488912
      8          1           0       -5.138342   -1.017896   -0.447962
      9          6           0       -0.303384   -0.037192   -0.014401
     10         16           0        0.500781   -1.525303    0.502029
     11          6           0        2.072099   -0.818597    0.246059
     12          6           0        1.952605    0.521110   -0.200810
     13          6           0        0.611220    0.964350   -0.356910
     14          1           0        0.303680    1.939838   -0.736705
     15         16           0        3.525006    1.228967   -0.450099
     16          6           0        4.311235   -0.254956    0.040005
     17          6           0        3.419181   -1.263398    0.384465
     18          1           0        5.401271   -0.300664    0.047135
     19          1           0        3.734495   -2.255096    0.713522
     20          1           0       -2.820390    2.992533    1.299536
     21          1           0       -1.851023    3.131982   -0.185862
     22          1           0       -1.140238    2.378023    1.264112
 ---------------------------------------------------------------------

 The electronic state is 1-A.
 Alpha  occ. eigenvalues --  -91.99513 -91.99432 -91.99088 -11.29639 -11.28451
 Alpha  occ. eigenvalues --  -11.28264 -11.28096 -11.27983 -11.27951 -11.26556
 Alpha  occ. eigenvalues --  -11.26455 -11.26211 -11.25264 -11.24429  -8.99623
 Alpha  occ. eigenvalues --   -8.99540  -8.99257  -6.67789  -6.67709  -6.67704
 Alpha  occ. eigenvalues --   -6.67620  -6.67513  -6.67421  -6.67419  -6.67328
 Alpha  occ. eigenvalues --   -6.67149  -1.20688  -1.17810  -1.11871  -1.03858
 Alpha  occ. eigenvalues --   -1.02542  -1.01432  -0.95003  -0.94404  -0.91481
 Alpha  occ. eigenvalues --   -0.82137  -0.76799  -0.76412  -0.72426  -0.69851
 Alpha  occ. eigenvalues --   -0.66788  -0.66250  -0.60279  -0.58861  -0.58796
 Alpha  occ. eigenvalues --   -0.56506  -0.55868  -0.54486  -0.53846  -0.52435
 Alpha  occ. eigenvalues --   -0.51862  -0.50967  -0.49650  -0.47528  -0.46354
 Alpha  occ. eigenvalues --   -0.45970  -0.39271  -0.34651  -0.34150  -0.32270
 Alpha  occ. eigenvalues --   -0.26932
 Alpha virt. eigenvalues --    0.03402   0.03542   0.04020   0.04889   0.04945
 Alpha virt. eigenvalues --    0.05475   0.05810   0.06784   0.07708   0.08319
 Alpha virt. eigenvalues --    0.08694   0.09794   0.10001   0.10697   0.10924

 Mulliken charges:
               1
     1  C    0.441212
     2  C   -0.378931
     3  C    0.482744
     4  C    0.365419
     5  C   -0.353261
     6  H   -0.450550
     7  S    0.429141
     8  H   -0.338496
     9  C    0.099701
    10  S    0.455843
    11  C   -0.634440
    12  C   -0.344322
    13  C    0.276840
    14  H   -0.465071
    15  S    0.584186
    16  C   -0.126664
    17  C    0.490783
    18  H   -0.356358
    19  H   -0.297499
    20  H   -0.168398
    21  H    0.171788
    22  H    0.116334
 Sum of Mulliken charges =  -0.00000

 Dipole moment (field-independent basis, Debye):
    X=             -0.4096    Y=              1.0363    Z=              0.3048  Tot=              1.1553
 Quadrupole moment (field-independent basis, Debye-Ang):
   XX=            -87.4760   YY=            -99.1432   ZZ=           -111.0405
   XY=             -6.2565   XZ=              0.9074   YZ=             -0.8424

 Normal termination of Gaussian 16 at Wed Oct 27 07:38:00 2021.
