 Gaussian 16, Revision C.01,
 Gaussian 16:  ES64L-G16RevC.01  3-Jul-2019

 ----------------------------------
 # opt=modredundant mp2/aug-cc-pvdz
 ----------------------------------

 --------------
 pBTTT_-120.pdb
 --------------
 Symbolic Z-matrix:
 Charge =  0 Multiplicity = 1

 SCF Done:  E(RHF) =  -1613.81468557     A.U. after   17 cycles
 E2 =    -0.1927233339D+01 EUMP2 =    -0.16157419189113D+04
 SCF Done:  E(RHF) =  -1613.80610713     A.U. after   15 cycles
 E2 =    -0.1945196401D+01 EUMP2 =    -0.16157513035308D+04
 SCF Done:  E(RHF) =  -1613.80405949     A.U. after   13 cycles
 E2 =    -0.1947865180D+01 EUMP2 =    -0.16157519246712D+04
 SCF Done:  E(RHF) =  -1613.80346064     A.U. after   12 cycles
 E2 =    -0.1948534607D+01 EUMP2 =    -0.16157519952472D+04
 SCF Done:  E(RHF) =  -1613.80349815     A.U. after   11 cycles
 E2 =    -0.1948508347D+01 EUMP2 =    -0.16157520064989D+04
 SCF Done:  E(RHF) =  -1613.80360286     A.U. after   11 cycles
 E2 =    -0.1948412928D+01 EUMP2 =    -0.16157520157858D+04
 SCF Done:  E(RHF) =  -1613.80376614     A.U. after   13 cycles
 E2 =    -0.1948264361D+01 EUMP2 =    -0.16157520305021D+04
 SCF Done:  E(RHF) =  -1613.80373100     A.U. after   11 cycles
 E2 =    -0.1948305938D+01 EUMP2 =    -0.16157520369398D+04
 SCF Done:  E(RHF) =  -1613.80361207     A.U. after   11 cycles
 E2 =    -0.1948428756D+01 EUMP2 =    -0.16157520408253D+04
 SCF Done:  E(RHF) =  -1613.80358551     A.U. after    9 cycles
 E2 =    -0.1948455738D+01 EUMP2 =    -0.16157520412465D+04
 Optimization completed.
    -- Stationary point found.

                         Standard orientation:
 ---------------------------------------------------------------------
 Center     Atomic      Atomic             Coordinates (Angstroms)
 Number     Number       Type             X           Y           Z
 ---------------------------------------------------------------------
      1          6           0        3.947459    0.788235    0.215211
      2          6           0        2.557679    1.065005    0.382461
      3          6           0        1.758925    0.021717   -0.111394
      4          6           0        2.003383    2.312606    1.023094
      5          6           0        4.199110   -0.446731   -0.375667
      6          1           0        4.746061    1.464127    0.532958
      7         16           0        2.730648   -1.280457   -0.749866
      8          1           0        5.161862   -0.903616   -0.607426
      9          6           0        0.303430   -0.068328   -0.088648
     10         16           0       -0.492051   -1.400516    0.754876
     11          6           0       -2.066011   -0.749362    0.391583
     12          6           0       -1.951578    0.464240   -0.333165
     13          6           0       -0.610993    0.849763   -0.609476
     14          1           0       -0.295359    1.730041   -1.173397
     15         16           0       -3.526180    1.113297   -0.699829
     16          6           0       -4.307358   -0.226939    0.108668
     17          6           0       -3.412654   -1.146187    0.642385
     18          1           0       -5.397170   -0.260390    0.147832
     19          1           0       -3.724755   -2.043135    1.180195
     20          1           0        2.612593    2.603208    1.893395
     21          1           0        0.966947    2.148951    1.356727
     22          1           0        2.002769    3.159509    0.316510
 ---------------------------------------------------------------------

 The electronic state is 1-A.
 Alpha  occ. eigenvalues --  -91.99525 -91.99430 -91.98984 -11.29374 -11.28508
 Alpha  occ. eigenvalues --  -11.28084 -11.27986 -11.27983 -11.27973 -11.26563
 Alpha  occ. eigenvalues --  -11.26523 -11.26177 -11.25140 -11.24128  -8.99635
 Alpha  occ. eigenvalues --   -8.99517  -8.99143  -6.67801  -6.67720  -6.67679
 Alpha  occ. eigenvalues --   -6.67594  -6.67524  -6.67397  -6.67305  -6.67213
 Alpha  occ. eigenvalues --   -6.67035  -1.20639  -1.17718  -1.11850  -1.03609
 Alpha  occ. eigenvalues --   -1.02586  -1.01233  -0.94977  -0.94418  -0.91263
 Alpha  occ. eigenvalues --   -0.82005  -0.76784  -0.76112  -0.72495  -0.69691
 Alpha  occ. eigenvalues --   -0.66724  -0.66218  -0.60289  -0.58751  -0.58614
 Alpha  occ. eigenvalues --   -0.56667  -0.55733  -0.54189  -0.53680  -0.52430
 Alpha  occ. eigenvalues --   -0.51806  -0.50822  -0.49515  -0.47526  -0.46293
 Alpha  occ. eigenvalues --   -0.45883  -0.39054  -0.34376  -0.33354  -0.32132
 Alpha  occ. eigenvalues --   -0.28012
 Alpha virt. eigenvalues --    0.03428   0.03529   0.04088   0.04757   0.04915
 Alpha virt. eigenvalues --    0.05534   0.06542   0.06770   0.07491   0.08412
 Alpha virt. eigenvalues --    0.08738   0.09176   0.09974   0.10572   0.10634

 Mulliken charges:
               1
     1  C    0.542094
     2  C   -0.672377
     3  C    0.695706
     4  C    0.356593
     5  C   -0.370766
     6  H   -0.434882
     7  S    0.353748
     8  H   -0.333671
     9  C    0.277591
    10  S    0.413789
    11  C   -0.725955
    12  C   -0.286620
    13  C    0.131957
    14  H   -0.439024
    15  S    0.625270
    16  C   -0.102405
    17  C    0.557226
    18  H   -0.351030
    19  H   -0.296065
    20  H   -0.046435
    21  H   -0.013171
    22  H    0.118429
 Sum of Mulliken charges =  -0.00000

 Dipole moment (field-independent basis, Debye):
    X=              0.3194    Y=              1.0265    Z=              0.5618  Tot=              1.2130
 Quadrupole moment (field-independent basis, Debye-Ang):
   XX=            -87.6869   YY=           -101.2814   ZZ=           -108.9326
   XY=              5.6449   XZ=             -1.4726   YZ=             -1.3438

 Normal termination of Gaussian 16 at Wed Oct 27 00:28:07 2021.
