 Gaussian 16, Revision C.01,
 Gaussian 16:  ES64L-G16RevC.01  3-Jul-2019

 ----------------------------------
 # opt=modredundant mp2/aug-cc-pvdz
 ----------------------------------

 -------------
 pBTTT_-45.pdb
 -------------
 Symbolic Z-matrix:
 Charge =  0 Multiplicity = 1

 SCF Done:  E(RHF) =  -1613.81409353     A.U. after   17 cycles
 E2 =    -0.1928143791D+01 EUMP2 =    -0.16157422373224D+04
 SCF Done:  E(RHF) =  -1613.80541663     A.U. after   15 cycles
 E2 =    -0.1946091110D+01 EUMP2 =    -0.16157515077407D+04
 SCF Done:  E(RHF) =  -1613.80361985     A.U. after   13 cycles
 E2 =    -0.1948442901D+01 EUMP2 =    -0.16157520627517D+04
 SCF Done:  E(RHF) =  -1613.80298409     A.U. after   14 cycles
 E2 =    -0.1949174920D+01 EUMP2 =    -0.16157521590105D+04
 SCF Done:  E(RHF) =  -1613.80292477     A.U. after   12 cycles
 E2 =    -0.1949268964D+01 EUMP2 =    -0.16157521937345D+04
 SCF Done:  E(RHF) =  -1613.80300147     A.U. after   13 cycles
 E2 =    -0.1949218143D+01 EUMP2 =    -0.16157522196148D+04
 SCF Done:  E(RHF) =  -1613.80325957     A.U. after   13 cycles
 E2 =    -0.1948995436D+01 EUMP2 =    -0.16157522550026D+04
 SCF Done:  E(RHF) =  -1613.80323491     A.U. after   12 cycles
 E2 =    -0.1949029593D+01 EUMP2 =    -0.16157522645071D+04
 SCF Done:  E(RHF) =  -1613.80318095     A.U. after   11 cycles
 E2 =    -0.1949085587D+01 EUMP2 =    -0.16157522665362D+04
 SCF Done:  E(RHF) =  -1613.80313215     A.U. after   10 cycles
 E2 =    -0.1949134683D+01 EUMP2 =    -0.16157522668302D+04
 Optimization completed.
    -- Stationary point found.

                         Standard orientation:
 ---------------------------------------------------------------------
 Center     Atomic      Atomic             Coordinates (Angstroms)
 Number     Number       Type             X           Y           Z
 ---------------------------------------------------------------------
      1          6           0       -4.036221    0.311552    0.262805
      2          6           0       -2.711521    0.825620    0.383842
      3          6           0       -1.749913   -0.127590    0.007965
      4          6           0       -2.386045    2.213022    0.882097
      5          6           0       -4.085717   -1.003665   -0.191010
      6          1           0       -4.933231    0.882886    0.516685
      7         16           0       -2.499961   -1.622636   -0.494780
      8          1           0       -4.961162   -1.632169   -0.357579
      9          6           0       -0.297403   -0.028248    0.009773
     10         16           0        0.504037    1.413487   -0.624716
     11          6           0        2.076523    0.725718   -0.331000
     12          6           0        1.959537   -0.577385    0.215138
     13          6           0        0.619149   -1.004866    0.413357
     14          1           0        0.303695   -1.958302    0.842912
     15         16           0        3.532982   -1.258847    0.522668
     16          6           0        4.316551    0.186430   -0.075289
     17          6           0        3.423046    1.164484   -0.494938
     18          1           0        5.406535    0.231889   -0.089383
     19          1           0        3.736756    2.129297   -0.897365
     20          1           0       -3.196400    2.582911    1.528967
     21          1           0       -2.268443    2.925576    0.048686
     22          1           0       -1.448585    2.215404    1.459881
 ---------------------------------------------------------------------

 The electronic state is 1-A.
 Alpha  occ. eigenvalues --  -91.99483 -91.99465 -91.99053 -11.29563 -11.28476
 Alpha  occ. eigenvalues --  -11.28137 -11.28074 -11.27962 -11.27917 -11.26560
 Alpha  occ. eigenvalues --  -11.26440 -11.26153 -11.25181 -11.24135  -8.99595
 Alpha  occ. eigenvalues --   -8.99569  -8.99212  -6.67760  -6.67733  -6.67680
 Alpha  occ. eigenvalues --   -6.67649  -6.67483  -6.67451  -6.67374  -6.67282
 Alpha  occ. eigenvalues --   -6.67103  -1.20667  -1.17744  -1.11859  -1.03615
 Alpha  occ. eigenvalues --   -1.02688  -1.01290  -0.94937  -0.94369  -0.91366
 Alpha  occ. eigenvalues --   -0.82038  -0.77247  -0.76103  -0.71820  -0.69871
 Alpha  occ. eigenvalues --   -0.66808  -0.66260  -0.60023  -0.58938  -0.58605
 Alpha  occ. eigenvalues --   -0.56845  -0.55815  -0.54311  -0.53544  -0.52298
 Alpha  occ. eigenvalues --   -0.51862  -0.51124  -0.49601  -0.47355  -0.46268
 Alpha  occ. eigenvalues --   -0.45960  -0.39200  -0.34506  -0.33867  -0.32251
 Alpha  occ. eigenvalues --   -0.27224
 Alpha virt. eigenvalues --    0.03469   0.03496   0.04112   0.04792   0.04817
 Alpha virt. eigenvalues --    0.05865   0.06008   0.06069   0.07491   0.08497
 Alpha virt. eigenvalues --    0.09012   0.09581   0.10343   0.10559   0.10823

 Mulliken charges:
               1
     1  C    0.463075
     2  C   -0.491900
     3  C    0.718638
     4  C    0.398295
     5  C   -0.349540
     6  H   -0.452221
     7  S    0.380007
     8  H   -0.335392
     9  C    0.039383
    10  S    0.406365
    11  C   -0.623589
    12  C   -0.287885
    13  C    0.198949
    14  H   -0.456214
    15  S    0.593937
    16  C   -0.148485
    17  C    0.508587
    18  H   -0.355884
    19  H   -0.297256
    20  H   -0.149523
    21  H    0.137710
    22  H    0.102942
 Sum of Mulliken charges =  -0.00000

 Dipole moment (field-independent basis, Debye):
    X=             -0.4833    Y=              1.0616    Z=              0.4544  Tot=              1.2518
 Quadrupole moment (field-independent basis, Debye-Ang):
   XX=            -87.2263   YY=            -99.8878   ZZ=           -110.3917
   XY=              2.4392   XZ=             -2.6784   YZ=             -1.0007

 Normal termination of Gaussian 16 at Wed Oct 27 02:36:09 2021.
