 Gaussian 16, Revision C.01,
 Gaussian 16:  ES64L-G16RevC.01  3-Jul-2019

 ----------------------------------
 # opt=modredundant mp2/aug-cc-pvdz
 ----------------------------------

 -------------
 pBTTT_-75.pdb
 -------------
 Symbolic Z-matrix:
 Charge =  0 Multiplicity = 1

 SCF Done:  E(RHF) =  -1613.81482925     A.U. after   17 cycles
 E2 =    -0.1926655748D+01 EUMP2 =    -0.16157414849974D+04
 SCF Done:  E(RHF) =  -1613.80621637     A.U. after   14 cycles
 E2 =    -0.1944572632D+01 EUMP2 =    -0.16157507890043D+04
 SCF Done:  E(RHF) =  -1613.80429300     A.U. after   14 cycles
 E2 =    -0.1947059239D+01 EUMP2 =    -0.16157513522425D+04
 SCF Done:  E(RHF) =  -1613.80372765     A.U. after   13 cycles
 E2 =    -0.1947682302D+01 EUMP2 =    -0.16157514099540D+04
 SCF Done:  E(RHF) =  -1613.80379608     A.U. after   11 cycles
 E2 =    -0.1947617725D+01 EUMP2 =    -0.16157514138074D+04
 SCF Done:  E(RHF) =  -1613.80391308     A.U. after   11 cycles
 E2 =    -0.1947506406D+01 EUMP2 =    -0.16157514194900D+04
 SCF Done:  E(RHF) =  -1613.80397337     A.U. after   11 cycles
 E2 =    -0.1947450124D+01 EUMP2 =    -0.16157514234911D+04
 SCF Done:  E(RHF) =  -1613.80402387     A.U. after   11 cycles
 E2 =    -0.1947402424D+01 EUMP2 =    -0.16157514262894D+04
 SCF Done:  E(RHF) =  -1613.80392015     A.U. after   10 cycles
 E2 =    -0.1947509498D+01 EUMP2 =    -0.16157514296466D+04
 SCF Done:  E(RHF) =  -1613.80386511     A.U. after   11 cycles
 E2 =    -0.1947566311D+01 EUMP2 =    -0.16157514314215D+04
 SCF Done:  E(RHF) =  -1613.80388399     A.U. after   10 cycles
 E2 =    -0.1947547651D+01 EUMP2 =    -0.16157514316457D+04
 SCF Done:  E(RHF) =  -1613.80389578     A.U. after    9 cycles
 E2 =    -0.1947535919D+01 EUMP2 =    -0.16157514316961D+04
 Optimization completed.
    -- Stationary point found.

                         Standard orientation:
 ---------------------------------------------------------------------
 Center     Atomic      Atomic             Coordinates (Angstroms)
 Number     Number       Type             X           Y           Z
 ---------------------------------------------------------------------
      1          6           0       -3.998226    0.383198    0.476664
      2          6           0       -2.636640    0.783562    0.625651
      3          6           0       -1.759809   -0.120808    0.010387
      4          6           0       -2.174572    2.017914    1.358461
      5          6           0       -4.149400   -0.804662   -0.233446
      6          1           0       -4.846717    0.938681    0.885281
      7         16           0       -2.621605   -1.441177   -0.735271
      8          1           0       -5.070810   -1.333525   -0.480084
      9          6           0       -0.298598   -0.060179   -0.029628
     10         16           0        0.501549    1.099552   -1.092477
     11          6           0        2.073802    0.562700   -0.570905
     12          6           0        1.954851   -0.487516    0.375057
     13          6           0        0.611947   -0.841943    0.682425
     14          1           0        0.289582   -1.611941    1.386454
     15         16           0        3.526532   -1.025929    0.898646
     16          6           0        4.312906    0.142067   -0.138919
     17          6           0        3.422226    0.923135   -0.864591
     18          1           0        5.402854    0.186479   -0.156630
     19          1           0        3.738209    1.701419   -1.561370
     20          1           0       -2.656075    2.086716    2.347069
     21          1           0       -2.427874    2.931639    0.795817
     22          1           0       -1.083703    1.996587    1.502144
 ---------------------------------------------------------------------

 The electronic state is 1-A.
 Alpha  occ. eigenvalues --  -91.99518 -91.99394 -91.98951 -11.29279 -11.28549
 Alpha  occ. eigenvalues --  -11.28090 -11.27957 -11.27925 -11.27815 -11.26591
 Alpha  occ. eigenvalues --  -11.26563 -11.26085 -11.25049 -11.23957  -8.99630
 Alpha  occ. eigenvalues --   -8.99477  -8.99095  -6.67795  -6.67715  -6.67639
 Alpha  occ. eigenvalues --   -6.67553  -6.67519  -6.67358  -6.67254  -6.67163
 Alpha  occ. eigenvalues --   -6.66986  -1.20611  -1.17653  -1.11837  -1.03400
 Alpha  occ. eigenvalues --   -1.02698  -1.01079  -0.94936  -0.94426  -0.91151
 Alpha  occ. eigenvalues --   -0.81908  -0.76953  -0.75918  -0.72261  -0.69699
 Alpha  occ. eigenvalues --   -0.66685  -0.66213  -0.60136  -0.58849  -0.58501
 Alpha  occ. eigenvalues --   -0.56851  -0.55660  -0.54133  -0.53457  -0.52378
 Alpha  occ. eigenvalues --   -0.51696  -0.50877  -0.49407  -0.47530  -0.46277
 Alpha  occ. eigenvalues --   -0.45677  -0.38986  -0.34281  -0.32343  -0.32208
 Alpha  occ. eigenvalues --   -0.28909
 Alpha virt. eigenvalues --    0.03445   0.03488   0.04195   0.04644   0.04867
 Alpha virt. eigenvalues --    0.05776   0.06090   0.07237   0.07451   0.08477
 Alpha virt. eigenvalues --    0.08660   0.09072   0.09811   0.10211   0.10987

 Mulliken charges:
               1
     1  C    0.568857
     2  C   -0.858455
     3  C    0.755876
     4  C    0.362550
     5  C   -0.337418
     6  H   -0.433229
     7  S    0.332304
     8  H   -0.332663
     9  C    0.366079
    10  S    0.361274
    11  C   -0.704472
    12  C   -0.337768
    13  C    0.127314
    14  H   -0.443163
    15  S    0.636298
    16  C   -0.109024
    17  C    0.630767
    18  H   -0.354139
    19  H   -0.295589
    20  H    0.021632
    21  H    0.118682
    22  H   -0.075712
 Sum of Mulliken charges =  -0.00000

 Dipole moment (field-independent basis, Debye):
    X=             -0.3351    Y=              0.9579    Z=              0.6786  Tot=              1.2208
 Quadrupole moment (field-independent basis, Debye-Ang):
   XX=            -87.4819   YY=           -103.3963   ZZ=           -106.8524
   XY=              1.9058   XZ=             -4.3388   YZ=             -1.4221

 Normal termination of Gaussian 16 at Wed Oct 27 01:45:15 2021.
