 Gaussian 16, Revision C.01,
 Gaussian 16:  ES64L-G16RevC.01  3-Jul-2019

 ----------------------------------
 # opt=modredundant mp2/aug-cc-pvdz
 ----------------------------------

 -------------
 pBTTT_170.pdb
 -------------
 Symbolic Z-matrix:
 Charge =  0 Multiplicity = 1

 SCF Done:  E(RHF) =  -1613.81094990     A.U. after   17 cycles
 E2 =    -0.1930636234D+01 EUMP2 =    -0.16157415861349D+04
 SCF Done:  E(RHF) =  -1613.80234419     A.U. after   16 cycles
 E2 =    -0.1948339966D+01 EUMP2 =    -0.16157506841514D+04
 SCF Done:  E(RHF) =  -1613.80073117     A.U. after   13 cycles
 E2 =    -0.1950450963D+01 EUMP2 =    -0.16157511821323D+04
 SCF Done:  E(RHF) =  -1613.80024838     A.U. after   12 cycles
 E2 =    -0.1950983782D+01 EUMP2 =    -0.16157512321649D+04
 SCF Done:  E(RHF) =  -1613.80038181     A.U. after   11 cycles
 E2 =    -0.1950855520D+01 EUMP2 =    -0.16157512373329D+04
 SCF Done:  E(RHF) =  -1613.80046003     A.U. after   11 cycles
 E2 =    -0.1950779455D+01 EUMP2 =    -0.16157512394813D+04
 SCF Done:  E(RHF) =  -1613.80047690     A.U. after   10 cycles
 E2 =    -0.1950763448D+01 EUMP2 =    -0.16157512403530D+04
 SCF Done:  E(RHF) =  -1613.80046144     A.U. after   10 cycles
 E2 =    -0.1950779291D+01 EUMP2 =    -0.16157512407305D+04
 SCF Done:  E(RHF) =  -1613.80044433     A.U. after    9 cycles
 E2 =    -0.1950796485D+01 EUMP2 =    -0.16157512408193D+04
 Optimization completed.
    -- Stationary point found.

                         Standard orientation:
 ---------------------------------------------------------------------
 Center     Atomic      Atomic             Coordinates (Angstroms)
 Number     Number       Type             X           Y           Z
 ---------------------------------------------------------------------
      1          6           0       -3.973214    0.806250    0.001133
      2          6           0       -2.597774    1.170210    0.081030
      3          6           0       -1.753326    0.043703    0.011095
      4          6           0       -2.126384    2.592424    0.248329
      5          6           0       -4.184870   -0.562028   -0.132266
      6          1           0       -4.791409    1.529946    0.046778
      7         16           0       -2.687015   -1.424868   -0.170746
      8          1           0       -5.128206   -1.103373   -0.207034
      9          6           0       -0.300948   -0.016358    0.029988
     10         16           0        0.501547   -1.588497    0.193037
     11          6           0        2.076426   -0.853953    0.084321
     12          6           0        1.963438    0.549409   -0.063390
     13          6           0        0.625994    1.027537   -0.100601
     14          1           0        0.342253    2.068799   -0.242755
     15         16           0        3.539362    1.285850   -0.164646
     16          6           0        4.317737   -0.273057   -0.009578
     17          6           0        3.419852   -1.326892    0.116869
     18          1           0        5.407410   -0.325812   -0.020991
     19          1           0        3.729635   -2.367899    0.223877
     20          1           0       -2.979485    3.247644    0.479864
     21          1           0       -1.650363    2.972161   -0.672025
     22          1           0       -1.393711    2.675302    1.068397
 ---------------------------------------------------------------------

 The electronic state is 1-A.
 Alpha  occ. eigenvalues --  -91.99497 -91.99365 -91.99123 -11.29942 -11.28564
 Alpha  occ. eigenvalues --  -11.28427 -11.28056 -11.28015 -11.27919 -11.26551
 Alpha  occ. eigenvalues --  -11.26369 -11.26327 -11.25335 -11.24759  -8.99608
 Alpha  occ. eigenvalues --   -8.99498  -8.99311  -6.67774  -6.67694  -6.67665
 Alpha  occ. eigenvalues --   -6.67580  -6.67498  -6.67477  -6.67384  -6.67376
 Alpha  occ. eigenvalues --   -6.67203  -1.20700  -1.17880  -1.11858  -1.04091
 Alpha  occ. eigenvalues --   -1.02520  -1.01570  -0.94998  -0.94385  -0.91718
 Alpha  occ. eigenvalues --   -0.82224  -0.76860  -0.76649  -0.72346  -0.70087
 Alpha  occ. eigenvalues --   -0.66851  -0.66280  -0.60223  -0.59109  -0.58910
 Alpha  occ. eigenvalues --   -0.56403  -0.56015  -0.54892  -0.53909  -0.52431
 Alpha  occ. eigenvalues --   -0.51797  -0.51203  -0.49720  -0.47576  -0.46512
 Alpha  occ. eigenvalues --   -0.45660  -0.39477  -0.35085  -0.34456  -0.32240
 Alpha  occ. eigenvalues --   -0.26292
 Alpha virt. eigenvalues --    0.03342   0.03545   0.03937   0.04901   0.04991
 Alpha virt. eigenvalues --    0.05076   0.05728   0.06671   0.08003   0.08164
 Alpha virt. eigenvalues --    0.09380   0.09696   0.10308   0.10795   0.10987

 Mulliken charges:
               1
     1  C    0.511066
     2  C   -0.174621
     3  C    0.074161
     4  C    0.424708
     5  C   -0.344812
     6  H   -0.487736
     7  S    0.494941
     8  H   -0.362167
     9  C   -0.239266
    10  S    0.521004
    11  C   -0.511118
    12  C   -0.248378
    13  C    0.705105
    14  H   -0.672248
    15  S    0.516598
    16  C   -0.192199
    17  C    0.428616
    18  H   -0.360453
    19  H   -0.305014
    20  H   -0.280052
    21  H    0.256277
    22  H    0.245588
 Sum of Mulliken charges =  -0.00000

 Dipole moment (field-independent basis, Debye):
    X=             -0.5082    Y=              1.0709    Z=              0.0499  Tot=              1.1864
 Quadrupole moment (field-independent basis, Debye-Ang):
   XX=            -87.1775   YY=            -97.6985   ZZ=           -112.3947
   XY=             -6.6138   XZ=              0.3541   YZ=             -0.2145

 Normal termination of Gaussian 16 at Wed Oct 27 07:34:58 2021.
