 Gaussian 16, Revision C.01,
 Gaussian 16:  ES64L-G16RevC.01  3-Jul-2019

 ----------------------------------
 # opt=modredundant mp2/aug-cc-pvdz
 ----------------------------------

 --------------
 pBTTT_-170.pdb
 --------------
 Symbolic Z-matrix:
 Charge =  0 Multiplicity = 1

 SCF Done:  E(RHF) =  -1613.81095842     A.U. after   17 cycles
 E2 =    -0.1930654356D+01 EUMP2 =    -0.16157416127718D+04
 SCF Done:  E(RHF) =  -1613.80235284     A.U. after   16 cycles
 E2 =    -0.1948336877D+01 EUMP2 =    -0.16157506897215D+04
 SCF Done:  E(RHF) =  -1613.80073829     A.U. after   13 cycles
 E2 =    -0.1950449800D+01 EUMP2 =    -0.16157511880913D+04
 SCF Done:  E(RHF) =  -1613.80025925     A.U. after   12 cycles
 E2 =    -0.1950978640D+01 EUMP2 =    -0.16157512378913D+04
 SCF Done:  E(RHF) =  -1613.80039426     A.U. after   11 cycles
 E2 =    -0.1950848636D+01 EUMP2 =    -0.16157512428978D+04
 SCF Done:  E(RHF) =  -1613.80047180     A.U. after   11 cycles
 E2 =    -0.1950773024D+01 EUMP2 =    -0.16157512448282D+04
 SCF Done:  E(RHF) =  -1613.80048340     A.U. after   10 cycles
 E2 =    -0.1950762203D+01 EUMP2 =    -0.16157512456056D+04
 SCF Done:  E(RHF) =  -1613.80046784     A.U. after   10 cycles
 E2 =    -0.1950778127D+01 EUMP2 =    -0.16157512459717D+04
 Optimization completed.
    -- Stationary point found.

                         Standard orientation:
 ---------------------------------------------------------------------
 Center     Atomic      Atomic             Coordinates (Angstroms)
 Number     Number       Type             X           Y           Z
 ---------------------------------------------------------------------
      1          6           0        3.973226    0.806178    0.001070
      2          6           0        2.597836    1.170115    0.081828
      3          6           0        1.753358    0.043668    0.011289
      4          6           0        2.126240    2.592042    0.250957
      5          6           0        4.184748   -0.561973   -0.133516
      6          1           0        4.791587    1.529649    0.047055
      7         16           0        2.686915   -1.424706   -0.172509
      8          1           0        5.128075   -1.103226   -0.208899
      9          6           0        0.300948   -0.016327    0.030316
     10         16           0       -0.501548   -1.588269    0.194932
     11          6           0       -2.076369   -0.853843    0.085220
     12          6           0       -1.963382    0.549348   -0.064113
     13          6           0       -0.625898    1.027360   -0.101732
     14          1           0       -0.341874    2.068337   -0.245409
     15         16           0       -3.539286    1.285689   -0.166352
     16          6           0       -4.317654   -0.272992   -0.009620
     17          6           0       -3.419872   -1.326669    0.118184
     18          1           0       -5.407308   -0.325863   -0.021111
     19          1           0       -3.729898   -2.367475    0.226357
     20          1           0        2.978968    3.246826    0.485076
     21          1           0        1.392265    2.673353    1.069973
     22          1           0        1.651816    2.973539   -0.669476
 ---------------------------------------------------------------------

 The electronic state is 1-A.
 Alpha  occ. eigenvalues --  -91.99497 -91.99365 -91.99122 -11.29940 -11.28563
 Alpha  occ. eigenvalues --  -11.28425 -11.28056 -11.28014 -11.27920 -11.26550
 Alpha  occ. eigenvalues --  -11.26369 -11.26326 -11.25334 -11.24757  -8.99608
 Alpha  occ. eigenvalues --   -8.99497  -8.99311  -6.67774  -6.67694  -6.67665
 Alpha  occ. eigenvalues --   -6.67579  -6.67498  -6.67477  -6.67383  -6.67376
 Alpha  occ. eigenvalues --   -6.67202  -1.20701  -1.17881  -1.11860  -1.04091
 Alpha  occ. eigenvalues --   -1.02519  -1.01570  -0.95000  -0.94386  -0.91717
 Alpha  occ. eigenvalues --   -0.82224  -0.76858  -0.76647  -0.72348  -0.70087
 Alpha  occ. eigenvalues --   -0.66851  -0.66280  -0.60224  -0.59109  -0.58909
 Alpha  occ. eigenvalues --   -0.56403  -0.56016  -0.54891  -0.53909  -0.52432
 Alpha  occ. eigenvalues --   -0.51798  -0.51203  -0.49719  -0.47575  -0.46512
 Alpha  occ. eigenvalues --   -0.45661  -0.39476  -0.35084  -0.34455  -0.32241
 Alpha  occ. eigenvalues --   -0.26295
 Alpha virt. eigenvalues --    0.03342   0.03545   0.03938   0.04902   0.04992
 Alpha virt. eigenvalues --    0.05078   0.05726   0.06672   0.08005   0.08163
 Alpha virt. eigenvalues --    0.09373   0.09697   0.10310   0.10795   0.10981

 Mulliken charges:
               1
     1  C    0.510010
     2  C   -0.174927
     3  C    0.076236
     4  C    0.424429
     5  C   -0.345068
     6  H   -0.487441
     7  S    0.495095
     8  H   -0.362113
     9  C   -0.237231
    10  S    0.520300
    11  C   -0.511466
    12  C   -0.250265
    13  C    0.703403
    14  H   -0.671030
    15  S    0.517128
    16  C   -0.191642
    17  C    0.428546
    18  H   -0.360508
    19  H   -0.304992
    20  H   -0.279625
    21  H    0.245079
    22  H    0.256080
 Sum of Mulliken charges =  -0.00000

 Dipole moment (field-independent basis, Debye):
    X=              0.5076    Y=              1.0706    Z=              0.0504  Tot=              1.1859
 Quadrupole moment (field-independent basis, Debye-Ang):
   XX=            -87.1769   YY=            -97.7041   ZZ=           -112.3895
   XY=              6.6133   XZ=             -0.3580   YZ=             -0.2173

 Normal termination of Gaussian 16 at Tue Oct 26 23:02:02 2021.
