 Gaussian 16, Revision C.01,
 Gaussian 16:  ES64L-G16RevC.01  3-Jul-2019

 ----------------------------------
 # opt=modredundant mp2/aug-cc-pvdz
 ----------------------------------

 -------------
 pBTTT_-10.pdb
 -------------
 Symbolic Z-matrix:
 Charge =  0 Multiplicity = 1

 SCF Done:  E(RHF) =  -1613.81195444     A.U. after   17 cycles
 E2 =    -0.1929823764D+01 EUMP2 =    -0.16157417782076D+04
 SCF Done:  E(RHF) =  -1613.80309337     A.U. after   16 cycles
 E2 =    -0.1948141256D+01 EUMP2 =    -0.16157512346310D+04
 SCF Done:  E(RHF) =  -1613.80149125     A.U. after   14 cycles
 E2 =    -0.1950265919D+01 EUMP2 =    -0.16157517571686D+04
 SCF Done:  E(RHF) =  -1613.80084845     A.U. after   14 cycles
 E2 =    -0.1950969543D+01 EUMP2 =    -0.16157518179938D+04
 SCF Done:  E(RHF) =  -1613.80112385     A.U. after   13 cycles
 E2 =    -0.1950705175D+01 EUMP2 =    -0.16157518290209D+04
 SCF Done:  E(RHF) =  -1613.80122043     A.U. after   11 cycles
 E2 =    -0.1950610335D+01 EUMP2 =    -0.16157518307619D+04
 SCF Done:  E(RHF) =  -1613.80122468     A.U. after   10 cycles
 E2 =    -0.1950606768D+01 EUMP2 =    -0.16157518314500D+04
 SCF Done:  E(RHF) =  -1613.80120528     A.U. after   10 cycles
 E2 =    -0.1950626403D+01 EUMP2 =    -0.16157518316783D+04
 SCF Done:  E(RHF) =  -1613.80119433     A.U. after    9 cycles
 E2 =    -0.1950637435D+01 EUMP2 =    -0.16157518317613D+04
 Optimization completed.
    -- Stationary point found.

                         Standard orientation:
 ---------------------------------------------------------------------
 Center     Atomic      Atomic             Coordinates (Angstroms)
 Number     Number       Type             X           Y           Z
 ---------------------------------------------------------------------
      1          6           0       -4.052935    0.291045    0.054274
      2          6           0       -2.742761    0.854308    0.086671
      3          6           0       -1.745251   -0.137594    0.008413
      4          6           0       -2.490569    2.338147    0.196807
      5          6           0       -4.066322   -1.094628   -0.050295
      6          1           0       -4.965945    0.889828    0.108797
      7         16           0       -2.459564   -1.731816   -0.117466
      8          1           0       -4.922495   -1.768452   -0.090789
      9          6           0       -0.296647   -0.026683    0.012560
     10         16           0        0.512545    1.545004   -0.132542
     11          6           0        2.082158    0.797445   -0.077786
     12          6           0        1.966505   -0.608663    0.047931
     13          6           0        0.628538   -1.075821    0.103228
     14          1           0        0.327611   -2.120586    0.209863
     15         16           0        3.540987   -1.351869    0.116792
     16          6           0        4.322819    0.207804   -0.021691
     17          6           0        3.427447    1.266534   -0.115905
     18          1           0        5.412726    0.256228   -0.028668
     19          1           0        3.739612    2.308261   -0.208844
     20          1           0       -3.443875    2.868142    0.342842
     21          1           0       -2.017040    2.738288   -0.715369
     22          1           0       -1.831948    2.575824    1.048373
 ---------------------------------------------------------------------

 The electronic state is 1-A.
 Alpha  occ. eigenvalues --  -91.99533 -91.99424 -91.99036 -11.29935 -11.28569
 Alpha  occ. eigenvalues --  -11.28356 -11.28063 -11.28062 -11.27813 -11.26527
 Alpha  occ. eigenvalues --  -11.26396 -11.26240 -11.25305 -11.24399  -8.99647
 Alpha  occ. eigenvalues --   -8.99534  -8.99227  -6.67812  -6.67728  -6.67700
 Alpha  occ. eigenvalues --   -6.67620  -6.67527  -6.67423  -6.67396  -6.67302
 Alpha  occ. eigenvalues --   -6.67120  -1.20685  -1.17838  -1.11839  -1.03945
 Alpha  occ. eigenvalues --   -1.02679  -1.01456  -0.94898  -0.94341  -0.91647
 Alpha  occ. eigenvalues --   -0.82180  -0.77562  -0.76191  -0.71444  -0.70102
 Alpha  occ. eigenvalues --   -0.67033  -0.66332  -0.59986  -0.59012  -0.58924
 Alpha  occ. eigenvalues --   -0.56860  -0.55899  -0.54616  -0.53753  -0.52219
 Alpha  occ. eigenvalues --   -0.51799  -0.51504  -0.49729  -0.47059  -0.46579
 Alpha  occ. eigenvalues --   -0.45766  -0.39526  -0.35003  -0.34490  -0.32319
 Alpha  occ. eigenvalues --   -0.26165
 Alpha virt. eigenvalues --    0.03412   0.03481   0.03982   0.04728   0.04985
 Alpha virt. eigenvalues --    0.05117   0.06025   0.06107   0.07400   0.08409
 Alpha virt. eigenvalues --    0.09619   0.09832   0.10329   0.10639   0.10815

 Mulliken charges:
               1
     1  C    0.467547
     2  C   -0.427797
     3  C    0.457311
     4  C    0.493286
     5  C   -0.401800
     6  H   -0.487429
     7  S    0.563394
     8  H   -0.367225
     9  C   -0.047697
    10  S    0.544802
    11  C   -0.755227
    12  C   -0.143432
    13  C    0.298111
    14  H   -0.501960
    15  S    0.510259
    16  C   -0.203811
    17  C    0.481051
    18  H   -0.365559
    19  H   -0.302026
    20  H   -0.220585
    21  H    0.205822
    22  H    0.202965
 Sum of Mulliken charges =  -0.00000

 Dipole moment (field-independent basis, Debye):
    X=             -0.7009    Y=              1.1802    Z=              0.1059  Tot=              1.3767
 Quadrupole moment (field-independent basis, Debye-Ang):
   XX=            -86.8166   YY=            -97.9236   ZZ=           -112.4539
   XY=              2.3153   XZ=             -0.6174   YZ=             -0.2419

 Normal termination of Gaussian 16 at Wed Oct 27 03:01:25 2021.
