 Gaussian 16, Revision C.01,
 Gaussian 16:  ES64L-G16RevC.01  3-Jul-2019

 ----------------------------------
 # opt=modredundant mp2/aug-cc-pvdz
 ----------------------------------

 -------------
 pBTTT_-90.pdb
 -------------
 Symbolic Z-matrix:
 Charge =  0 Multiplicity = 1

 SCF Done:  E(RHF) =  -1613.81472032     A.U. after   17 cycles
 E2 =    -0.1926517441D+01 EUMP2 =    -0.16157412377609D+04
 SCF Done:  E(RHF) =  -1613.80610223     A.U. after   14 cycles
 E2 =    -0.1944379386D+01 EUMP2 =    -0.16157504816172D+04
 SCF Done:  E(RHF) =  -1613.80415011     A.U. after   14 cycles
 E2 =    -0.1946913768D+01 EUMP2 =    -0.16157510638732D+04
 SCF Done:  E(RHF) =  -1613.80353203     A.U. after   13 cycles
 E2 =    -0.1947597408D+01 EUMP2 =    -0.16157511294339D+04
 SCF Done:  E(RHF) =  -1613.80363332     A.U. after   11 cycles
 E2 =    -0.1947499677D+01 EUMP2 =    -0.16157511329926D+04
 SCF Done:  E(RHF) =  -1613.80371197     A.U. after   10 cycles
 E2 =    -0.1947424316D+01 EUMP2 =    -0.16157511362815D+04
 SCF Done:  E(RHF) =  -1613.80373287     A.U. after   10 cycles
 E2 =    -0.1947403845D+01 EUMP2 =    -0.16157511367107D+04
 SCF Done:  E(RHF) =  -1613.80372834     A.U. after    9 cycles
 E2 =    -0.1947408470D+01 EUMP2 =    -0.16157511368118D+04
 SCF Done:  E(RHF) =  -1613.80371713     A.U. after    8 cycles
 E2 =    -0.1947419713D+01 EUMP2 =    -0.16157511368386D+04
 SCF Done:  E(RHF) =  -1613.80371131     A.U. after    8 cycles
 E2 =    -0.1947425553D+01 EUMP2 =    -0.16157511368607D+04
 SCF Done:  E(RHF) =  -1613.80371139     A.U. after    7 cycles
 E2 =    -0.1947425488D+01 EUMP2 =    -0.16157511368766D+04
 SCF Done:  E(RHF) =  -1613.80371470     A.U. after    7 cycles
 E2 =    -0.1947422190D+01 EUMP2 =    -0.16157511368931D+04
 SCF Done:  E(RHF) =  -1613.80371912     A.U. after    8 cycles
 E2 =    -0.1947417795D+01 EUMP2 =    -0.16157511369104D+04
 SCF Done:  E(RHF) =  -1613.80372158     A.U. after    8 cycles
 E2 =    -0.1947415334D+01 EUMP2 =    -0.16157511369187D+04
 Optimization completed.
    -- Stationary point found.

                         Standard orientation:
 ---------------------------------------------------------------------
 Center     Atomic      Atomic             Coordinates (Angstroms)
 Number     Number       Type             X           Y           Z
 ---------------------------------------------------------------------
      1          6           0        3.971192    0.715958   -0.057471
      2          6           0        2.592047    1.051501    0.092453
      3          6           0        1.762685   -0.060635   -0.106717
      4          6           0        2.066042    2.424005    0.427516
      5          6           0        4.181468   -0.626680   -0.358579
      6          1           0        4.790355    1.431978    0.050620
      7         16           0        2.689173   -1.494710   -0.462907
      8          1           0        5.127644   -1.142701   -0.525967
      9          6           0        0.300437   -0.096125   -0.035883
     10         16           0       -0.499017   -0.444631    1.497958
     11          6           0       -2.071153   -0.242091    0.777491
     12          6           0       -1.952606    0.080961   -0.598596
     13          6           0       -0.609724    0.162963   -1.060924
     14          1           0       -0.286623    0.396761   -2.077457
     15         16           0       -3.524525    0.281739   -1.321924
     16          6           0       -4.310450   -0.064470    0.201794
     17          6           0       -3.419641   -0.326627    1.234971
     18          1           0       -5.400301   -0.054099    0.250542
     19          1           0       -3.735272   -0.562136    2.252788
     20          1           0        2.375866    3.160403   -0.331817
     21          1           0        2.449987    2.764631    1.402914
     22          1           0        0.966472    2.414238    0.472031
 ---------------------------------------------------------------------

 The electronic state is 1-A.
 Alpha  occ. eigenvalues --  -91.99530 -91.99387 -91.98908 -11.29231 -11.28563
 Alpha  occ. eigenvalues --  -11.28098 -11.27955 -11.27945 -11.27770 -11.26598
 Alpha  occ. eigenvalues --  -11.26567 -11.26100 -11.25025 -11.23948  -8.99641
 Alpha  occ. eigenvalues --   -8.99468  -8.99054  -6.67807  -6.67726  -6.67629
 Alpha  occ. eigenvalues --   -6.67544  -6.67530  -6.67349  -6.67214  -6.67123
 Alpha  occ. eigenvalues --   -6.66946  -1.20604  -1.17638  -1.11833  -1.03398
 Alpha  occ. eigenvalues --   -1.02678  -1.01048  -0.94943  -0.94437  -0.91122
 Alpha  occ. eigenvalues --   -0.81893  -0.76862  -0.75872  -0.72427  -0.69654
 Alpha  occ. eigenvalues --   -0.66670  -0.66209  -0.60208  -0.58780  -0.58507
 Alpha  occ. eigenvalues --   -0.56834  -0.55647  -0.54098  -0.53476  -0.52389
 Alpha  occ. eigenvalues --   -0.51685  -0.50816  -0.49388  -0.47554  -0.46281
 Alpha  occ. eigenvalues --   -0.45642  -0.38952  -0.34258  -0.32287  -0.31779
 Alpha  occ. eigenvalues --   -0.29401
 Alpha virt. eigenvalues --    0.03427   0.03491   0.04184   0.04629   0.04887
 Alpha virt. eigenvalues --    0.05657   0.06237   0.07378   0.07673   0.08387
 Alpha virt. eigenvalues --    0.08740   0.08935   0.09390   0.10207   0.10912

 Mulliken charges:
               1
     1  C    0.666199
     2  C   -1.052917
     3  C    0.858900
     4  C    0.381132
     5  C   -0.374473
     6  H   -0.434914
     7  S    0.330081
     8  H   -0.331752
     9  C    0.421204
    10  S    0.366583
    11  C   -0.716790
    12  C   -0.360281
    13  C    0.084985
    14  H   -0.437565
    15  S    0.638263
    16  C   -0.087127
    17  C    0.649835
    18  H   -0.354259
    19  H   -0.296928
    20  H    0.069492
    21  H    0.075851
    22  H   -0.095519
 Sum of Mulliken charges =  -0.00000

 Dipole moment (field-independent basis, Debye):
    X=              0.2844    Y=              1.1858    Z=              0.2173  Tot=              1.2386
 Quadrupole moment (field-independent basis, Debye-Ang):
   XX=            -87.6118   YY=           -106.0965   ZZ=           -104.1551
   XY=              3.0017   XZ=             -4.2518   YZ=             -0.6412

 Normal termination of Gaussian 16 at Wed Oct 27 01:32:50 2021.
