 Gaussian 16, Revision C.01,
 Gaussian 16:  ES64L-G16RevC.01  3-Jul-2019

 ----------------------------------
 # opt=modredundant mp2/aug-cc-pvdz
 ----------------------------------

 --------------
 pBTTT_-150.pdb
 --------------
 Symbolic Z-matrix:
 Charge =  0 Multiplicity = 1

 SCF Done:  E(RHF) =  -1613.81325926     A.U. after   17 cycles
 E2 =    -0.1929198412D+01 EUMP2 =    -0.16157424576757D+04
 SCF Done:  E(RHF) =  -1613.80465826     A.U. after   15 cycles
 E2 =    -0.1947092045D+01 EUMP2 =    -0.16157517503101D+04
 SCF Done:  E(RHF) =  -1613.80287338     A.U. after   13 cycles
 E2 =    -0.1949425998D+01 EUMP2 =    -0.16157522993824D+04
 SCF Done:  E(RHF) =  -1613.80229804     A.U. after   12 cycles
 E2 =    -0.1950080683D+01 EUMP2 =    -0.16157523787235D+04
 SCF Done:  E(RHF) =  -1613.80234164     A.U. after   12 cycles
 E2 =    -0.1950052345D+01 EUMP2 =    -0.16157523939830D+04
 SCF Done:  E(RHF) =  -1613.80245386     A.U. after   11 cycles
 E2 =    -0.1949948648D+01 EUMP2 =    -0.16157524025063D+04
 SCF Done:  E(RHF) =  -1613.80255417     A.U. after   11 cycles
 E2 =    -0.1949853712D+01 EUMP2 =    -0.16157524078787D+04
 SCF Done:  E(RHF) =  -1613.80253700     A.U. after   11 cycles
 E2 =    -0.1949871768D+01 EUMP2 =    -0.16157524087662D+04
 SCF Done:  E(RHF) =  -1613.80249977     A.U. after   10 cycles
 E2 =    -0.1949909208D+01 EUMP2 =    -0.16157524089798D+04
 Optimization completed.
    -- Stationary point found.

                         Standard orientation:
 ---------------------------------------------------------------------
 Center     Atomic      Atomic             Coordinates (Angstroms)
 Number     Number       Type             X           Y           Z
 ---------------------------------------------------------------------
      1          6           0        3.963791    0.807505    0.073203
      2          6           0        2.584650    1.140884    0.213796
      3          6           0        1.754724    0.031147   -0.028657
      4          6           0        2.083553    2.507494    0.608068
      5          6           0        4.184494   -0.523945   -0.265992
      6          1           0        4.778234    1.519871    0.230575
      7         16           0        2.694190   -1.385745   -0.434484
      8          1           0        5.133279   -1.038538   -0.420662
      9          6           0        0.303094   -0.031451    0.003462
     10         16           0       -0.502284   -1.541124    0.453556
     11          6           0       -2.073408   -0.827225    0.217681
     12          6           0       -1.953691    0.529035   -0.175059
     13          6           0       -0.612574    0.980809   -0.305638
     14          1           0       -0.308185    1.970827   -0.647357
     15         16           0       -3.525978    1.244508   -0.402616
     16          6           0       -4.312293   -0.258591    0.024884
     17          6           0       -3.420222   -1.278737    0.333357
     18          1           0       -5.402274   -0.306061    0.024839
     19          1           0       -3.735559   -2.283026    0.621669
     20          1           0        2.860168    3.050852    1.167805
     21          1           0        1.184745    2.427958    1.240874
     22          1           0        1.822030    3.114349   -0.275666
 ---------------------------------------------------------------------

 The electronic state is 1-A.
 Alpha  occ. eigenvalues --  -91.99511 -91.99424 -91.99099 -11.29700 -11.28446
 Alpha  occ. eigenvalues --  -11.28324 -11.28094 -11.27984 -11.27946 -11.26556
 Alpha  occ. eigenvalues --  -11.26442 -11.26224 -11.25281 -11.24496  -8.99621
 Alpha  occ. eigenvalues --   -8.99537  -8.99272  -6.67787  -6.67707  -6.67701
 Alpha  occ. eigenvalues --   -6.67617  -6.67511  -6.67436  -6.67416  -6.67343
 Alpha  occ. eigenvalues --   -6.67163  -1.20695  -1.17826  -1.11872  -1.03907
 Alpha  occ. eigenvalues --   -1.02538  -1.01465  -0.95005  -0.94400  -0.91529
 Alpha  occ. eigenvalues --   -0.82159  -0.76809  -0.76466  -0.72410  -0.69893
 Alpha  occ. eigenvalues --   -0.66800  -0.66258  -0.60273  -0.58909  -0.58816
 Alpha  occ. eigenvalues --   -0.56479  -0.55899  -0.54565  -0.53862  -0.52436
 Alpha  occ. eigenvalues --   -0.51859  -0.51010  -0.49669  -0.47535  -0.46383
 Alpha  occ. eigenvalues --   -0.45931  -0.39318  -0.34737  -0.34233  -0.32278
 Alpha  occ. eigenvalues --   -0.26773
 Alpha virt. eigenvalues --    0.03393   0.03543   0.04006   0.04898   0.04963
 Alpha virt. eigenvalues --    0.05436   0.05701   0.06780   0.07799   0.08289
 Alpha virt. eigenvalues --    0.08723   0.09885   0.10012   0.10725   0.10848

 Mulliken charges:
               1
     1  C    0.434621
     2  C   -0.334421
     3  C    0.426638
     4  C    0.371752
     5  C   -0.351640
     6  H   -0.455716
     7  S    0.447889
     8  H   -0.341733
     9  C    0.047198
    10  S    0.461745
    11  C   -0.607758
    12  C   -0.353050
    13  C    0.342068
    14  H   -0.489001
    15  S    0.572635
    16  C   -0.134759
    17  C    0.478465
    18  H   -0.357415
    19  H   -0.298460
    20  H   -0.192205
    21  H    0.142888
    22  H    0.190259
 Sum of Mulliken charges =  -0.00000

 Dipole moment (field-independent basis, Debye):
    X=              0.4277    Y=              1.0406    Z=              0.2464  Tot=              1.1517
 Quadrupole moment (field-independent basis, Debye-Ang):
   XX=            -87.4162   YY=            -98.8098   ZZ=           -111.3625
   XY=              6.3552   XZ=             -0.8164   YZ=             -0.7175

 Normal termination of Gaussian 16 at Tue Oct 26 23:26:58 2021.
