 Gaussian 16, Revision C.01,
 Gaussian 16:  ES64L-G16RevC.01  3-Jul-2019

 ----------------------------------
 # opt=modredundant mp2/aug-cc-pvdz
 ----------------------------------

 -------------
 pBTTT_105.pdb
 -------------
 Symbolic Z-matrix:
 Charge =  0 Multiplicity = 1

 SCF Done:  E(RHF) =  -1613.81467560     A.U. after   17 cycles
 E2 =    -0.1926643861D+01 EUMP2 =    -0.16157413194603D+04
 SCF Done:  E(RHF) =  -1613.80608579     A.U. after   14 cycles
 E2 =    -0.1944591363D+01 EUMP2 =    -0.16157506771521D+04
 SCF Done:  E(RHF) =  -1613.80406491     A.U. after   14 cycles
 E2 =    -0.1947230728D+01 EUMP2 =    -0.16157512956374D+04
 SCF Done:  E(RHF) =  -1613.80342150     A.U. after   13 cycles
 E2 =    -0.1947944443D+01 EUMP2 =    -0.16157513659441D+04
 SCF Done:  E(RHF) =  -1613.80351385     A.U. after   11 cycles
 E2 =    -0.1947857471D+01 EUMP2 =    -0.16157513713180D+04
 SCF Done:  E(RHF) =  -1613.80360319     A.U. after   10 cycles
 E2 =    -0.1947772477D+01 EUMP2 =    -0.16157513756672D+04
 SCF Done:  E(RHF) =  -1613.80366275     A.U. after   11 cycles
 E2 =    -0.1947715504D+01 EUMP2 =    -0.16157513782593D+04
 SCF Done:  E(RHF) =  -1613.80368355     A.U. after   10 cycles
 E2 =    -0.1947696122D+01 EUMP2 =    -0.16157513796710D+04
 SCF Done:  E(RHF) =  -1613.80362350     A.U. after   10 cycles
 E2 =    -0.1947758306D+01 EUMP2 =    -0.16157513818033D+04
 SCF Done:  E(RHF) =  -1613.80356886     A.U. after   11 cycles
 E2 =    -0.1947814846D+01 EUMP2 =    -0.16157513837096D+04
 SCF Done:  E(RHF) =  -1613.80358942     A.U. after   10 cycles
 E2 =    -0.1947794781D+01 EUMP2 =    -0.16157513841968D+04
 SCF Done:  E(RHF) =  -1613.80359872     A.U. after    9 cycles
 E2 =    -0.1947785535D+01 EUMP2 =    -0.16157513842525D+04
 Optimization completed.
    -- Stationary point found.

                         Standard orientation:
 ---------------------------------------------------------------------
 Center     Atomic      Atomic             Coordinates (Angstroms)
 Number     Number       Type             X           Y           Z
 ---------------------------------------------------------------------
      1          6           0       -3.952231    0.750073    0.241312
      2          6           0       -2.563600    1.002754    0.453069
      3          6           0       -1.761652    0.007692   -0.124190
      4          6           0       -2.007524    2.182122    1.210049
      5          6           0       -4.197785   -0.422161   -0.467850
      6          1           0       -4.753712    1.398683    0.605175
      7         16           0       -2.726630   -1.225475   -0.893925
      8          1           0       -5.158245   -0.848553   -0.759694
      9          6           0       -0.302266   -0.079614   -0.092583
     10         16           0        0.493734   -1.250625    0.961012
     11          6           0        2.067278   -0.666117    0.497922
     12          6           0        1.951936    0.404537   -0.425243
     13          6           0        0.610553    0.736572   -0.762144
     14          1           0        0.290814    1.515356   -1.457700
     15         16           0        3.525769    0.987349   -0.892286
     16          6           0        4.308025   -0.190829    0.137072
     17          6           0        3.414552   -1.008340    0.817684
     18          1           0        5.397767   -0.212773    0.184629
     19          1           0        3.727616   -1.798237    1.502611
     20          1           0       -2.511380    2.292503    2.183616
     21          1           0       -2.153834    3.119396    0.647978
     22          1           0       -0.928712    2.053490    1.385989
 ---------------------------------------------------------------------

 The electronic state is 1-A.
 Alpha  occ. eigenvalues --  -91.99532 -91.99405 -91.98920 -11.29267 -11.28548
 Alpha  occ. eigenvalues --  -11.28093 -11.27969 -11.27965 -11.27843 -11.26567
 Alpha  occ. eigenvalues --  -11.26566 -11.26141 -11.25061 -11.24002  -8.99642
 Alpha  occ. eigenvalues --   -8.99488  -8.99073  -6.67808  -6.67727  -6.67649
 Alpha  occ. eigenvalues --   -6.67564  -6.67531  -6.67368  -6.67234  -6.67142
 Alpha  occ. eigenvalues --   -6.66964  -1.20615  -1.17665  -1.11839  -1.03478
 Alpha  occ. eigenvalues --   -1.02632  -1.01113  -0.94958  -0.94430  -0.91166
 Alpha  occ. eigenvalues --   -0.81931  -0.76808  -0.75947  -0.72500  -0.69650
 Alpha  occ. eigenvalues --   -0.66688  -0.66211  -0.60266  -0.58741  -0.58540
 Alpha  occ. eigenvalues --   -0.56769  -0.55676  -0.54116  -0.53546  -0.52414
 Alpha  occ. eigenvalues --   -0.51734  -0.50797  -0.49432  -0.47544  -0.46290
 Alpha  occ. eigenvalues --   -0.45729  -0.38975  -0.34293  -0.32671  -0.31964
 Alpha  occ. eigenvalues --   -0.28853
 Alpha virt. eigenvalues --    0.03428   0.03510   0.04139   0.04680   0.04903
 Alpha virt. eigenvalues --    0.05576   0.06429   0.07274   0.07471   0.08424
 Alpha virt. eigenvalues --    0.08776   0.08938   0.09621   0.10339   0.10697

 Mulliken charges:
               1
     1  C    0.630780
     2  C   -0.943321
     3  C    0.826794
     4  C    0.372629
     5  C   -0.383011
     6  H   -0.432856
     7  S    0.346140
     8  H   -0.332702
     9  C    0.366113
    10  S    0.398302
    11  C   -0.734108
    12  C   -0.316469
    13  C    0.086304
    14  H   -0.439778
    15  S    0.636748
    16  C   -0.089283
    17  C    0.606851
    18  H   -0.351970
    19  H   -0.297013
    20  H    0.020969
    21  H    0.107365
    22  H   -0.078483
 Sum of Mulliken charges =  -0.00000

 Dipole moment (field-independent basis, Debye):
    X=             -0.2809    Y=              1.0213    Z=              0.6445  Tot=              1.2399
 Quadrupole moment (field-independent basis, Debye-Ang):
   XX=            -87.6876   YY=           -103.1162   ZZ=           -107.1221
   XY=             -5.1564   XZ=              2.0392   YZ=             -1.4795

 Normal termination of Gaussian 16 at Wed Oct 27 06:07:14 2021.
