 Gaussian 16, Revision C.01,
 Gaussian 16:  ES64L-G16RevC.01  3-Jul-2019

 ----------------------------------
 # opt=modredundant mp2/aug-cc-pvdz
 ----------------------------------

 --------------
 pBTTT_-115.pdb
 --------------
 Symbolic Z-matrix:
 Charge =  0 Multiplicity = 1

 SCF Done:  E(RHF) =  -1613.81469604     A.U. after   17 cycles
 E2 =    -0.1927022631D+01 EUMP2 =    -0.16157417186673D+04
 SCF Done:  E(RHF) =  -1613.80611225     A.U. after   15 cycles
 E2 =    -0.1944962825D+01 EUMP2 =    -0.16157510750702D+04
 SCF Done:  E(RHF) =  -1613.80406469     A.U. after   13 cycles
 E2 =    -0.1947636308D+01 EUMP2 =    -0.16157517009935D+04
 SCF Done:  E(RHF) =  -1613.80345132     A.U. after   12 cycles
 E2 =    -0.1948319457D+01 EUMP2 =    -0.16157517707794D+04
 SCF Done:  E(RHF) =  -1613.80351512     A.U. after   11 cycles
 E2 =    -0.1948264516D+01 EUMP2 =    -0.16157517796405D+04
 SCF Done:  E(RHF) =  -1613.80361219     A.U. after   11 cycles
 E2 =    -0.1948174550D+01 EUMP2 =    -0.16157517867435D+04
 SCF Done:  E(RHF) =  -1613.80374126     A.U. after   12 cycles
 E2 =    -0.1948055283D+01 EUMP2 =    -0.16157517965439D+04
 SCF Done:  E(RHF) =  -1613.80373363     A.U. after   11 cycles
 E2 =    -0.1948067879D+01 EUMP2 =    -0.16157518015092D+04
 SCF Done:  E(RHF) =  -1613.80362998     A.U. after   11 cycles
 E2 =    -0.1948176322D+01 EUMP2 =    -0.16157518063039D+04
 SCF Done:  E(RHF) =  -1613.80358164     A.U. after   10 cycles
 E2 =    -0.1948225924D+01 EUMP2 =    -0.16157518075624D+04
 Optimization completed.
    -- Stationary point found.

                         Standard orientation:
 ---------------------------------------------------------------------
 Center     Atomic      Atomic             Coordinates (Angstroms)
 Number     Number       Type             X           Y           Z
 ---------------------------------------------------------------------
      1          6           0        3.947318    0.778198    0.230056
      2          6           0        2.557042    1.045607    0.409294
      3          6           0        1.759851    0.018526   -0.118566
      4          6           0        1.998997    2.269128    1.091492
      5          6           0        4.200024   -0.435387   -0.403154
      6          1           0        4.745303    1.445076    0.567765
      7         16           0        2.732670   -1.259848   -0.801169
      8          1           0        5.163342   -0.881102   -0.653697
      9          6           0        0.303153   -0.073405   -0.094593
     10         16           0       -0.491664   -1.360762    0.815725
     11          6           0       -2.065782   -0.726938    0.424127
     12          6           0       -1.951765    0.448054   -0.361888
     13          6           0       -0.611141    0.818020   -0.659248
     14          1           0       -0.294369    1.670766   -1.263478
     15         16           0       -3.526453    1.079139   -0.758220
     16          6           0       -4.307249   -0.217348    0.119000
     17          6           0       -3.412477   -1.109215    0.697064
     18          1           0       -5.397010   -0.247413    0.162209
     19          1           0       -3.724386   -1.977235    1.280512
     20          1           0        2.575002    2.501849    2.001081
     21          1           0        0.946554    2.109282    1.372107
     22          1           0        2.044887    3.150873    0.430628
 ---------------------------------------------------------------------

 The electronic state is 1-A.
 Alpha  occ. eigenvalues --  -91.99528 -91.99423 -91.98961 -11.29332 -11.28523
 Alpha  occ. eigenvalues --  -11.28085 -11.27981 -11.27973 -11.27933 -11.26565
 Alpha  occ. eigenvalues --  -11.26538 -11.26168 -11.25112 -11.24080  -8.99638
 Alpha  occ. eigenvalues --   -8.99508  -8.99117  -6.67804  -6.67723  -6.67669
 Alpha  occ. eigenvalues --   -6.67584  -6.67527  -6.67388  -6.67278  -6.67187
 Alpha  occ. eigenvalues --   -6.67009  -1.20629  -1.17698  -1.11844  -1.03562
 Alpha  occ. eigenvalues --   -1.02599  -1.01191  -0.94970  -0.94421  -0.91226
 Alpha  occ. eigenvalues --   -0.81977  -0.76789  -0.76051  -0.72501  -0.69672
 Alpha  occ. eigenvalues --   -0.66711  -0.66214  -0.60284  -0.58744  -0.58583
 Alpha  occ. eigenvalues --   -0.56701  -0.55711  -0.54157  -0.53632  -0.52427
 Alpha  occ. eigenvalues --   -0.51782  -0.50808  -0.49485  -0.47532  -0.46293
 Alpha  occ. eigenvalues --   -0.45829  -0.39021  -0.34343  -0.33127  -0.32087
 Alpha  occ. eigenvalues --   -0.28285
 Alpha virt. eigenvalues --    0.03429   0.03524   0.04104   0.04729   0.04911
 Alpha virt. eigenvalues --    0.05545   0.06535   0.06919   0.07477   0.08422
 Alpha virt. eigenvalues --    0.08756   0.09079   0.09879   0.10520   0.10596

 Mulliken charges:
               1
     1  C    0.571260
     2  C   -0.759802
     3  C    0.740990
     4  C    0.359793
     5  C   -0.375903
     6  H   -0.433581
     7  S    0.348778
     8  H   -0.333572
     9  C    0.308704
    10  S    0.408645
    11  C   -0.732988
    12  C   -0.290332
    13  C    0.115556
    14  H   -0.440558
    15  S    0.630379
    16  C   -0.098012
    17  C    0.572390
    18  H   -0.350840
    19  H   -0.296323
    20  H   -0.022458
    21  H   -0.038069
    22  H    0.115944
 Sum of Mulliken charges =  -0.00000

 Dipole moment (field-independent basis, Debye):
    X=              0.3033    Y=              1.0245    Z=              0.5987  Tot=              1.2247
 Quadrupole moment (field-independent basis, Debye-Ang):
   XX=            -87.6997   YY=           -101.8355   ZZ=           -108.3857
   XY=              5.4998   XZ=             -1.6303   YZ=             -1.4072

 Normal termination of Gaussian 16 at Wed Oct 27 00:37:05 2021.
