 Gaussian 16, Revision C.01,
 Gaussian 16:  ES64L-G16RevC.01  3-Jul-2019

 ----------------------------------
 # opt=modredundant mp2/aug-cc-pvdz
 ----------------------------------

 -------------
 pBTTT_-65.pdb
 -------------
 Symbolic Z-matrix:
 Charge =  0 Multiplicity = 1

 SCF Done:  E(RHF) =  -1613.81480457     A.U. after   17 cycles
 E2 =    -0.1927004547D+01 EUMP2 =    -0.16157418091139D+04
 SCF Done:  E(RHF) =  -1613.80618772     A.U. after   15 cycles
 E2 =    -0.1944934123D+01 EUMP2 =    -0.16157511218404D+04
 SCF Done:  E(RHF) =  -1613.80428696     A.U. after   13 cycles
 E2 =    -0.1947391357D+01 EUMP2 =    -0.16157516783124D+04
 SCF Done:  E(RHF) =  -1613.80374395     A.U. after   13 cycles
 E2 =    -0.1947996170D+01 EUMP2 =    -0.16157517401189D+04
 SCF Done:  E(RHF) =  -1613.80379240     A.U. after   12 cycles
 E2 =    -0.1947956885D+01 EUMP2 =    -0.16157517492841D+04
 SCF Done:  E(RHF) =  -1613.80389688     A.U. after   11 cycles
 E2 =    -0.1947860604D+01 EUMP2 =    -0.16157517574844D+04
 SCF Done:  E(RHF) =  -1613.80408018     A.U. after   13 cycles
 E2 =    -0.1947693979D+01 EUMP2 =    -0.16157517741603D+04
 SCF Done:  E(RHF) =  -1613.80404568     A.U. after   12 cycles
 E2 =    -0.1947737726D+01 EUMP2 =    -0.16157517834088D+04
 SCF Done:  E(RHF) =  -1613.80389879     A.U. after   11 cycles
 E2 =    -0.1947893310D+01 EUMP2 =    -0.16157517921009D+04
 SCF Done:  E(RHF) =  -1613.80383116     A.U. after   11 cycles
 E2 =    -0.1947963148D+01 EUMP2 =    -0.16157517943115D+04
 Optimization completed.
    -- Stationary point found.

                         Standard orientation:
 ---------------------------------------------------------------------
 Center     Atomic      Atomic             Coordinates (Angstroms)
 Number     Number       Type             X           Y           Z
 ---------------------------------------------------------------------
      1          6           0       -4.014865    0.349167    0.404745
      2          6           0       -2.667416    0.793871    0.553441
      3          6           0       -1.756532   -0.121045    0.004748
      4          6           0       -2.255837    2.077945    1.229965
      5          6           0       -4.124052   -0.882249   -0.236047
      6          1           0       -4.883798    0.903574    0.769628
      7         16           0       -2.571988   -1.504278   -0.677290
      8          1           0       -5.027338   -1.449432   -0.463756
      9          6           0       -0.298054   -0.042587   -0.012752
     10         16           0        0.502661    1.244222   -0.918382
     11          6           0        2.074885    0.637180   -0.480075
     12          6           0        1.956083   -0.532051    0.313902
     13          6           0        0.613557   -0.918867    0.579672
     14          1           0        0.292334   -1.773635    1.178717
     15         16           0        3.527932   -1.137574    0.757565
     16          6           0        4.314098    0.160799   -0.111661
     17          6           0        3.423032    1.034634   -0.722227
     18          1           0        5.404109    0.205295   -0.127021
     19          1           0        3.738866    1.900469   -1.306812
     20          1           0       -2.872632    2.257395    2.124697
     21          1           0       -2.379321    2.942357    0.556476
     22          1           0       -1.199292    2.035287    1.535517
 ---------------------------------------------------------------------

 The electronic state is 1-A.
 Alpha  occ. eigenvalues --  -91.99509 -91.99414 -91.98997 -11.29353 -11.28530
 Alpha  occ. eigenvalues --  -11.28086 -11.27964 -11.27914 -11.27897 -11.26563
 Alpha  occ. eigenvalues --  -11.26559 -11.26091 -11.25091 -11.23997  -8.99621
 Alpha  occ. eigenvalues --   -8.99502  -8.99143  -6.67786  -6.67706  -6.67665
 Alpha  occ. eigenvalues --   -6.67579  -6.67510  -6.67383  -6.67303  -6.67212
 Alpha  occ. eigenvalues --   -6.67035  -1.20625  -1.17679  -1.11843  -1.03447
 Alpha  occ. eigenvalues --   -1.02697  -1.01140  -0.94935  -0.94410  -0.91204
 Alpha  occ. eigenvalues --   -0.81942  -0.77038  -0.75983  -0.72114  -0.69747
 Alpha  occ. eigenvalues --   -0.66712  -0.66221  -0.60088  -0.58882  -0.58516
 Alpha  occ. eigenvalues --   -0.56845  -0.55700  -0.54175  -0.53466  -0.52371
 Alpha  occ. eigenvalues --   -0.51739  -0.50945  -0.49459  -0.47490  -0.46278
 Alpha  occ. eigenvalues --   -0.45762  -0.39036  -0.34332  -0.32917  -0.32215
 Alpha  occ. eigenvalues --   -0.28309
 Alpha virt. eigenvalues --    0.03464   0.03490   0.04178   0.04694   0.04845
 Alpha virt. eigenvalues --    0.05858   0.06039   0.06798   0.07467   0.08535
 Alpha virt. eigenvalues --    0.08682   0.09212   0.10195   0.10277   0.10971

 Mulliken charges:
               1
     1  C    0.499415
     2  C   -0.663927
     3  C    0.697562
     4  C    0.352502
     5  C   -0.325169
     6  H   -0.436094
     7  S    0.342475
     8  H   -0.333124
     9  C    0.275508
    10  S    0.365248
    11  C   -0.681224
    12  C   -0.301897
    13  C    0.133333
    14  H   -0.444377
    15  S    0.627805
    16  C   -0.123196
    17  C    0.587854
    18  H   -0.354017
    19  H   -0.295150
    20  H   -0.035671
    21  H    0.128228
    22  H   -0.016084
 Sum of Mulliken charges =  -0.00000

 Dipole moment (field-independent basis, Debye):
    X=             -0.3805    Y=              0.9753    Z=              0.6164  Tot=              1.2149
 Quadrupole moment (field-independent basis, Debye-Ang):
   XX=            -87.3943   YY=           -101.9902   ZZ=           -108.2644
   XY=              2.2401   XZ=             -3.7669   YZ=             -1.3216

 Normal termination of Gaussian 16 at Wed Oct 27 01:59:40 2021.
