 Gaussian 16, Revision C.01,
 Gaussian 16:  ES64L-G16RevC.01  3-Jul-2019

 ----------------------------------
 # opt=modredundant mp2/aug-cc-pvdz
 ----------------------------------

 ------------
 pBTTT_45.pdb
 ------------
 Symbolic Z-matrix:
 Charge =  0 Multiplicity = 1

 SCF Done:  E(RHF) =  -1613.81409218     A.U. after   17 cycles
 E2 =    -0.1928124127D+01 EUMP2 =    -0.16157422163081D+04
 SCF Done:  E(RHF) =  -1613.80541956     A.U. after   15 cycles
 E2 =    -0.1946084714D+01 EUMP2 =    -0.16157515042726D+04
 SCF Done:  E(RHF) =  -1613.80362026     A.U. after   13 cycles
 E2 =    -0.1948440042D+01 EUMP2 =    -0.16157520603040D+04
 SCF Done:  E(RHF) =  -1613.80298741     A.U. after   13 cycles
 E2 =    -0.1949169352D+01 EUMP2 =    -0.16157521567567D+04
 SCF Done:  E(RHF) =  -1613.80293315     A.U. after   12 cycles
 E2 =    -0.1949259011D+01 EUMP2 =    -0.16157521921606D+04
 SCF Done:  E(RHF) =  -1613.80299706     A.U. after   13 cycles
 E2 =    -0.1949221637D+01 EUMP2 =    -0.16157522186993D+04
 SCF Done:  E(RHF) =  -1613.80325787     A.U. after   12 cycles
 E2 =    -0.1948997062D+01 EUMP2 =    -0.16157522549363D+04
 SCF Done:  E(RHF) =  -1613.80323381     A.U. after   12 cycles
 E2 =    -0.1949030684D+01 EUMP2 =    -0.16157522644933D+04
 SCF Done:  E(RHF) =  -1613.80316975     A.U. after   11 cycles
 E2 =    -0.1949096824D+01 EUMP2 =    -0.16157522665764D+04
 SCF Done:  E(RHF) =  -1613.80313068     A.U. after   10 cycles
 E2 =    -0.1949136148D+01 EUMP2 =    -0.16157522668301D+04
 Optimization completed.
    -- Stationary point found.

                         Standard orientation:
 ---------------------------------------------------------------------
 Center     Atomic      Atomic             Coordinates (Angstroms)
 Number     Number       Type             X           Y           Z
 ---------------------------------------------------------------------
      1          6           0        4.036218    0.311544    0.262802
      2          6           0        2.711527    0.825620    0.383832
      3          6           0        1.749909   -0.127582    0.007955
      4          6           0        2.386059    2.213026    0.882070
      5          6           0        4.085709   -1.003680   -0.190999
      6          1           0        4.933229    0.882878    0.516679
      7         16           0        2.499947   -1.622639   -0.494768
      8          1           0        4.961146   -1.632197   -0.357561
      9          6           0        0.297407   -0.028239    0.009772
     10         16           0       -0.504039    1.413499   -0.624699
     11          6           0       -2.076526    0.725723   -0.330994
     12          6           0       -1.959530   -0.577391    0.215126
     13          6           0       -0.619144   -1.004869    0.413340
     14          1           0       -0.303691   -1.958313    0.842873
     15         16           0       -3.532974   -1.258855    0.522651
     16          6           0       -4.316551    0.186432   -0.075270
     17          6           0       -3.423044    1.164491   -0.494918
     18          1           0       -5.406535    0.231884   -0.089352
     19          1           0       -3.736752    2.129310   -0.897331
     20          1           0        3.196412    2.582919    1.528940
     21          1           0        1.448595    2.215423    1.459850
     22          1           0        2.268462    2.925572    0.048652
 ---------------------------------------------------------------------

 The electronic state is 1-A.
 Alpha  occ. eigenvalues --  -91.99483 -91.99465 -91.99053 -11.29563 -11.28476
 Alpha  occ. eigenvalues --  -11.28137 -11.28074 -11.27962 -11.27917 -11.26560
 Alpha  occ. eigenvalues --  -11.26439 -11.26153 -11.25181 -11.24135  -8.99595
 Alpha  occ. eigenvalues --   -8.99569  -8.99212  -6.67760  -6.67733  -6.67680
 Alpha  occ. eigenvalues --   -6.67649  -6.67483  -6.67451  -6.67374  -6.67282
 Alpha  occ. eigenvalues --   -6.67103  -1.20667  -1.17744  -1.11859  -1.03616
 Alpha  occ. eigenvalues --   -1.02688  -1.01290  -0.94937  -0.94369  -0.91366
 Alpha  occ. eigenvalues --   -0.82038  -0.77247  -0.76104  -0.71820  -0.69871
 Alpha  occ. eigenvalues --   -0.66808  -0.66260  -0.60024  -0.58939  -0.58605
 Alpha  occ. eigenvalues --   -0.56845  -0.55815  -0.54311  -0.53544  -0.52298
 Alpha  occ. eigenvalues --   -0.51862  -0.51124  -0.49601  -0.47355  -0.46268
 Alpha  occ. eigenvalues --   -0.45960  -0.39200  -0.34506  -0.33867  -0.32251
 Alpha  occ. eigenvalues --   -0.27224
 Alpha virt. eigenvalues --    0.03469   0.03496   0.04112   0.04792   0.04817
 Alpha virt. eigenvalues --    0.05864   0.06008   0.06069   0.07491   0.08497
 Alpha virt. eigenvalues --    0.09012   0.09581   0.10343   0.10559   0.10823

 Mulliken charges:
               1
     1  C    0.463084
     2  C   -0.491861
     3  C    0.718649
     4  C    0.398300
     5  C   -0.349548
     6  H   -0.452221
     7  S    0.380009
     8  H   -0.335393
     9  C    0.039330
    10  S    0.406373
    11  C   -0.623583
    12  C   -0.287920
    13  C    0.198985
    14  H   -0.456223
    15  S    0.593936
    16  C   -0.148499
    17  C    0.508596
    18  H   -0.355883
    19  H   -0.297256
    20  H   -0.149525
    21  H    0.102939
    22  H    0.137710
 Sum of Mulliken charges =  -0.00000

 Dipole moment (field-independent basis, Debye):
    X=              0.4833    Y=              1.0616    Z=              0.4544  Tot=              1.2518
 Quadrupole moment (field-independent basis, Debye-Ang):
   XX=            -87.2263   YY=            -99.8877   ZZ=           -110.3918
   XY=             -2.4393   XZ=              2.6783   YZ=             -1.0006

 Normal termination of Gaussian 16 at Wed Oct 27 05:22:35 2021.
