 Gaussian 16, Revision C.01,
 Gaussian 16:  ES64L-G16RevC.01  3-Jul-2019

 ----------------------------------
 # opt=modredundant mp2/aug-cc-pvdz
 ----------------------------------

 -------------
 pBTTT_-85.pdb
 -------------
 Symbolic Z-matrix:
 Charge =  0 Multiplicity = 1

 SCF Done:  E(RHF) =  -1613.81476101     A.U. after   17 cycles
 E2 =    -0.1926502655D+01 EUMP2 =    -0.16157412636645D+04
 SCF Done:  E(RHF) =  -1613.80613402     A.U. after   14 cycles
 E2 =    -0.1944405866D+01 EUMP2 =    -0.16157505398854D+04
 SCF Done:  E(RHF) =  -1613.80420479     A.U. after   14 cycles
 E2 =    -0.1946906390D+01 EUMP2 =    -0.16157511111779D+04
 SCF Done:  E(RHF) =  -1613.80359862     A.U. after   13 cycles
 E2 =    -0.1947575965D+01 EUMP2 =    -0.16157511745885D+04
 SCF Done:  E(RHF) =  -1613.80369422     A.U. after   11 cycles
 E2 =    -0.1947483692D+01 EUMP2 =    -0.16157511779136D+04
 SCF Done:  E(RHF) =  -1613.80377979     A.U. after   10 cycles
 E2 =    -0.1947402059D+01 EUMP2 =    -0.16157511818468D+04
 SCF Done:  E(RHF) =  -1613.80380736     A.U. after   10 cycles
 E2 =    -0.1947375279D+01 EUMP2 =    -0.16157511826383D+04
 SCF Done:  E(RHF) =  -1613.80381387     A.U. after   10 cycles
 E2 =    -0.1947369102D+01 EUMP2 =    -0.16157511829762D+04
 SCF Done:  E(RHF) =  -1613.80378795     A.U. after    9 cycles
 E2 =    -0.1947395351D+01 EUMP2 =    -0.16157511833000D+04
 SCF Done:  E(RHF) =  -1613.80376340     A.U. after    9 cycles
 E2 =    -0.1947420254D+01 EUMP2 =    -0.16157511836529D+04
 SCF Done:  E(RHF) =  -1613.80376337     A.U. after    9 cycles
 E2 =    -0.1947420490D+01 EUMP2 =    -0.16157511838587D+04
 SCF Done:  E(RHF) =  -1613.80377454     A.U. after    9 cycles
 E2 =    -0.1947409451D+01 EUMP2 =    -0.16157511839933D+04
 SCF Done:  E(RHF) =  -1613.80378430     A.U. after    9 cycles
 E2 =    -0.1947399779D+01 EUMP2 =    -0.16157511840741D+04
 Optimization completed.
    -- Stationary point found.

                         Standard orientation:
 ---------------------------------------------------------------------
 Center     Atomic      Atomic             Coordinates (Angstroms)
 Number     Number       Type             X           Y           Z
 ---------------------------------------------------------------------
      1          6           0        3.979561    0.502816   -0.467464
      2          6           0        2.605311    0.877898   -0.555062
      3          6           0        1.762154   -0.115891   -0.039579
      4          6           0        2.096732    2.176686   -1.127321
      5          6           0        4.172592   -0.750930    0.105775
      6          1           0        4.807317    1.126429   -0.815798
      7         16           0        2.669805   -1.484896    0.546586
      8          1           0        5.111629   -1.275803    0.285409
      9          6           0        0.299782   -0.087417    0.029880
     10         16           0       -0.499971    0.699540    1.391696
     11          6           0       -2.072102    0.354429    0.727511
     12          6           0       -1.953285   -0.350350   -0.497730
     13          6           0       -0.610303   -0.602002   -0.893815
     14          1           0       -0.287234   -1.122370   -1.797828
     15         16           0       -3.525026   -0.698226   -1.163278
     16          6           0       -4.311273    0.090429    0.185444
     17          6           0       -3.420628    0.605820    1.118689
     18          1           0       -5.401155    0.130281    0.214265
     19          1           0       -3.736447    1.129595    2.022547
     20          1           0        2.458805    2.319517   -2.158370
     21          1           0        2.442551    3.034170   -0.527129
     22          1           0        0.996349    2.186559   -1.141133
 ---------------------------------------------------------------------

 The electronic state is 1-A.
 Alpha  occ. eigenvalues --  -91.99527 -91.99386 -91.98917 -11.29237 -11.28562
 Alpha  occ. eigenvalues --  -11.28096 -11.27955 -11.27938 -11.27771 -11.26601
 Alpha  occ. eigenvalues --  -11.26566 -11.26091 -11.25027 -11.23945  -8.99638
 Alpha  occ. eigenvalues --   -8.99468  -8.99062  -6.67804  -6.67723  -6.67629
 Alpha  occ. eigenvalues --   -6.67543  -6.67527  -6.67348  -6.67222  -6.67131
 Alpha  occ. eigenvalues --   -6.66953  -1.20604  -1.17639  -1.11833  -1.03389
 Alpha  occ. eigenvalues --   -1.02688  -1.01047  -0.94940  -0.94436  -0.91123
 Alpha  occ. eigenvalues --   -0.81892  -0.76888  -0.75876  -0.72381  -0.69664
 Alpha  occ. eigenvalues --   -0.66671  -0.66210  -0.60185  -0.58803  -0.58502
 Alpha  occ. eigenvalues --   -0.56844  -0.55646  -0.54104  -0.53466  -0.52383
 Alpha  occ. eigenvalues --   -0.51681  -0.50831  -0.49386  -0.47550  -0.46279
 Alpha  occ. eigenvalues --   -0.45640  -0.38957  -0.34259  -0.32247  -0.31871
 Alpha  occ. eigenvalues --   -0.29346
 Alpha virt. eigenvalues --    0.03430   0.03488   0.04192   0.04624   0.04882
 Alpha virt. eigenvalues --    0.05694   0.06181   0.07373   0.07625   0.08397
 Alpha virt. eigenvalues --    0.08714   0.08974   0.09462   0.10196   0.10964

 Mulliken charges:
               1
     1  C    0.645942
     2  C   -1.016478
     3  C    0.832828
     4  C    0.376963
     5  C   -0.363921
     6  H   -0.434571
     7  S    0.326966
     8  H   -0.331999
     9  C    0.415824
    10  S    0.360156
    11  C   -0.711116
    12  C   -0.362952
    13  C    0.101516
    14  H   -0.439006
    15  S    0.638262
    16  C   -0.092405
    17  C    0.651053
    18  H   -0.354416
    19  H   -0.296559
    20  H    0.056352
    21  H    0.091683
    22  H   -0.094120
 Sum of Mulliken charges =  -0.00000

 Dipole moment (field-independent basis, Debye):
    X=              0.2964    Y=              1.0599    Z=             -0.5576  Tot=              1.2337
 Quadrupole moment (field-independent basis, Debye-Ang):
   XX=            -87.5760   YY=           -105.3312   ZZ=           -104.9193
   XY=             -0.6196   XZ=             -5.0243   YZ=              1.2492

 Normal termination of Gaussian 16 at Wed Oct 27 01:36:13 2021.
