 Gaussian 16, Revision C.01,
 Gaussian 16:  ES64L-G16RevC.01  3-Jul-2019

 ----------------------------------
 # opt=modredundant mp2/aug-cc-pvdz
 ----------------------------------

 --------------
 pBTTT_-145.pdb
 --------------
 Symbolic Z-matrix:
 Charge =  0 Multiplicity = 1

 SCF Done:  E(RHF) =  -1613.81371288     A.U. after   17 cycles
 E2 =    -0.1928961393D+01 EUMP2 =    -0.16157426742708D+04
 SCF Done:  E(RHF) =  -1613.80508678     A.U. after   15 cycles
 E2 =    -0.1946783733D+01 EUMP2 =    -0.16157518705151D+04
 SCF Done:  E(RHF) =  -1613.80327135     A.U. after   14 cycles
 E2 =    -0.1949148932D+01 EUMP2 =    -0.16157524202822D+04
 SCF Done:  E(RHF) =  -1613.80268494     A.U. after   12 cycles
 E2 =    -0.1949817567D+01 EUMP2 =    -0.16157525025060D+04
 SCF Done:  E(RHF) =  -1613.80267735     A.U. after   12 cycles
 E2 =    -0.1949843074D+01 EUMP2 =    -0.16157525204252D+04
 SCF Done:  E(RHF) =  -1613.80281267     A.U. after   11 cycles
 E2 =    -0.1949719455D+01 EUMP2 =    -0.16157525321286D+04
 SCF Done:  E(RHF) =  -1613.80296259     A.U. after   11 cycles
 E2 =    -0.1949578509D+01 EUMP2 =    -0.16157525410994D+04
 SCF Done:  E(RHF) =  -1613.80293065     A.U. after   11 cycles
 E2 =    -0.1949612112D+01 EUMP2 =    -0.16157525427602D+04
 SCF Done:  E(RHF) =  -1613.80288427     A.U. after   10 cycles
 E2 =    -0.1949658846D+01 EUMP2 =    -0.16157525431121D+04
 Optimization completed.
    -- Stationary point found.

                         Standard orientation:
 ---------------------------------------------------------------------
 Center     Atomic      Atomic             Coordinates (Angstroms)
 Number     Number       Type             X           Y           Z
 ---------------------------------------------------------------------
      1          6           0        3.960662    0.807463    0.099612
      2          6           0        2.579421    1.131863    0.242687
      3          6           0        1.755231    0.029447   -0.045088
      4          6           0        2.067999    2.481736    0.679345
      5          6           0        4.186920   -0.511530   -0.282372
      6          1           0        4.772474    1.515664    0.286647
      7         16           0        2.700344   -1.371516   -0.489290
      8          1           0        5.138371   -1.017755   -0.448136
      9          6           0        0.303388   -0.037230   -0.014534
     10         16           0       -0.500764   -1.525179    0.502365
     11          6           0       -2.072086   -0.818531    0.246265
     12          6           0       -1.952596    0.521049   -0.200985
     13          6           0       -0.611210    0.964228   -0.357274
     14          1           0       -0.303649    1.939610   -0.737332
     15         16           0       -3.524999    1.228849   -0.450427
     16          6           0       -4.311225   -0.254934    0.040106
     17          6           0       -3.419170   -1.263284    0.384827
     18          1           0       -5.401261   -0.300634    0.047282
     19          1           0       -3.734483   -2.254887    0.714172
     20          1           0        2.820101    2.992108    1.300433
     21          1           0        1.139934    2.377682    1.264265
     22          1           0        1.851212    3.132092   -0.185229
 ---------------------------------------------------------------------

 The electronic state is 1-A.
 Alpha  occ. eigenvalues --  -91.99513 -91.99432 -91.99088 -11.29639 -11.28451
 Alpha  occ. eigenvalues --  -11.28264 -11.28096 -11.27983 -11.27951 -11.26556
 Alpha  occ. eigenvalues --  -11.26455 -11.26211 -11.25263 -11.24429  -8.99623
 Alpha  occ. eigenvalues --   -8.99540  -8.99257  -6.67789  -6.67709  -6.67704
 Alpha  occ. eigenvalues --   -6.67620  -6.67513  -6.67421  -6.67419  -6.67328
 Alpha  occ. eigenvalues --   -6.67148  -1.20688  -1.17810  -1.11871  -1.03858
 Alpha  occ. eigenvalues --   -1.02542  -1.01432  -0.95003  -0.94404  -0.91481
 Alpha  occ. eigenvalues --   -0.82137  -0.76799  -0.76411  -0.72426  -0.69850
 Alpha  occ. eigenvalues --   -0.66788  -0.66250  -0.60279  -0.58860  -0.58795
 Alpha  occ. eigenvalues --   -0.56506  -0.55867  -0.54486  -0.53846  -0.52435
 Alpha  occ. eigenvalues --   -0.51862  -0.50967  -0.49650  -0.47528  -0.46354
 Alpha  occ. eigenvalues --   -0.45970  -0.39271  -0.34651  -0.34149  -0.32270
 Alpha  occ. eigenvalues --   -0.26933
 Alpha virt. eigenvalues --    0.03402   0.03542   0.04020   0.04889   0.04945
 Alpha virt. eigenvalues --    0.05475   0.05810   0.06784   0.07707   0.08320
 Alpha virt. eigenvalues --    0.08694   0.09793   0.10001   0.10697   0.10925

 Mulliken charges:
               1
     1  C    0.441276
     2  C   -0.379232
     3  C    0.483097
     4  C    0.365385
     5  C   -0.353271
     6  H   -0.450517
     7  S    0.429002
     8  H   -0.338479
     9  C    0.100037
    10  S    0.455810
    11  C   -0.634634
    12  C   -0.344229
    13  C    0.276425
    14  H   -0.464931
    15  S    0.584263
    16  C   -0.126615
    17  C    0.490872
    18  H   -0.356351
    19  H   -0.297493
    20  H   -0.168230
    21  H    0.116151
    22  H    0.171663
 Sum of Mulliken charges =  -0.00000

 Dipole moment (field-independent basis, Debye):
    X=              0.4095    Y=              1.0363    Z=              0.3052  Tot=              1.1553
 Quadrupole moment (field-independent basis, Debye-Ang):
   XX=            -87.4765   YY=            -99.1456   ZZ=           -111.0381
   XY=              6.2557   XZ=             -0.9080   YZ=             -0.8433

 Normal termination of Gaussian 16 at Tue Oct 26 23:29:20 2021.
