 Gaussian 16, Revision C.01,
 Gaussian 16:  ES64L-G16RevC.01  3-Jul-2019

 ----------------------------------
 # opt=modredundant mp2/aug-cc-pvdz
 ----------------------------------

 -----------
 pBTTT_5.pdb
 -----------
 Symbolic Z-matrix:
 Charge =  0 Multiplicity = 1

 SCF Done:  E(RHF) =  -1613.81183892     A.U. after   17 cycles
 E2 =    -0.1930132271D+01 EUMP2 =    -0.16157419711897D+04
 SCF Done:  E(RHF) =  -1613.80290839     A.U. after   16 cycles
 E2 =    -0.1948324810D+01 EUMP2 =    -0.16157512332022D+04
 SCF Done:  E(RHF) =  -1613.80138093     A.U. after   14 cycles
 E2 =    -0.1950343229D+01 EUMP2 =    -0.16157517241625D+04
 SCF Done:  E(RHF) =  -1613.80072938     A.U. after   14 cycles
 E2 =    -0.1951055209D+01 EUMP2 =    -0.16157517845900D+04
 SCF Done:  E(RHF) =  -1613.80104078     A.U. after   13 cycles
 E2 =    -0.1950754381D+01 EUMP2 =    -0.16157517951642D+04
 SCF Done:  E(RHF) =  -1613.80111139     A.U. after   11 cycles
 E2 =    -0.1950684664D+01 EUMP2 =    -0.16157517960535D+04
 SCF Done:  E(RHF) =  -1613.80111073     A.U. after    9 cycles
 E2 =    -0.1950685505D+01 EUMP2 =    -0.16157517962313D+04
 SCF Done:  E(RHF) =  -1613.80109989     A.U. after    9 cycles
 E2 =    -0.1950696405D+01 EUMP2 =    -0.16157517962958D+04
 SCF Done:  E(RHF) =  -1613.80109398     A.U. after    9 cycles
 E2 =    -0.1950702342D+01 EUMP2 =    -0.16157517963256D+04
 Optimization completed.
    -- Stationary point found.

                         Standard orientation:
 ---------------------------------------------------------------------
 Center     Atomic      Atomic             Coordinates (Angstroms)
 Number     Number       Type             X           Y           Z
 ---------------------------------------------------------------------
      1          6           0        4.053414    0.291794    0.026893
      2          6           0        2.743211    0.855876    0.042981
      3          6           0        1.745192   -0.138116    0.004198
      4          6           0        2.492740    2.343018    0.096962
      5          6           0        4.066823   -1.096641   -0.025030
      6          1           0        4.966347    0.892533    0.053819
      7         16           0        2.459862   -1.736228   -0.058254
      8          1           0        4.922775   -1.771626   -0.045075
      9          6           0        0.296622   -0.027300    0.006764
     10         16           0       -0.513346    1.549601   -0.065195
     11          6           0       -2.082674    0.800286   -0.038596
     12          6           0       -1.966896   -0.609973    0.023702
     13          6           0       -0.628955   -1.079180    0.051362
     14          1           0       -0.328904   -2.128287    0.104201
     15         16           0       -3.541343   -1.355743    0.057650
     16          6           0       -4.323300    0.208571   -0.010938
     17          6           0       -3.427951    1.270498   -0.057426
     18          1           0       -5.413204    0.257227   -0.014506
     19          1           0       -3.740090    2.315352   -0.103450
     20          1           0        3.450871    2.879438    0.168912
     21          1           0        1.879320    2.620280    0.970237
     22          1           0        1.970771    2.699999   -0.806577
 ---------------------------------------------------------------------

 The electronic state is 1-A.
 Alpha  occ. eigenvalues --  -91.99536 -91.99420 -91.99033 -11.29956 -11.28595
 Alpha  occ. eigenvalues --  -11.28348 -11.28075 -11.28063 -11.27799 -11.26524
 Alpha  occ. eigenvalues --  -11.26414 -11.26230 -11.25312 -11.24412  -8.99651
 Alpha  occ. eigenvalues --   -8.99530  -8.99227  -6.67815  -6.67732  -6.67696
 Alpha  occ. eigenvalues --   -6.67615  -6.67530  -6.67419  -6.67396  -6.67302
 Alpha  occ. eigenvalues --   -6.67120  -1.20684  -1.17843  -1.11836  -1.03964
 Alpha  occ. eigenvalues --   -1.02679  -1.01463  -0.94894  -0.94341  -0.91663
 Alpha  occ. eigenvalues --   -0.82188  -0.77579  -0.76193  -0.71426  -0.70117
 Alpha  occ. eigenvalues --   -0.67049  -0.66336  -0.59985  -0.59013  -0.58950
 Alpha  occ. eigenvalues --   -0.56862  -0.55898  -0.54636  -0.53766  -0.52229
 Alpha  occ. eigenvalues --   -0.51727  -0.51577  -0.49730  -0.47036  -0.46610
 Alpha  occ. eigenvalues --   -0.45739  -0.39547  -0.35035  -0.34509  -0.32323
 Alpha  occ. eigenvalues --   -0.26120
 Alpha virt. eigenvalues --    0.03404   0.03478   0.03971   0.04726   0.04987
 Alpha virt. eigenvalues --    0.05083   0.06042   0.06118   0.07386   0.08398
 Alpha virt. eigenvalues --    0.09644   0.09816   0.10316   0.10693   0.10834

 Mulliken charges:
               1
     1  C    0.481733
     2  C   -0.450457
     3  C    0.412968
     4  C    0.513807
     5  C   -0.400113
     6  H   -0.491038
     7  S    0.600498
     8  H   -0.370978
     9  C   -0.040623
    10  S    0.531437
    11  C   -0.751863
    12  C   -0.120850
    13  C    0.285451
    14  H   -0.503815
    15  S    0.500744
    16  C   -0.209400
    17  C    0.488698
    18  H   -0.367482
    19  H   -0.302728
    20  H   -0.219974
    21  H    0.206334
    22  H    0.207652
 Sum of Mulliken charges =  -0.00000

 Dipole moment (field-independent basis, Debye):
    X=              0.7150    Y=              1.1861    Z=              0.0521  Tot=              1.3859
 Quadrupole moment (field-independent basis, Debye-Ang):
   XX=            -86.7901   YY=            -97.8371   ZZ=           -112.5478
   XY=             -2.3045   XZ=              0.3060   YZ=             -0.1200

 Normal termination of Gaussian 16 at Wed Oct 27 03:41:18 2021.
