 Gaussian 16, Revision C.01,
 Gaussian 16:  ES64L-G16RevC.01  3-Jul-2019

 ----------------------------------
 # opt=modredundant mp2/aug-cc-pvdz
 ----------------------------------

 -------------
 pBTTT_130.pdb
 -------------
 Symbolic Z-matrix:
 Charge =  0 Multiplicity = 1

 SCF Done:  E(RHF) =  -1613.81452244     A.U. after   17 cycles
 E2 =    -0.1927813896D+01 EUMP2 =    -0.16157423363391D+04
 SCF Done:  E(RHF) =  -1613.80592748     A.U. after   15 cycles
 E2 =    -0.1945768428D+01 EUMP2 =    -0.16157516959057D+04
 SCF Done:  E(RHF) =  -1613.80394092     A.U. after   13 cycles
 E2 =    -0.1948351920D+01 EUMP2 =    -0.16157522928348D+04
 SCF Done:  E(RHF) =  -1613.80335930     A.U. after   12 cycles
 E2 =    -0.1949010497D+01 EUMP2 =    -0.16157523697961D+04
 SCF Done:  E(RHF) =  -1613.80334044     A.U. after   12 cycles
 E2 =    -0.1949047400D+01 EUMP2 =    -0.16157523878375D+04
 SCF Done:  E(RHF) =  -1613.80346068     A.U. after   11 cycles
 E2 =    -0.1948941220D+01 EUMP2 =    -0.16157524019005D+04
 SCF Done:  E(RHF) =  -1613.80366052     A.U. after   12 cycles
 E2 =    -0.1948760340D+01 EUMP2 =    -0.16157524208560D+04
 SCF Done:  E(RHF) =  -1613.80360246     A.U. after   11 cycles
 E2 =    -0.1948824806D+01 EUMP2 =    -0.16157524272702D+04
 SCF Done:  E(RHF) =  -1613.80350889     A.U. after   10 cycles
 E2 =    -0.1948920046D+01 EUMP2 =    -0.16157524289382D+04
 SCF Done:  E(RHF) =  -1613.80349462     A.U. after    9 cycles
 E2 =    -0.1948934398D+01 EUMP2 =    -0.16157524290184D+04
 Optimization completed.
    -- Stationary point found.

                         Standard orientation:
 ---------------------------------------------------------------------
 Center     Atomic      Atomic             Coordinates (Angstroms)
 Number     Number       Type             X           Y           Z
 ---------------------------------------------------------------------
      1          6           0       -3.951062    0.801289    0.175389
      2          6           0       -2.563793    1.097374    0.326764
      3          6           0       -1.757216    0.025621   -0.090206
      4          6           0       -2.023052    2.390079    0.884479
      5          6           0       -4.195190   -0.472143   -0.330828
      6          1           0       -4.753710    1.492811    0.445802
      7         16           0       -2.721003   -1.320365   -0.646022
      8          1           0       -5.154575   -0.950319   -0.531169
      9          6           0       -0.303700   -0.056411   -0.066204
     10         16           0        0.494802   -1.462261    0.646524
     11          6           0        2.067827   -0.783986    0.331071
     12          6           0        1.951389    0.490827   -0.278699
     13          6           0        0.610437    0.902857   -0.509728
     14          1           0        0.297124    1.827604   -0.998331
     15         16           0        3.525212    1.168471   -0.593642
     16          6           0        4.308416   -0.241191    0.084418
     17          6           0        3.414690   -1.203798    0.537621
     18          1           0        5.398368   -0.280283    0.112769
     19          1           0        3.728028   -2.146630    0.989348
     20          1           0       -2.693450    2.782100    1.665122
     21          1           0       -1.934697    3.161310    0.100731
     22          1           0       -1.023747    2.236787    1.321500
 ---------------------------------------------------------------------

 The electronic state is 1-A.
 Alpha  occ. eigenvalues --  -91.99519 -91.99439 -91.99032 -11.29471 -11.28480
 Alpha  occ. eigenvalues --  -11.28093 -11.28089 -11.27986 -11.27966 -11.26559
 Alpha  occ. eigenvalues --  -11.26494 -11.26190 -11.25195 -11.24239  -8.99629
 Alpha  occ. eigenvalues --   -8.99533  -8.99195  -6.67795  -6.67715  -6.67696
 Alpha  occ. eigenvalues --   -6.67611  -6.67518  -6.67413  -6.67357  -6.67265
 Alpha  occ. eigenvalues --   -6.67087  -1.20659  -1.17758  -1.11860  -1.03709
 Alpha  occ. eigenvalues --   -1.02563  -1.01319  -0.94990  -0.94412  -0.91345
 Alpha  occ. eigenvalues --   -0.82061  -0.76783  -0.76236  -0.72471  -0.69743
 Alpha  occ. eigenvalues --   -0.66751  -0.66229  -0.60290  -0.58776  -0.58692
 Alpha  occ. eigenvalues --   -0.56599  -0.55782  -0.54282  -0.53767  -0.52432
 Alpha  occ. eigenvalues --   -0.51842  -0.50865  -0.49575  -0.47520  -0.46299
 Alpha  occ. eigenvalues --   -0.45969  -0.39133  -0.34457  -0.33752  -0.32205
 Alpha  occ. eigenvalues --   -0.27519
 Alpha virt. eigenvalues --    0.03421   0.03536   0.04060   0.04818   0.04921
 Alpha virt. eigenvalues --    0.05515   0.06276   0.06745   0.07535   0.08381
 Alpha virt. eigenvalues --    0.08703   0.09403   0.10057   0.10591   0.10859

 Mulliken charges:
               1
     1  C    0.491001
     2  C   -0.530002
     3  C    0.612740
     4  C    0.355926
     5  C   -0.361616
     6  H   -0.439231
     7  S    0.375980
     8  H   -0.333903
     9  C    0.214232
    10  S    0.430403
    11  C   -0.699914
    12  C   -0.299219
    13  C    0.165722
    14  H   -0.437377
    15  S    0.612028
    16  C   -0.110464
    17  C    0.529101
    18  H   -0.352677
    19  H   -0.295961
    20  H   -0.095725
    21  H    0.130440
    22  H    0.038518
 Sum of Mulliken charges =  -0.00000

 Dipole moment (field-independent basis, Debye):
    X=             -0.3552    Y=              1.0298    Z=              0.4710  Tot=              1.1868
 Quadrupole moment (field-independent basis, Debye-Ang):
   XX=            -87.6287   YY=           -100.3143   ZZ=           -109.8890
   XY=             -5.9092   XZ=              1.2110   YZ=             -1.1754

 Normal termination of Gaussian 16 at Wed Oct 27 07:10:57 2021.
