 Gaussian 16, Revision C.01,
 Gaussian 16:  ES64L-G16RevC.01  3-Jul-2019

 ----------------------------------
 # opt=modredundant mp2/aug-cc-pvdz
 ----------------------------------

 -------------
 pBTTT_115.pdb
 -------------
 Symbolic Z-matrix:
 Charge =  0 Multiplicity = 1

 SCF Done:  E(RHF) =  -1613.81469653     A.U. after   17 cycles
 E2 =    -0.1927047385D+01 EUMP2 =    -0.16157417439171D+04
 SCF Done:  E(RHF) =  -1613.80611179     A.U. after   15 cycles
 E2 =    -0.1944966887D+01 EUMP2 =    -0.16157510786750D+04
 SCF Done:  E(RHF) =  -1613.80406704     A.U. after   13 cycles
 E2 =    -0.1947635201D+01 EUMP2 =    -0.16157517022414D+04
 SCF Done:  E(RHF) =  -1613.80345025     A.U. after   13 cycles
 E2 =    -0.1948321808D+01 EUMP2 =    -0.16157517720595D+04
 SCF Done:  E(RHF) =  -1613.80351347     A.U. after   11 cycles
 E2 =    -0.1948267432D+01 EUMP2 =    -0.16157517809073D+04
 SCF Done:  E(RHF) =  -1613.80361149     A.U. after   11 cycles
 E2 =    -0.1948176554D+01 EUMP2 =    -0.16157517880439D+04
 SCF Done:  E(RHF) =  -1613.80374288     A.U. after   12 cycles
 E2 =    -0.1948055069D+01 EUMP2 =    -0.16157517979484D+04
 SCF Done:  E(RHF) =  -1613.80373280     A.U. after   11 cycles
 E2 =    -0.1948070025D+01 EUMP2 =    -0.16157518028286D+04
 SCF Done:  E(RHF) =  -1613.80362813     A.U. after   11 cycles
 E2 =    -0.1948179332D+01 EUMP2 =    -0.16157518074651D+04
 SCF Done:  E(RHF) =  -1613.80358225     A.U. after   10 cycles
 E2 =    -0.1948226380D+01 EUMP2 =    -0.16157518086325D+04
 Optimization completed.
    -- Stationary point found.

                         Standard orientation:
 ---------------------------------------------------------------------
 Center     Atomic      Atomic             Coordinates (Angstroms)
 Number     Number       Type             X           Y           Z
 ---------------------------------------------------------------------
      1          6           0       -3.947319    0.778239    0.229990
      2          6           0       -2.557047    1.045681    0.409194
      3          6           0       -1.759846    0.018534   -0.118520
      4          6           0       -1.999005    2.269299    1.091222
      5          6           0       -4.200018   -0.435427   -0.403064
      6          1           0       -4.745307    1.445156    0.567615
      7         16           0       -2.732655   -1.259928   -0.800970
      8          1           0       -5.163328   -0.881197   -0.653536
      9          6           0       -0.303151   -0.073376   -0.094536
     10         16           0        0.491670   -1.360942    0.815477
     11          6           0        2.065782   -0.727049    0.423968
     12          6           0        1.951757    0.448127   -0.361767
     13          6           0        0.611135    0.818178   -0.658997
     14          1           0        0.294360    1.671058   -1.263035
     15         16           0        3.526441    1.079286   -0.757993
     16          6           0        4.307244   -0.217366    0.118976
     17          6           0        3.412475   -1.109389    0.696805
     18          1           0        5.397006   -0.247428    0.162177
     19          1           0        3.724395   -1.977539    1.280052
     20          1           0       -2.575221    2.502330    2.000596
     21          1           0       -2.044591    3.150882    0.430121
     22          1           0       -0.946658    2.109374    1.372154
 ---------------------------------------------------------------------

 The electronic state is 1-A.
 Alpha  occ. eigenvalues --  -91.99528 -91.99423 -91.98961 -11.29332 -11.28523
 Alpha  occ. eigenvalues --  -11.28085 -11.27981 -11.27973 -11.27933 -11.26565
 Alpha  occ. eigenvalues --  -11.26538 -11.26168 -11.25112 -11.24080  -8.99638
 Alpha  occ. eigenvalues --   -8.99508  -8.99117  -6.67804  -6.67723  -6.67669
 Alpha  occ. eigenvalues --   -6.67584  -6.67527  -6.67388  -6.67279  -6.67187
 Alpha  occ. eigenvalues --   -6.67009  -1.20629  -1.17698  -1.11845  -1.03562
 Alpha  occ. eigenvalues --   -1.02599  -1.01191  -0.94970  -0.94421  -0.91226
 Alpha  occ. eigenvalues --   -0.81977  -0.76789  -0.76051  -0.72501  -0.69672
 Alpha  occ. eigenvalues --   -0.66711  -0.66214  -0.60284  -0.58744  -0.58583
 Alpha  occ. eigenvalues --   -0.56701  -0.55711  -0.54157  -0.53632  -0.52427
 Alpha  occ. eigenvalues --   -0.51783  -0.50809  -0.49485  -0.47532  -0.46293
 Alpha  occ. eigenvalues --   -0.45830  -0.39021  -0.34344  -0.33128  -0.32087
 Alpha  occ. eigenvalues --   -0.28283
 Alpha virt. eigenvalues --    0.03429   0.03524   0.04104   0.04729   0.04911
 Alpha virt. eigenvalues --    0.05545   0.06536   0.06919   0.07478   0.08422
 Alpha virt. eigenvalues --    0.08755   0.09079   0.09880   0.10521   0.10596

 Mulliken charges:
               1
     1  C    0.571161
     2  C   -0.759354
     3  C    0.740719
     4  C    0.359747
     5  C   -0.375883
     6  H   -0.433582
     7  S    0.348785
     8  H   -0.333574
     9  C    0.308586
    10  S    0.408645
    11  C   -0.732950
    12  C   -0.290342
    13  C    0.115689
    14  H   -0.440553
    15  S    0.630352
    16  C   -0.098044
    17  C    0.572335
    18  H   -0.350845
    19  H   -0.296325
    20  H   -0.022591
    21  H    0.115956
    22  H   -0.037932
 Sum of Mulliken charges =  -0.00000

 Dipole moment (field-independent basis, Debye):
    X=             -0.3034    Y=              1.0245    Z=              0.5985  Tot=              1.2247
 Quadrupole moment (field-independent basis, Debye-Ang):
   XX=            -87.6997   YY=           -101.8332   ZZ=           -108.3880
   XY=             -5.5004   XZ=              1.6298   YZ=             -1.4069

 Normal termination of Gaussian 16 at Wed Oct 27 06:51:47 2021.
