 Gaussian 16, Revision C.01,
 Gaussian 16:  ES64L-G16RevC.01  3-Jul-2019

 ----------------------------------
 # opt=modredundant mp2/aug-cc-pvdz
 ----------------------------------

 -------------
 pBTTT_-55.pdb
 -------------
 Symbolic Z-matrix:
 Charge =  0 Multiplicity = 1

 SCF Done:  E(RHF) =  -1613.81457425     A.U. after   17 cycles
 E2 =    -0.1927599992D+01 EUMP2 =    -0.16157421742473D+04
 SCF Done:  E(RHF) =  -1613.80593274     A.U. after   15 cycles
 E2 =    -0.1945459237D+01 EUMP2 =    -0.16157513919752D+04
 SCF Done:  E(RHF) =  -1613.80407639     A.U. after   13 cycles
 E2 =    -0.1947864785D+01 EUMP2 =    -0.16157519411755D+04
 SCF Done:  E(RHF) =  -1613.80350377     A.U. after   13 cycles
 E2 =    -0.1948512821D+01 EUMP2 =    -0.16157520165949D+04
 SCF Done:  E(RHF) =  -1613.80348772     A.U. after   12 cycles
 E2 =    -0.1948549296D+01 EUMP2 =    -0.16157520370146D+04
 SCF Done:  E(RHF) =  -1613.80358922     A.U. after   12 cycles
 E2 =    -0.1948465510D+01 EUMP2 =    -0.16157520547337D+04
 SCF Done:  E(RHF) =  -1613.80382474     A.U. after   13 cycles
 E2 =    -0.1948262592D+01 EUMP2 =    -0.16157520873297D+04
 SCF Done:  E(RHF) =  -1613.80377607     A.U. after   12 cycles
 E2 =    -0.1948330017D+01 EUMP2 =    -0.16157521060881D+04
 SCF Done:  E(RHF) =  -1613.80365249     A.U. after   11 cycles
 E2 =    -0.1948461225D+01 EUMP2 =    -0.16157521137132D+04
 SCF Done:  E(RHF) =  -1613.80358526     A.U. after   11 cycles
 E2 =    -0.1948529396D+01 EUMP2 =    -0.16157521146595D+04
 SCF Done:  E(RHF) =  -1613.80358260     A.U. after    8 cycles
 E2 =    -0.1948532101D+01 EUMP2 =    -0.16157521146980D+04
 Optimization completed.
    -- Stationary point found.

                         Standard orientation:
 ---------------------------------------------------------------------
 Center     Atomic      Atomic             Coordinates (Angstroms)
 Number     Number       Type             X           Y           Z
 ---------------------------------------------------------------------
      1          6           0       -4.026552    0.329136    0.332084
      2          6           0       -2.691229    0.811238    0.469196
      3          6           0       -1.753024   -0.124066    0.004495
      4          6           0       -2.324425    2.149692    1.062330
      5          6           0       -4.103185   -0.948060   -0.217330
      6          1           0       -4.910832    0.892099    0.642981
      7         16           0       -2.532548   -1.567986   -0.590154
      8          1           0       -4.991418   -1.548912   -0.415651
      9          6           0       -0.297746   -0.034074   -0.000171
     10         16           0        0.502948    1.340158   -0.768368
     11          6           0        2.075503    0.687486   -0.402715
     12          6           0        1.957577   -0.559050    0.263032
     13          6           0        0.616120   -0.968952    0.493785
     14          1           0        0.297471   -1.879756    1.005382
     15         16           0        3.530241   -1.207999    0.637201
     16          6           0        4.315088    0.175036   -0.091508
     17          6           0        3.422764    1.108973   -0.603634
     18          1           0        5.405093    0.219930   -0.105730
     19          1           0        3.737460    2.031898   -1.093899
     20          1           0       -3.052625    2.436809    1.836762
     21          1           0       -2.317714    2.942149    0.295463
     22          1           0       -1.323023    2.114866    1.518447
 ---------------------------------------------------------------------

 The electronic state is 1-A.
 Alpha  occ. eigenvalues --  -91.99497 -91.99438 -91.99034 -11.29450 -11.28506
 Alpha  occ. eigenvalues --  -11.28081 -11.28005 -11.27968 -11.27908 -11.26562
 Alpha  occ. eigenvalues --  -11.26506 -11.26110 -11.25137 -11.24057  -8.99609
 Alpha  occ. eigenvalues --   -8.99534  -8.99185  -6.67774  -6.67697  -6.67694
 Alpha  occ. eigenvalues --   -6.67613  -6.67498  -6.67415  -6.67346  -6.67254
 Alpha  occ. eigenvalues --   -6.67077  -1.20648  -1.17712  -1.11853  -1.03521
 Alpha  occ. eigenvalues --   -1.02693  -1.01217  -0.94938  -0.94389  -0.91278
 Alpha  occ. eigenvalues --   -0.81989  -0.77139  -0.76050  -0.71966  -0.69805
 Alpha  occ. eigenvalues --   -0.66755  -0.66238  -0.60050  -0.58910  -0.58548
 Alpha  occ. eigenvalues --   -0.56844  -0.55756  -0.54235  -0.53497  -0.52346
 Alpha  occ. eigenvalues --   -0.51797  -0.51032  -0.49528  -0.47431  -0.46271
 Alpha  occ. eigenvalues --   -0.45866  -0.39110  -0.34408  -0.33441  -0.32232
 Alpha  occ. eigenvalues --   -0.27731
 Alpha virt. eigenvalues --    0.03471   0.03494   0.04149   0.04754   0.04819
 Alpha virt. eigenvalues --    0.05910   0.06038   0.06348   0.07492   0.08511
 Alpha virt. eigenvalues --    0.08833   0.09386   0.10299   0.10489   0.10925

 Mulliken charges:
               1
     1  C    0.468858
     2  C   -0.541476
     3  C    0.693005
     4  C    0.368270
     5  C   -0.331860
     6  H   -0.443523
     7  S    0.356486
     8  H   -0.333486
     9  C    0.156449
    10  S    0.371988
    11  C   -0.639499
    12  C   -0.293128
    13  C    0.159365
    14  H   -0.446113
    15  S    0.612146
    16  C   -0.134791
    17  C    0.544719
    18  H   -0.354695
    19  H   -0.295948
    20  H   -0.098185
    21  H    0.128612
    22  H    0.052805
 Sum of Mulliken charges =  -0.00000

 Dipole moment (field-independent basis, Debye):
    X=             -0.4273    Y=              1.0161    Z=              0.5381  Tot=              1.2266
 Quadrupole moment (field-independent basis, Debye-Ang):
   XX=            -87.3234   YY=           -100.8387   ZZ=           -109.4255
   XY=              2.3869   XZ=             -3.2214   YZ=             -1.1761

 Normal termination of Gaussian 16 at Wed Oct 27 02:06:51 2021.
