 Gaussian 16, Revision C.01,
 Gaussian 16:  ES64L-G16RevC.01  3-Jul-2019

 ----------------------------------
 # opt=modredundant mp2/aug-cc-pvdz
 ----------------------------------

 ------------
 pBTTT_50.pdb
 ------------
 Symbolic Z-matrix:
 Charge =  0 Multiplicity = 1

 SCF Done:  E(RHF) =  -1613.81436365     A.U. after   17 cycles
 E2 =    -0.1927873907D+01 EUMP2 =    -0.16157422375581D+04
 SCF Done:  E(RHF) =  -1613.80570126     A.U. after   15 cycles
 E2 =    -0.1945769117D+01 EUMP2 =    -0.16157514703762D+04
 SCF Done:  E(RHF) =  -1613.80388038     A.U. after   13 cycles
 E2 =    -0.1948138666D+01 EUMP2 =    -0.16157520190424D+04
 SCF Done:  E(RHF) =  -1613.80327593     A.U. after   13 cycles
 E2 =    -0.1948829228D+01 EUMP2 =    -0.16157521051615D+04
 SCF Done:  E(RHF) =  -1613.80323141     A.U. after   12 cycles
 E2 =    -0.1948902246D+01 EUMP2 =    -0.16157521336553D+04
 SCF Done:  E(RHF) =  -1613.80331135     A.U. after   13 cycles
 E2 =    -0.1948845724D+01 EUMP2 =    -0.16157521570719D+04
 SCF Done:  E(RHF) =  -1613.80355967     A.U. after   13 cycles
 E2 =    -0.1948634901D+01 EUMP2 =    -0.16157521945739D+04
 SCF Done:  E(RHF) =  -1613.80352387     A.U. after   12 cycles
 E2 =    -0.1948686308D+01 EUMP2 =    -0.16157522101798D+04
 SCF Done:  E(RHF) =  -1613.80342993     A.U. after   11 cycles
 E2 =    -0.1948785134D+01 EUMP2 =    -0.16157522150689D+04
 SCF Done:  E(RHF) =  -1613.80338264     A.U. after   11 cycles
 E2 =    -0.1948832909D+01 EUMP2 =    -0.16157522155507D+04
 SCF Done:  E(RHF) =  -1613.80338007     A.U. after    9 cycles
 E2 =    -0.1948835519D+01 EUMP2 =    -0.16157522155884D+04
 Optimization completed.
    -- Stationary point found.

                         Standard orientation:
 ---------------------------------------------------------------------
 Center     Atomic      Atomic             Coordinates (Angstroms)
 Number     Number       Type             X           Y           Z
 ---------------------------------------------------------------------
      1          6           0        4.031583    0.320124    0.296895
      2          6           0        2.701798    0.818949    0.426389
      3          6           0        1.751388   -0.125847    0.005856
      4          6           0        2.356198    2.182788    0.973242
      5          6           0        4.093966   -0.977207   -0.204823
      6          1           0        4.922569    0.887419    0.579453
      7         16           0        2.515356   -1.596614   -0.543047
      8          1           0        4.975511   -1.592653   -0.387400
      9          6           0        0.297581   -0.030948    0.005007
     10         16           0       -0.503358    1.379138   -0.696109
     11          6           0       -2.075939    0.707869   -0.366278
     12          6           0       -1.958499   -0.569067    0.238867
     13          6           0       -0.617589   -0.988339    0.453096
     14          1           0       -0.300422   -1.921750    0.923297
     15         16           0       -3.531570   -1.235352    0.579521
     16          6           0       -4.315738    0.181047   -0.082988
     17          6           0       -3.422800    1.138666   -0.548311
     18          1           0       -5.405731    0.226200   -0.097061
     19          1           0       -3.736988    2.084070   -0.994069
     20          1           0        3.128743    2.514405    1.684137
     21          1           0        1.386195    2.163524    1.493902
     22          1           0        2.291598    2.935814    0.170190
 ---------------------------------------------------------------------

 The electronic state is 1-A.
 Alpha  occ. eigenvalues --  -91.99490 -91.99451 -91.99046 -11.29505 -11.28491
 Alpha  occ. eigenvalues --  -11.28078 -11.28069 -11.27967 -11.27910 -11.26561
 Alpha  occ. eigenvalues --  -11.26473 -11.26129 -11.25159 -11.24094  -8.99602
 Alpha  occ. eigenvalues --   -8.99552  -8.99201  -6.67767  -6.67715  -6.67687
 Alpha  occ. eigenvalues --   -6.67631  -6.67491  -6.67433  -6.67362  -6.67270
 Alpha  occ. eigenvalues --   -6.67092  -1.20658  -1.17729  -1.11857  -1.03567
 Alpha  occ. eigenvalues --   -1.02691  -1.01254  -0.94938  -0.94379  -0.91321
 Alpha  occ. eigenvalues --   -0.82013  -0.77193  -0.76079  -0.71892  -0.69837
 Alpha  occ. eigenvalues --   -0.66780  -0.66248  -0.60035  -0.58925  -0.58573
 Alpha  occ. eigenvalues --   -0.56844  -0.55786  -0.54271  -0.53519  -0.52325
 Alpha  occ. eigenvalues --   -0.51829  -0.51078  -0.49565  -0.47395  -0.46267
 Alpha  occ. eigenvalues --   -0.45918  -0.39154  -0.34454  -0.33668  -0.32241
 Alpha  occ. eigenvalues --   -0.27466
 Alpha virt. eigenvalues --    0.03471   0.03496   0.04131   0.04785   0.04805
 Alpha virt. eigenvalues --    0.05912   0.06051   0.06150   0.07494   0.08503
 Alpha virt. eigenvalues --    0.08921   0.09482   0.10324   0.10551   0.10875

 Mulliken charges:
               1
     1  C    0.464295
     2  C   -0.510563
     3  C    0.705609
     4  C    0.382983
     5  C   -0.339810
     6  H   -0.447850
     7  S    0.367000
     8  H   -0.334103
     9  C    0.094758
    10  S    0.385099
    11  C   -0.626374
    12  C   -0.292074
    13  C    0.178976
    14  H   -0.449994
    15  S    0.603190
    16  C   -0.141384
    17  C    0.525926
    18  H   -0.355251
    19  H   -0.296595
    20  H   -0.125823
    21  H    0.080314
    22  H    0.131672
 Sum of Mulliken charges =  -0.00000

 Dipole moment (field-independent basis, Debye):
    X=              0.4540    Y=              1.0388    Z=              0.4969  Tot=              1.2378
 Quadrupole moment (field-independent basis, Debye-Ang):
   XX=            -87.2793   YY=           -100.3391   ZZ=           -109.9317
   XY=             -2.4225   XZ=              2.9503   YZ=             -1.0912

 Normal termination of Gaussian 16 at Wed Oct 27 04:38:27 2021.
