 Gaussian 16, Revision C.01,
 Gaussian 16:  ES64L-G16RevC.01  3-Jul-2019

 ----------------------------------
 # opt=modredundant mp2/aug-cc-pvdz
 ----------------------------------

 -------------
 pBTTT_150.pdb
 -------------
 Symbolic Z-matrix:
 Charge =  0 Multiplicity = 1

 SCF Done:  E(RHF) =  -1613.81325223     A.U. after   17 cycles
 E2 =    -0.1929188935D+01 EUMP2 =    -0.16157424411611D+04
 SCF Done:  E(RHF) =  -1613.80465521     A.U. after   15 cycles
 E2 =    -0.1947090735D+01 EUMP2 =    -0.16157517459412D+04
 SCF Done:  E(RHF) =  -1613.80286559     A.U. after   14 cycles
 E2 =    -0.1949431453D+01 EUMP2 =    -0.16157522970472D+04
 SCF Done:  E(RHF) =  -1613.80229163     A.U. after   12 cycles
 E2 =    -0.1950085049D+01 EUMP2 =    -0.16157523766774D+04
 SCF Done:  E(RHF) =  -1613.80233641     A.U. after   12 cycles
 E2 =    -0.1950055551D+01 EUMP2 =    -0.16157523919587D+04
 SCF Done:  E(RHF) =  -1613.80244932     A.U. after   11 cycles
 E2 =    -0.1949951114D+01 EUMP2 =    -0.16157524004382D+04
 SCF Done:  E(RHF) =  -1613.80254930     A.U. after   11 cycles
 E2 =    -0.1949856393D+01 EUMP2 =    -0.16157524056969D+04
 SCF Done:  E(RHF) =  -1613.80253199     A.U. after   11 cycles
 E2 =    -0.1949874581D+01 EUMP2 =    -0.16157524065706D+04
 SCF Done:  E(RHF) =  -1613.80249417     A.U. after   10 cycles
 E2 =    -0.1949912608D+01 EUMP2 =    -0.16157524067798D+04
 Optimization completed.
    -- Stationary point found.

                         Standard orientation:
 ---------------------------------------------------------------------
 Center     Atomic      Atomic             Coordinates (Angstroms)
 Number     Number       Type             X           Y           Z
 ---------------------------------------------------------------------
      1          6           0       -3.963820    0.807520    0.072884
      2          6           0       -2.584700    1.140992    0.213443
      3          6           0       -1.754720    0.031166   -0.028457
      4          6           0       -2.083703    2.507791    0.607180
      5          6           0       -4.184472   -0.524074   -0.265774
      6          1           0       -4.778284    1.519944    0.229888
      7         16           0       -2.694134   -1.385909   -0.433792
      8          1           0       -5.133231   -1.038757   -0.420299
      9          6           0       -0.303093   -0.031392    0.003668
     10         16           0        0.502299   -1.541312    0.452941
     11          6           0        2.073422   -0.827335    0.217302
     12          6           0        1.953703    0.529117   -0.174764
     13          6           0        0.612587    0.980997   -0.305014
     14          1           0        0.308236    1.971189   -0.646244
     15         16           0        3.525989    1.244688   -0.402013
     16          6           0        4.312303   -0.258631    0.024710
     17          6           0        3.420233   -1.278916    0.332728
     18          1           0        5.402284   -0.306120    0.024576
     19          1           0        3.735569   -2.283351    0.620531
     20          1           0       -2.860602    3.051555    1.166126
     21          1           0       -1.821600    3.114088   -0.276766
     22          1           0       -1.185282    2.428563    1.240577
 ---------------------------------------------------------------------

 The electronic state is 1-A.
 Alpha  occ. eigenvalues --  -91.99511 -91.99423 -91.99100 -11.29700 -11.28446
 Alpha  occ. eigenvalues --  -11.28324 -11.28094 -11.27984 -11.27946 -11.26556
 Alpha  occ. eigenvalues --  -11.26442 -11.26224 -11.25282 -11.24497  -8.99621
 Alpha  occ. eigenvalues --   -8.99537  -8.99272  -6.67787  -6.67707  -6.67701
 Alpha  occ. eigenvalues --   -6.67617  -6.67511  -6.67436  -6.67416  -6.67343
 Alpha  occ. eigenvalues --   -6.67163  -1.20695  -1.17826  -1.11872  -1.03907
 Alpha  occ. eigenvalues --   -1.02537  -1.01465  -0.95005  -0.94400  -0.91529
 Alpha  occ. eigenvalues --   -0.82159  -0.76809  -0.76466  -0.72410  -0.69894
 Alpha  occ. eigenvalues --   -0.66800  -0.66258  -0.60273  -0.58910  -0.58816
 Alpha  occ. eigenvalues --   -0.56478  -0.55899  -0.54566  -0.53862  -0.52436
 Alpha  occ. eigenvalues --   -0.51859  -0.51011  -0.49670  -0.47535  -0.46383
 Alpha  occ. eigenvalues --   -0.45931  -0.39318  -0.34738  -0.34234  -0.32278
 Alpha  occ. eigenvalues --   -0.26771
 Alpha virt. eigenvalues --    0.03393   0.03543   0.04006   0.04898   0.04963
 Alpha virt. eigenvalues --    0.05435   0.05700   0.06779   0.07800   0.08288
 Alpha virt. eigenvalues --    0.08724   0.09885   0.10013   0.10726   0.10847

 Mulliken charges:
               1
     1  C    0.434580
     2  C   -0.333870
     3  C    0.425871
     4  C    0.371849
     5  C   -0.351621
     6  H   -0.455781
     7  S    0.448114
     8  H   -0.341777
     9  C    0.046494
    10  S    0.461804
    11  C   -0.607426
    12  C   -0.353110
    13  C    0.342961
    14  H   -0.489351
    15  S    0.572482
    16  C   -0.134863
    17  C    0.478315
    18  H   -0.357425
    19  H   -0.298471
    20  H   -0.192508
    21  H    0.190503
    22  H    0.143230
 Sum of Mulliken charges =  -0.00000

 Dipole moment (field-independent basis, Debye):
    X=             -0.4279    Y=              1.0406    Z=              0.2457  Tot=              1.1517
 Quadrupole moment (field-independent basis, Debye-Ang):
   XX=            -87.4155   YY=            -98.8059   ZZ=           -111.3663
   XY=             -6.3564   XZ=              0.8154   YZ=             -0.7160

 Normal termination of Gaussian 16 at Wed Oct 27 07:35:55 2021.
