 Gaussian 16, Revision C.01,
 Gaussian 16:  ES64L-G16RevC.01  3-Jul-2019

 ----------------------------------
 # opt=modredundant mp2/aug-cc-pvdz
 ----------------------------------

 -------------
 pBTTT_165.pdb
 -------------
 Symbolic Z-matrix:
 Charge =  0 Multiplicity = 1

 SCF Done:  E(RHF) =  -1613.81151002     A.U. after   16 cycles
 E2 =    -0.1930299089D+01 EUMP2 =    -0.16157418091129D+04
 SCF Done:  E(RHF) =  -1613.80291039     A.U. after   15 cycles
 E2 =    -0.1948068420D+01 EUMP2 =    -0.16157509788099D+04
 SCF Done:  E(RHF) =  -1613.80125419     A.U. after   13 cycles
 E2 =    -0.1950240473D+01 EUMP2 =    -0.16157514946582D+04
 SCF Done:  E(RHF) =  -1613.80074784     A.U. after   12 cycles
 E2 =    -0.1950803215D+01 EUMP2 =    -0.16157515510562D+04
 SCF Done:  E(RHF) =  -1613.80087318     A.U. after   11 cycles
 E2 =    -0.1950684677D+01 EUMP2 =    -0.16157515578611D+04
 SCF Done:  E(RHF) =  -1613.80096391     A.U. after   11 cycles
 E2 =    -0.1950597204D+01 EUMP2 =    -0.16157515611161D+04
 SCF Done:  E(RHF) =  -1613.80098433     A.U. after   11 cycles
 E2 =    -0.1950578069D+01 EUMP2 =    -0.16157515624033D+04
 SCF Done:  E(RHF) =  -1613.80096599     A.U. after   11 cycles
 E2 =    -0.1950596856D+01 EUMP2 =    -0.16157515628503D+04
 Optimization completed.
    -- Stationary point found.

                         Standard orientation:
 ---------------------------------------------------------------------
 Center     Atomic      Atomic             Coordinates (Angstroms)
 Number     Number       Type             X           Y           Z
 ---------------------------------------------------------------------
      1          6           0       -3.971204    0.806398    0.010429
      2          6           0       -2.595842    1.163957    0.118683
      3          6           0       -1.753664    0.039864    0.008475
      4          6           0       -2.119366    2.574246    0.358058
      5          6           0       -4.182840   -0.554791   -0.183251
      6          1           0       -4.789575    1.527861    0.081840
      7         16           0       -2.685885   -1.417913   -0.248141
      8          1           0       -5.126573   -1.090668   -0.287241
      9          6           0       -0.301587   -0.018779    0.034828
     10         16           0        0.502702   -1.579029    0.275491
     11          6           0        2.075909   -0.848422    0.122988
     12          6           0        1.960293    0.546082   -0.093892
     13          6           0        0.621630    1.018873   -0.152356
     14          1           0        0.331617    2.048646   -0.356383
     15         16           0        3.534701    1.278727   -0.237189
     16          6           0        4.316050   -0.269412   -0.007607
     17          6           0        3.420504   -1.316847    0.174540
     18          1           0        5.405743   -0.321219   -0.020440
     19          1           0        3.732647   -2.350698    0.332082
     20          1           0       -2.957381    3.204833    0.691311
     21          1           0       -1.705826    3.024349   -0.560812
     22          1           0       -1.334244    2.601314    1.131692
 ---------------------------------------------------------------------

 The electronic state is 1-A.
 Alpha  occ. eigenvalues --  -91.99501 -91.99381 -91.99119 -11.29884 -11.28507
 Alpha  occ. eigenvalues --  -11.28430 -11.28069 -11.28002 -11.27928 -11.26552
 Alpha  occ. eigenvalues --  -11.26389 -11.26295 -11.25323 -11.24698  -8.99613
 Alpha  occ. eigenvalues --   -8.99509  -8.99303  -6.67778  -6.67698  -6.67676
 Alpha  occ. eigenvalues --   -6.67590  -6.67502  -6.67469  -6.67387  -6.67375
 Alpha  occ. eigenvalues --   -6.67194  -1.20703  -1.17868  -1.11865  -1.04049
 Alpha  occ. eigenvalues --   -1.02524  -1.01549  -0.95003  -0.94389  -0.91674
 Alpha  occ. eigenvalues --   -0.82210  -0.76845  -0.76609  -0.72362  -0.70039
 Alpha  occ. eigenvalues --   -0.66838  -0.66276  -0.60241  -0.59063  -0.58883
 Alpha  occ. eigenvalues --   -0.56414  -0.55992  -0.54814  -0.53897  -0.52435
 Alpha  occ. eigenvalues --   -0.51819  -0.51157  -0.49710  -0.47566  -0.46480
 Alpha  occ. eigenvalues --   -0.45736  -0.39443  -0.35008  -0.34410  -0.32258
 Alpha  occ. eigenvalues --   -0.26388
 Alpha virt. eigenvalues --    0.03357   0.03545   0.03956   0.04904   0.04998
 Alpha virt. eigenvalues --    0.05163   0.05668   0.06714   0.08052   0.08148
 Alpha virt. eigenvalues --    0.09103   0.09749   0.10343   0.10754   0.10804

 Mulliken charges:
               1
     1  C    0.469484
     2  C   -0.200833
     3  C    0.182612
     4  C    0.405174
     5  C   -0.349922
     6  H   -0.477225
     7  S    0.490645
     8  H   -0.356267
     9  C   -0.149365
    10  S    0.492965
    11  C   -0.530558
    12  C   -0.305315
    13  C    0.603308
    14  H   -0.616622
    15  S    0.531891
    16  C   -0.172038
    17  C    0.437640
    18  H   -0.359794
    19  H   -0.302898
    20  H   -0.260501
    21  H    0.244387
    22  H    0.223232
 Sum of Mulliken charges =  -0.00000

 Dipole moment (field-independent basis, Debye):
    X=             -0.4871    Y=              1.0620    Z=              0.0883  Tot=              1.1717
 Quadrupole moment (field-independent basis, Debye-Ang):
   XX=            -87.2320   YY=            -97.9371   ZZ=           -112.1790
   XY=             -6.5734   XZ=              0.5019   YZ=             -0.3359

 Normal termination of Gaussian 16 at Wed Oct 27 07:28:09 2021.
