 Gaussian 16, Revision C.01,
 Gaussian 16:  ES64L-G16RevC.01  3-Jul-2019

 ----------------------------------
 # opt=modredundant mp2/aug-cc-pvdz
 ----------------------------------

 ------------
 pBTTT_35.pdb
 ------------
 Symbolic Z-matrix:
 Charge =  0 Multiplicity = 1

 SCF Done:  E(RHF) =  -1613.81343095     A.U. after   17 cycles
 E2 =    -0.1928784326D+01 EUMP2 =    -0.16157422152760D+04
 SCF Done:  E(RHF) =  -1613.80470994     A.U. after   15 cycles
 E2 =    -0.1946798712D+01 EUMP2 =    -0.16157515086567D+04
 SCF Done:  E(RHF) =  -1613.80296920     A.U. after   13 cycles
 E2 =    -0.1949095644D+01 EUMP2 =    -0.16157520648437D+04
 SCF Done:  E(RHF) =  -1613.80231758     A.U. after   14 cycles
 E2 =    -0.1949844248D+01 EUMP2 =    -0.16157521618299D+04
 SCF Done:  E(RHF) =  -1613.80230949     A.U. after   12 cycles
 E2 =    -0.1949882949D+01 EUMP2 =    -0.16157521924368D+04
 SCF Done:  E(RHF) =  -1613.80241843     A.U. after   13 cycles
 E2 =    -0.1949792990D+01 EUMP2 =    -0.16157522114248D+04
 SCF Done:  E(RHF) =  -1613.80261260     A.U. after   12 cycles
 E2 =    -0.1949616364D+01 EUMP2 =    -0.16157522289607D+04
 SCF Done:  E(RHF) =  -1613.80258617     A.U. after   11 cycles
 E2 =    -0.1949645921D+01 EUMP2 =    -0.16157522320919D+04
 SCF Done:  E(RHF) =  -1613.80254144     A.U. after   10 cycles
 E2 =    -0.1949691131D+01 EUMP2 =    -0.16157522325659D+04
 Optimization completed.
    -- Stationary point found.

                         Standard orientation:
 ---------------------------------------------------------------------
 Center     Atomic      Atomic             Coordinates (Angstroms)
 Number     Number       Type             X           Y           Z
 ---------------------------------------------------------------------
      1          6           0        4.043844    0.297884    0.198430
      2          6           0        2.727246    0.836358    0.299934
      3          6           0        1.747565   -0.131009    0.012513
      4          6           0        2.435811    2.264297    0.694244
      5          6           0        4.073191   -1.046721   -0.158917
      6          1           0        4.950100    0.877157    0.394818
      7         16           0        2.476344   -1.666837   -0.394988
      8          1           0        4.938766   -1.696266   -0.292688
      9          6           0        0.297064   -0.024824    0.017303
     10         16           0       -0.505956    1.469766   -0.482991
     11          6           0       -2.077941    0.755234   -0.261711
     12          6           0       -1.961786   -0.590311    0.168229
     13          6           0       -0.622413   -1.032142    0.333355
     14          1           0       -0.311112   -2.019941    0.680671
     15         16           0       -3.535853   -1.296794    0.409619
     16          6           0       -4.318348    0.195250   -0.062128
     17          6           0       -3.423885    1.206730   -0.390819
     18          1           0       -5.408296    0.241314   -0.076670
     19          1           0       -3.736819    2.203104   -0.707941
     20          1           0        3.307666    2.698371    1.207098
     21          1           0        1.569008    2.321842    1.371523
     22          1           0        2.216055    2.891777   -0.185657
 ---------------------------------------------------------------------

 The electronic state is 1-A.
 Alpha  occ. eigenvalues --  -91.99490 -91.99466 -91.99055 -11.29684 -11.28441
 Alpha  occ. eigenvalues --  -11.28277 -11.28067 -11.27945 -11.27937 -11.26553
 Alpha  occ. eigenvalues --  -11.26370 -11.26218 -11.25223 -11.24224  -8.99601
 Alpha  occ. eigenvalues --   -8.99578  -8.99224  -6.67765  -6.67743  -6.67681
 Alpha  occ. eigenvalues --   -6.67663  -6.67482  -6.67466  -6.67388  -6.67295
 Alpha  occ. eigenvalues --   -6.67116  -1.20680  -1.17775  -1.11860  -1.03720
 Alpha  occ. eigenvalues --   -1.02683  -1.01354  -0.94931  -0.94352  -0.91460
 Alpha  occ. eigenvalues --   -0.82086  -0.77355  -0.76143  -0.71683  -0.69943
 Alpha  occ. eigenvalues --   -0.66872  -0.66284  -0.60006  -0.58964  -0.58688
 Alpha  occ. eigenvalues --   -0.56849  -0.55865  -0.54400  -0.53605  -0.52233
 Alpha  occ. eigenvalues --   -0.51925  -0.51216  -0.49664  -0.47269  -0.46311
 Alpha  occ. eigenvalues --   -0.45981  -0.39300  -0.34641  -0.34169  -0.32271
 Alpha  occ. eigenvalues --   -0.26806
 Alpha virt. eigenvalues --    0.03460   0.03494   0.04073   0.04766   0.04880
 Alpha virt. eigenvalues --    0.05590   0.05958   0.06094   0.07476   0.08486
 Alpha virt. eigenvalues --    0.09199   0.09786   0.10355   0.10445   0.10784

 Mulliken charges:
               1
     1  C    0.462582
     2  C   -0.461729
     3  C    0.712072
     4  C    0.424565
     5  C   -0.370941
     6  H   -0.461151
     7  S    0.411640
     8  H   -0.340956
     9  C   -0.034959
    10  S    0.463638
    11  C   -0.649407
    12  C   -0.262760
    13  C    0.234139
    14  H   -0.472843
    15  S    0.573565
    16  C   -0.162839
    17  C    0.480087
    18  H   -0.357619
    19  H   -0.298446
    20  H   -0.186264
    21  H    0.140161
    22  H    0.157468
 Sum of Mulliken charges =  -0.00000

 Dipole moment (field-independent basis, Debye):
    X=              0.5480    Y=              1.1047    Z=              0.3643  Tot=              1.2859
 Quadrupole moment (field-independent basis, Debye-Ang):
   XX=            -87.1043   YY=            -99.1155   ZZ=           -111.1868
   XY=             -2.4275   XZ=              2.1248   YZ=             -0.8057

 Normal termination of Gaussian 16 at Wed Oct 27 04:17:37 2021.
