 Gaussian 16, Revision C.01,
 Gaussian 16:  ES64L-G16RevC.01  3-Jul-2019

 ----------------------------------
 # opt=modredundant mp2/aug-cc-pvdz
 ----------------------------------

 --------------
 pBTTT_-160.pdb
 --------------
 Symbolic Z-matrix:
 Charge =  0 Multiplicity = 1

 SCF Done:  E(RHF) =  -1613.81212382     A.U. after   16 cycles
 E2 =    -0.1929980756D+01 EUMP2 =    -0.16157421045768D+04
 SCF Done:  E(RHF) =  -1613.80350745     A.U. after   15 cycles
 E2 =    -0.1947781436D+01 EUMP2 =    -0.16157512888890D+04
 SCF Done:  E(RHF) =  -1613.80183088     A.U. after   13 cycles
 E2 =    -0.1949983544D+01 EUMP2 =    -0.16157518144219D+04
 SCF Done:  E(RHF) =  -1613.80129865     A.U. after   12 cycles
 E2 =    -0.1950580748D+01 EUMP2 =    -0.16157518793990D+04
 SCF Done:  E(RHF) =  -1613.80141189     A.U. after   11 cycles
 E2 =    -0.1950476763D+01 EUMP2 =    -0.16157518886485D+04
 SCF Done:  E(RHF) =  -1613.80151888     A.U. after   11 cycles
 E2 =    -0.1950374469D+01 EUMP2 =    -0.16157518933477D+04
 SCF Done:  E(RHF) =  -1613.80153388     A.U. after   11 cycles
 E2 =    -0.1950361127D+01 EUMP2 =    -0.16157518950039D+04
 SCF Done:  E(RHF) =  -1613.80151248     A.U. after   11 cycles
 E2 =    -0.1950382958D+01 EUMP2 =    -0.16157518954377D+04
 Optimization completed.
    -- Stationary point found.

                         Standard orientation:
 ---------------------------------------------------------------------
 Center     Atomic      Atomic             Coordinates (Angstroms)
 Number     Number       Type             X           Y           Z
 ---------------------------------------------------------------------
      1          6           0        3.969014    0.806671    0.026573
      2          6           0        2.593051    1.156791    0.152632
      3          6           0        1.753962    0.036320   -0.000216
      4          6           0        2.109997    2.553599    0.451269
      5          6           0        4.182045   -0.545859   -0.220235
      6          1           0        4.786854    1.525567    0.125382
      7         16           0        2.686502   -1.409066   -0.315782
      8          1           0        5.126791   -1.075324   -0.346117
      9          6           0        0.302186   -0.022095    0.030552
     10         16           0       -0.503331   -1.567798    0.343584
     11          6           0       -2.075307   -0.841992    0.157081
     12          6           0       -1.957497    0.541599   -0.122033
     13          6           0       -0.617752    1.008147   -0.203186
     14          1           0       -0.322074    2.025269   -0.458998
     15         16           0       -3.530712    1.269438   -0.298705
     16          6           0       -4.314607   -0.265699   -0.000429
     17          6           0       -3.420874   -1.305301    0.228815
     18          1           0       -5.404387   -0.316236   -0.011349
     19          1           0       -3.734682   -2.330608    0.432260
     20          1           0        2.930060    3.156695    0.869595
     21          1           0        1.281623    2.537651    1.178481
     22          1           0        1.751180    3.062725   -0.459752
 ---------------------------------------------------------------------

 The electronic state is 1-A.
 Alpha  occ. eigenvalues --  -91.99506 -91.99397 -91.99114 -11.29823 -11.28446
 Alpha  occ. eigenvalues --  -11.28436 -11.28080 -11.27993 -11.27935 -11.26554
 Alpha  occ. eigenvalues --  -11.26409 -11.26266 -11.25311 -11.24632  -8.99616
 Alpha  occ. eigenvalues --   -8.99520  -8.99294  -6.67782  -6.67702  -6.67686
 Alpha  occ. eigenvalues --   -6.67601  -6.67506  -6.67459  -6.67399  -6.67366
 Alpha  occ. eigenvalues --   -6.67185  -1.20702  -1.17854  -1.11869  -1.04003
 Alpha  occ. eigenvalues --   -1.02529  -1.01523  -0.95005  -0.94393  -0.91625
 Alpha  occ. eigenvalues --   -0.82195  -0.76832  -0.76565  -0.72378  -0.69988
 Alpha  occ. eigenvalues --   -0.66825  -0.66271  -0.60255  -0.59012  -0.58858
 Alpha  occ. eigenvalues --   -0.56432  -0.55962  -0.54730  -0.53886  -0.52436
 Alpha  occ. eigenvalues --   -0.51838  -0.51106  -0.49699  -0.47556  -0.46447
 Alpha  occ. eigenvalues --   -0.45811  -0.39405  -0.34920  -0.34358  -0.32271
 Alpha  occ. eigenvalues --   -0.26501
 Alpha virt. eigenvalues --    0.03370   0.03545   0.03975   0.04904   0.04993
 Alpha virt. eigenvalues --    0.05264   0.05639   0.06745   0.07995   0.08196
 Alpha virt. eigenvalues --    0.08906   0.09809   0.10272   0.10700   0.10789

 Mulliken charges:
               1
     1  C    0.445914
     2  C   -0.243125
     3  C    0.278125
     4  C    0.390828
     5  C   -0.350325
     6  H   -0.468765
     7  S    0.480425
     8  H   -0.350723
     9  C   -0.078144
    10  S    0.477234
    11  C   -0.553937
    12  C   -0.337734
    13  C    0.508009
    14  H   -0.565241
    15  S    0.546384
    16  C   -0.156743
    17  C    0.451434
    18  H   -0.359098
    19  H   -0.301113
    20  H   -0.238760
    21  H    0.197106
    22  H    0.228250
 Sum of Mulliken charges =  -0.00000

 Dipole moment (field-independent basis, Debye):
    X=              0.4661    Y=              1.0534    Z=              0.1353  Tot=              1.1599
 Quadrupole moment (field-independent basis, Debye-Ang):
   XX=            -87.2928   YY=            -98.2063   ZZ=           -111.9314
   XY=              6.5162   XZ=             -0.6222   YZ=             -0.4608

 Normal termination of Gaussian 16 at Tue Oct 26 23:33:15 2021.
