 Gaussian 16, Revision C.01,
 Gaussian 16:  ES64L-G16RevC.01  3-Jul-2019

 ----------------------------------
 # opt=modredundant mp2/aug-cc-pvdz
 ----------------------------------

 --------------
 pBTTT_-155.pdb
 --------------
 Symbolic Z-matrix:
 Charge =  0 Multiplicity = 1

 SCF Done:  E(RHF) =  -1613.81272101     A.U. after   17 cycles
 E2 =    -0.1929703327D+01 EUMP2 =    -0.16157424243366D+04
 SCF Done:  E(RHF) =  -1613.80409687     A.U. after   15 cycles
 E2 =    -0.1947466471D+01 EUMP2 =    -0.16157515633365D+04
 SCF Done:  E(RHF) =  -1613.80238365     A.U. after   13 cycles
 E2 =    -0.1949710402D+01 EUMP2 =    -0.16157520940500D+04
 SCF Done:  E(RHF) =  -1613.80183075     A.U. after   12 cycles
 E2 =    -0.1950335396D+01 EUMP2 =    -0.16157521661448D+04
 SCF Done:  E(RHF) =  -1613.80191696     A.U. after   11 cycles
 E2 =    -0.1950261095D+01 EUMP2 =    -0.16157521780540D+04
 SCF Done:  E(RHF) =  -1613.80202661     A.U. after   11 cycles
 E2 =    -0.1950157621D+01 EUMP2 =    -0.16157521842279D+04
 SCF Done:  E(RHF) =  -1613.80207007     A.U. after   11 cycles
 E2 =    -0.1950117100D+01 EUMP2 =    -0.16157521871749D+04
 SCF Done:  E(RHF) =  -1613.80205099     A.U. after   11 cycles
 E2 =    -0.1950136694D+01 EUMP2 =    -0.16157521876818D+04
 Optimization completed.
    -- Stationary point found.

                         Standard orientation:
 ---------------------------------------------------------------------
 Center     Atomic      Atomic             Coordinates (Angstroms)
 Number     Number       Type             X           Y           Z
 ---------------------------------------------------------------------
      1          6           0        3.966568    0.807133    0.048080
      2          6           0        2.589273    1.149118    0.184016
      3          6           0        1.754327    0.033376   -0.013108
      4          6           0        2.097674    2.531223    0.533338
      5          6           0        4.182642   -0.535409   -0.246746
      6          1           0        4.783162    1.522941    0.175662
      7         16           0        2.689360   -1.398278   -0.377249
      8          1           0        5.129143   -1.057668   -0.388871
      9          6           0        0.302688   -0.026349    0.019432
     10         16           0       -0.503191   -1.555168    0.401907
     11          6           0       -2.074433   -0.834955    0.188251
     12          6           0       -1.955263    0.535897   -0.148838
     13          6           0       -0.614642    0.995428   -0.253996
     14          1           0       -0.313998    1.999226   -0.554909
     15         16           0       -3.527764    1.257993   -0.353036
     16          6           0       -4.313316   -0.262086    0.010851
     17          6           0       -3.420808   -1.292615    0.281317
     18          1           0       -5.403195   -0.311222    0.004608
     19          1           0       -3.735817   -2.308032    0.527950
     20          1           0        2.897058    3.105350    1.026103
     21          1           0        1.231920    2.480330    1.213641
     22          1           0        1.788967    3.091755   -0.365710
 ---------------------------------------------------------------------

 The electronic state is 1-A.
 Alpha  occ. eigenvalues --  -91.99509 -91.99411 -91.99108 -11.29760 -11.28439
 Alpha  occ. eigenvalues --  -11.28384 -11.28089 -11.27986 -11.27941 -11.26554
 Alpha  occ. eigenvalues --  -11.26426 -11.26242 -11.25296 -11.24563  -8.99619
 Alpha  occ. eigenvalues --   -8.99530  -8.99284  -6.67785  -6.67705  -6.67695
 Alpha  occ. eigenvalues --   -6.67610  -6.67509  -6.67448  -6.67409  -6.67355
 Alpha  occ. eigenvalues --   -6.67175  -1.20700  -1.17841  -1.11873  -1.03956
 Alpha  occ. eigenvalues --   -1.02533  -1.01495  -0.95007  -0.94397  -0.91577
 Alpha  occ. eigenvalues --   -0.82177  -0.76819  -0.76516  -0.72395  -0.69940
 Alpha  occ. eigenvalues --   -0.66812  -0.66265  -0.60265  -0.58961  -0.58836
 Alpha  occ. eigenvalues --   -0.56453  -0.55931  -0.54647  -0.53874  -0.52437
 Alpha  occ. eigenvalues --   -0.51851  -0.51058  -0.49685  -0.47545  -0.46415
 Alpha  occ. eigenvalues --   -0.45878  -0.39363  -0.34829  -0.34300  -0.32278
 Alpha  occ. eigenvalues --   -0.26631
 Alpha virt. eigenvalues --    0.03382   0.03544   0.03991   0.04902   0.04980
 Alpha virt. eigenvalues --    0.05364   0.05646   0.06767   0.07900   0.08248
 Alpha virt. eigenvalues --    0.08787   0.09862   0.10134   0.10730   0.10789

 Mulliken charges:
               1
     1  C    0.435409
     2  C   -0.289063
     3  C    0.358767
     4  C    0.380238
     5  C   -0.350583
     6  H   -0.461687
     7  S    0.465617
     8  H   -0.345881
     9  C   -0.013015
    10  S    0.467941
    11  C   -0.580262
    12  C   -0.352421
    13  C    0.420764
    14  H   -0.522310
    15  S    0.560029
    16  C   -0.144575
    17  C    0.465358
    18  H   -0.358375
    19  H   -0.299675
    20  H   -0.215883
    21  H    0.169990
    22  H    0.209616
 Sum of Mulliken charges =  -0.00000

 Dipole moment (field-independent basis, Debye):
    X=              0.4462    Y=              1.0461    Z=              0.1888  Tot=              1.1529
 Quadrupole moment (field-independent basis, Debye-Ang):
   XX=            -87.3544   YY=            -98.4986   ZZ=           -111.6582
   XY=              6.4430   XZ=             -0.7254   YZ=             -0.5887

 Normal termination of Gaussian 16 at Tue Oct 26 23:21:48 2021.
