 Gaussian 16, Revision C.01,
 Gaussian 16:  ES64L-G16RevC.01  3-Jul-2019

 ----------------------------------
 # opt=modredundant mp2/aug-cc-pvdz
 ----------------------------------

 ------------
 pBTTT_80.pdb
 ------------
 Symbolic Z-matrix:
 Charge =  0 Multiplicity = 1

 SCF Done:  E(RHF) =  -1613.81479831     A.U. after   17 cycles
 E2 =    -0.1926454732D+01 EUMP2 =    -0.16157412530473D+04
 SCF Done:  E(RHF) =  -1613.80620443     A.U. after   14 cycles
 E2 =    -0.1944427813D+01 EUMP2 =    -0.16157506322430D+04
 SCF Done:  E(RHF) =  -1613.80425046     A.U. after   14 cycles
 E2 =    -0.1946959948D+01 EUMP2 =    -0.16157512104058D+04
 SCF Done:  E(RHF) =  -1613.80367444     A.U. after   13 cycles
 E2 =    -0.1947596741D+01 EUMP2 =    -0.16157512711779D+04
 SCF Done:  E(RHF) =  -1613.80376980     A.U. after   11 cycles
 E2 =    -0.1947505025D+01 EUMP2 =    -0.16157512748276D+04
 SCF Done:  E(RHF) =  -1613.80385308     A.U. after   11 cycles
 E2 =    -0.1947425571D+01 EUMP2 =    -0.16157512786522D+04
 SCF Done:  E(RHF) =  -1613.80389272     A.U. after   10 cycles
 E2 =    -0.1947387599D+01 EUMP2 =    -0.16157512803156D+04
 SCF Done:  E(RHF) =  -1613.80391826     A.U. after   10 cycles
 E2 =    -0.1947362928D+01 EUMP2 =    -0.16157512811921D+04
 SCF Done:  E(RHF) =  -1613.80386299     A.U. after   10 cycles
 E2 =    -0.1947419392D+01 EUMP2 =    -0.16157512823869D+04
 SCF Done:  E(RHF) =  -1613.80381714     A.U. after   10 cycles
 E2 =    -0.1947466604D+01 EUMP2 =    -0.16157512837467D+04
 SCF Done:  E(RHF) =  -1613.80383093     A.U. after   10 cycles
 E2 =    -0.1947453159D+01 EUMP2 =    -0.16157512840889D+04
 SCF Done:  E(RHF) =  -1613.80385241     A.U. after   10 cycles
 E2 =    -0.1947431858D+01 EUMP2 =    -0.16157512842651D+04
 Optimization completed.
    -- Stationary point found.

                         Standard orientation:
 ---------------------------------------------------------------------
 Center     Atomic      Atomic             Coordinates (Angstroms)
 Number     Number       Type             X           Y           Z
 ---------------------------------------------------------------------
      1          6           0        3.988623    0.416699    0.500290
      2          6           0        2.620171    0.797863    0.637316
      3          6           0        1.761196   -0.120597    0.018337
      4          6           0        2.132831    2.029012    1.358581
      5          6           0        4.161949   -0.769209   -0.207847
      6          1           0        4.826196    0.985798    0.912635
      7         16           0        2.647316   -1.429077   -0.719460
      8          1           0        5.092758   -1.284406   -0.448079
      9          6           0        0.299148   -0.072124   -0.035667
     10         16           0       -0.500747    0.976977   -1.207642
     11          6           0       -2.072950    0.499137   -0.631577
     12          6           0       -1.954083   -0.447101    0.418436
     13          6           0       -0.611092   -0.772137    0.756784
     14          1           0       -0.288276   -1.467636    1.534279
     15         16           0       -3.525779   -0.927364    0.995836
     16          6           0       -4.312085    0.126765   -0.157274
     17          6           0       -3.421459    0.827186   -0.961039
     18          1           0       -5.401996    0.170665   -0.178069
     19          1           0       -3.737402    1.528953   -1.734833
     20          1           0        2.437271    2.945452    0.826783
     21          1           0        2.550479    2.076199    2.377209
     22          1           0        1.034822    2.023450    1.432294
 ---------------------------------------------------------------------

 The electronic state is 1-A.
 Alpha  occ. eigenvalues --  -91.99523 -91.99388 -91.98932 -11.29253 -11.28556
 Alpha  occ. eigenvalues --  -11.28093 -11.27955 -11.27931 -11.27786 -11.26600
 Alpha  occ. eigenvalues --  -11.26565 -11.26086 -11.25035 -11.23948  -8.99635
 Alpha  occ. eigenvalues --   -8.99470  -8.99075  -6.67800  -6.67720  -6.67632
 Alpha  occ. eigenvalues --   -6.67546  -6.67524  -6.67351  -6.67235  -6.67144
 Alpha  occ. eigenvalues --   -6.66967  -1.20606  -1.17644  -1.11834  -1.03390
 Alpha  occ. eigenvalues --   -1.02694  -1.01058  -0.94938  -0.94432  -0.91133
 Alpha  occ. eigenvalues --   -0.81897  -0.76918  -0.75892  -0.72326  -0.69680
 Alpha  occ. eigenvalues --   -0.66676  -0.66211  -0.60161  -0.58827  -0.58499
 Alpha  occ. eigenvalues --   -0.56849  -0.55650  -0.54116  -0.53459  -0.52380
 Alpha  occ. eigenvalues --   -0.51684  -0.50851  -0.49393  -0.47543  -0.46278
 Alpha  occ. eigenvalues --   -0.45651  -0.38968  -0.34266  -0.32228  -0.32064
 Alpha  occ. eigenvalues --   -0.29171
 Alpha virt. eigenvalues --    0.03436   0.03488   0.04196   0.04629   0.04875
 Alpha virt. eigenvalues --    0.05734   0.06133   0.07352   0.07519   0.08429
 Alpha virt. eigenvalues --    0.08687   0.09018   0.09611   0.10197   0.10987

 Mulliken charges:
               1
     1  C    0.611217
     2  C   -0.950034
     3  C    0.796243
     4  C    0.370665
     5  C   -0.350583
     6  H   -0.433726
     7  S    0.328275
     8  H   -0.332342
     9  C    0.396849
    10  S    0.359055
    11  C   -0.707702
    12  C   -0.355220
    13  C    0.117675
    14  H   -0.441097
    15  S    0.637881
    16  C   -0.100143
    17  C    0.644609
    18  H   -0.354333
    19  H   -0.296103
    20  H    0.106304
    21  H    0.041637
    22  H   -0.089127
 Sum of Mulliken charges =  -0.00000

 Dipole moment (field-independent basis, Debye):
    X=              0.3134    Y=              0.9751    Z=              0.6766  Tot=              1.2275
 Quadrupole moment (field-independent basis, Debye-Ang):
   XX=            -87.5320   YY=           -104.2449   ZZ=           -106.0043
   XY=             -1.5489   XZ=              4.6573   YZ=             -1.4284

 Normal termination of Gaussian 16 at Wed Oct 27 05:22:31 2021.
