 Gaussian 16, Revision C.01,
 Gaussian 16:  ES64L-G16RevC.01  3-Jul-2019

 ----------------------------------
 # opt=modredundant mp2/aug-cc-pvdz
 ----------------------------------

 ------------
 pBTTT_15.pdb
 ------------
 Symbolic Z-matrix:
 Charge =  0 Multiplicity = 1

 SCF Done:  E(RHF) =  -1613.81214878     A.U. after   17 cycles
 E2 =    -0.1929687297D+01 EUMP2 =    -0.16157418360729D+04
 SCF Done:  E(RHF) =  -1613.80331102     A.U. after   16 cycles
 E2 =    -0.1947980384D+01 EUMP2 =    -0.16157512914073D+04
 SCF Done:  E(RHF) =  -1613.80169466     A.U. after   14 cycles
 E2 =    -0.1950121586D+01 EUMP2 =    -0.16157518162505D+04
 SCF Done:  E(RHF) =  -1613.80105320     A.U. after   14 cycles
 E2 =    -0.1950825839D+01 EUMP2 =    -0.16157518790386D+04
 SCF Done:  E(RHF) =  -1613.80127671     A.U. after   13 cycles
 E2 =    -0.1950613718D+01 EUMP2 =    -0.16157518904289D+04
 SCF Done:  E(RHF) =  -1613.80139614     A.U. after   11 cycles
 E2 =    -0.1950497568D+01 EUMP2 =    -0.16157518937096D+04
 SCF Done:  E(RHF) =  -1613.80140360     A.U. after   11 cycles
 E2 =    -0.1950491443D+01 EUMP2 =    -0.16157518950464D+04
 SCF Done:  E(RHF) =  -1613.80138340     A.U. after   10 cycles
 E2 =    -0.1950512109D+01 EUMP2 =    -0.16157518955121D+04
 SCF Done:  E(RHF) =  -1613.80137166     A.U. after    9 cycles
 E2 =    -0.1950523969D+01 EUMP2 =    -0.16157518956325D+04
 Optimization completed.
    -- Stationary point found.

                         Standard orientation:
 ---------------------------------------------------------------------
 Center     Atomic      Atomic             Coordinates (Angstroms)
 Number     Number       Type             X           Y           Z
 ---------------------------------------------------------------------
      1          6           0        4.052090    0.290188    0.082149
      2          6           0        2.741808    0.851810    0.130501
      3          6           0        1.745380   -0.136714    0.011903
      4          6           0        2.486514    2.329848    0.298338
      5          6           0        4.065814   -1.090825   -0.075005
      6          1           0        4.965040    0.885880    0.164838
      7         16           0        2.459538   -1.724334   -0.176498
      8          1           0        4.922473   -1.762544   -0.135783
      9          6           0        0.296680   -0.025813    0.016851
     10         16           0       -0.511367    1.537046   -0.201763
     11          6           0       -2.081426    0.792623   -0.116799
     12          6           0       -1.965847   -0.606484    0.072399
     13          6           0       -0.627800   -1.070275    0.154029
     14          1           0       -0.325440   -2.107809    0.313926
     15         16           0       -3.540369   -1.345358    0.176680
     16          6           0       -4.322108    0.206482   -0.031619
     17          6           0       -3.426736    1.259789   -0.174100
     18          1           0       -5.412017    0.254510   -0.041442
     19          1           0       -3.738899    2.296264   -0.313952
     20          1           0        3.431388    2.848664    0.520024
     21          1           0        1.783005    2.528266    1.123419
     22          1           0        2.063404    2.775344   -0.617619
 ---------------------------------------------------------------------

 The electronic state is 1-A.
 Alpha  occ. eigenvalues --  -91.99527 -91.99430 -91.99039 -11.29900 -11.28528
 Alpha  occ. eigenvalues --  -11.28368 -11.28063 -11.28041 -11.27836 -11.26531
 Alpha  occ. eigenvalues --  -11.26369 -11.26257 -11.25294 -11.24377  -8.99642
 Alpha  occ. eigenvalues --   -8.99541  -8.99227  -6.67806  -6.67723  -6.67706
 Alpha  occ. eigenvalues --   -6.67626  -6.67522  -6.67429  -6.67396  -6.67302
 Alpha  occ. eigenvalues --   -6.67120  -1.20686  -1.17829  -1.11843  -1.03914
 Alpha  occ. eigenvalues --   -1.02679  -1.01444  -0.94904  -0.94340  -0.91622
 Alpha  occ. eigenvalues --   -0.82168  -0.77535  -0.76186  -0.71474  -0.70079
 Alpha  occ. eigenvalues --   -0.67009  -0.66326  -0.59988  -0.59006  -0.58886
 Alpha  occ. eigenvalues --   -0.56858  -0.55901  -0.54583  -0.53732  -0.52205
 Alpha  occ. eigenvalues --   -0.51863  -0.51435  -0.49726  -0.47094  -0.46532
 Alpha  occ. eigenvalues --   -0.45808  -0.39493  -0.34952  -0.34459  -0.32311
 Alpha  occ. eigenvalues --   -0.26241
 Alpha virt. eigenvalues --    0.03422   0.03484   0.03997   0.04731   0.04976
 Alpha virt. eigenvalues --    0.05173   0.05999   0.06105   0.07418   0.08426
 Alpha virt. eigenvalues --    0.09562   0.09871   0.10334   0.10543   0.10805

 Mulliken charges:
               1
     1  C    0.459904
     2  C   -0.415182
     3  C    0.516764
     4  C    0.473775
     5  C   -0.401086
     6  H   -0.482399
     7  S    0.521588
     8  H   -0.361970
     9  C   -0.051085
    10  S    0.546748
    11  C   -0.746836
    12  C   -0.168177
    13  C    0.294582
    14  H   -0.498887
    15  S    0.522790
    16  C   -0.195503
    17  C    0.473125
    18  H   -0.363520
    19  H   -0.301196
    20  H   -0.219228
    21  H    0.195550
    22  H    0.200242
 Sum of Mulliken charges =  -0.00000

 Dipole moment (field-independent basis, Debye):
    X=              0.6784    Y=              1.1706    Z=              0.1605  Tot=              1.3625
 Quadrupole moment (field-independent basis, Debye-Ang):
   XX=            -86.8588   YY=            -98.0673   ZZ=           -112.2979
   XY=             -2.3335   XZ=              0.9306   YZ=             -0.3627

 Normal termination of Gaussian 16 at Wed Oct 27 04:15:58 2021.
