 Gaussian 16, Revision C.01,
 Gaussian 16:  ES64L-G16RevC.01  3-Jul-2019

 ----------------------------------
 # opt=modredundant mp2/aug-cc-pvdz
 ----------------------------------

 -------------
 pBTTT_-15.pdb
 -------------
 Symbolic Z-matrix:
 Charge =  0 Multiplicity = 1

 SCF Done:  E(RHF) =  -1613.81214883     A.U. after   17 cycles
 E2 =    -0.1929687115D+01 EUMP2 =    -0.16157418359418D+04
 SCF Done:  E(RHF) =  -1613.80331035     A.U. after   16 cycles
 E2 =    -0.1947981529D+01 EUMP2 =    -0.16157512918768D+04
 SCF Done:  E(RHF) =  -1613.80169558     A.U. after   14 cycles
 E2 =    -0.1950120821D+01 EUMP2 =    -0.16157518164011D+04
 SCF Done:  E(RHF) =  -1613.80105431     A.U. after   14 cycles
 E2 =    -0.1950824848D+01 EUMP2 =    -0.16157518791549D+04
 SCF Done:  E(RHF) =  -1613.80127722     A.U. after   13 cycles
 E2 =    -0.1950613228D+01 EUMP2 =    -0.16157518904440D+04
 SCF Done:  E(RHF) =  -1613.80139556     A.U. after   11 cycles
 E2 =    -0.1950498137D+01 EUMP2 =    -0.16157518936992D+04
 SCF Done:  E(RHF) =  -1613.80140336     A.U. after   11 cycles
 E2 =    -0.1950491687D+01 EUMP2 =    -0.16157518950468D+04
 SCF Done:  E(RHF) =  -1613.80138275     A.U. after   10 cycles
 E2 =    -0.1950512764D+01 EUMP2 =    -0.16157518955125D+04
 SCF Done:  E(RHF) =  -1613.80137077     A.U. after    9 cycles
 E2 =    -0.1950524867D+01 EUMP2 =    -0.16157518956343D+04
 Optimization completed.
    -- Stationary point found.

                         Standard orientation:
 ---------------------------------------------------------------------
 Center     Atomic      Atomic             Coordinates (Angstroms)
 Number     Number       Type             X           Y           Z
 ---------------------------------------------------------------------
      1          6           0       -4.052084    0.290228    0.082136
      2          6           0       -2.741789    0.851817    0.130515
      3          6           0       -1.745381   -0.136733    0.011923
      4          6           0       -2.486455    2.329846    0.298366
      5          6           0       -4.065839   -1.090783   -0.075029
      6          1           0       -4.965020    0.885942    0.164814
      7         16           0       -2.459576   -1.724333   -0.176506
      8          1           0       -4.922513   -1.762480   -0.135827
      9          6           0       -0.296681   -0.025848    0.016864
     10         16           0        0.511351    1.537014   -0.201773
     11          6           0        2.081421    0.792620   -0.116802
     12          6           0        1.965856   -0.606487    0.072420
     13          6           0        0.627816   -1.070295    0.154056
     14          1           0        0.325471   -2.107830    0.313971
     15         16           0        3.540385   -1.345347    0.176688
     16          6           0        4.322109    0.206497   -0.031644
     17          6           0        3.426726    1.259795   -0.174131
     18          1           0        5.412017    0.254528   -0.041475
     19          1           0        3.738879    2.296270   -0.313997
     20          1           0       -3.431312    2.848686    0.520067
     21          1           0       -2.063343    2.775342   -0.617591
     22          1           0       -1.782932    2.528238    1.123440
 ---------------------------------------------------------------------

 The electronic state is 1-A.
 Alpha  occ. eigenvalues --  -91.99527 -91.99430 -91.99039 -11.29900 -11.28528
 Alpha  occ. eigenvalues --  -11.28368 -11.28063 -11.28041 -11.27836 -11.26531
 Alpha  occ. eigenvalues --  -11.26369 -11.26257 -11.25294 -11.24377  -8.99642
 Alpha  occ. eigenvalues --   -8.99541  -8.99228  -6.67806  -6.67723  -6.67706
 Alpha  occ. eigenvalues --   -6.67626  -6.67521  -6.67429  -6.67396  -6.67302
 Alpha  occ. eigenvalues --   -6.67120  -1.20686  -1.17829  -1.11843  -1.03914
 Alpha  occ. eigenvalues --   -1.02679  -1.01444  -0.94904  -0.94340  -0.91622
 Alpha  occ. eigenvalues --   -0.82168  -0.77535  -0.76186  -0.71474  -0.70079
 Alpha  occ. eigenvalues --   -0.67009  -0.66326  -0.59988  -0.59007  -0.58886
 Alpha  occ. eigenvalues --   -0.56858  -0.55901  -0.54583  -0.53732  -0.52205
 Alpha  occ. eigenvalues --   -0.51863  -0.51435  -0.49726  -0.47094  -0.46532
 Alpha  occ. eigenvalues --   -0.45808  -0.39493  -0.34952  -0.34459  -0.32311
 Alpha  occ. eigenvalues --   -0.26240
 Alpha virt. eigenvalues --    0.03422   0.03484   0.03997   0.04731   0.04976
 Alpha virt. eigenvalues --    0.05173   0.05999   0.06105   0.07418   0.08426
 Alpha virt. eigenvalues --    0.09562   0.09871   0.10334   0.10543   0.10805

 Mulliken charges:
               1
     1  C    0.459883
     2  C   -0.415206
     3  C    0.516733
     4  C    0.473765
     5  C   -0.401091
     6  H   -0.482394
     7  S    0.521565
     8  H   -0.361970
     9  C   -0.050984
    10  S    0.546768
    11  C   -0.746840
    12  C   -0.168195
    13  C    0.294568
    14  H   -0.498884
    15  S    0.522790
    16  C   -0.195507
    17  C    0.473141
    18  H   -0.363521
    19  H   -0.301196
    20  H   -0.219239
    21  H    0.200252
    22  H    0.195564
 Sum of Mulliken charges =  -0.00000

 Dipole moment (field-independent basis, Debye):
    X=             -0.6784    Y=              1.1706    Z=              0.1605  Tot=              1.3625
 Quadrupole moment (field-independent basis, Debye-Ang):
   XX=            -86.8589   YY=            -98.0673   ZZ=           -112.2979
   XY=              2.3334   XZ=             -0.9305   YZ=             -0.3627

 Normal termination of Gaussian 16 at Wed Oct 27 02:56:15 2021.
