 Gaussian 16, Revision C.01,
 Gaussian 16:  ES64L-G16RevC.01  3-Jul-2019

 -------------------------------
 # mp2/aug-cc-pvdz MaxDisk=400GB
 -------------------------------

 -----------------
 NDI_-25_b3lyp.pdb
 -----------------
 Symbolic Z-matrix:
 Charge =  0 Multiplicity = 1

                         Standard orientation:
 ---------------------------------------------------------------------
 Center     Atomic      Atomic             Coordinates (Angstroms)
 Number     Number       Type             X           Y           Z
 ---------------------------------------------------------------------
      1          6           0        2.564946   -3.017097    0.249937
      2          6           0        2.255963   -1.569094    0.113937
      3          6           0        3.298974   -0.615106    0.069937
      4          6           0        4.644969   -1.020122    0.164937
      5          6           0        4.988952   -2.460126    0.314937
      6          6           0        0.950968   -1.162078    0.073937
      7          6           0        2.958990    0.757898   -0.087063
      8          6           0        1.592995    1.169914   -0.176063
      9          6           0        0.557984    0.207926   -0.034063
     10          6           0        1.338012    2.584917   -0.555063
     11          6           0        3.763018    3.131889   -0.331063
     12          6           0        4.026001    1.688885   -0.144063
     13          6           0        5.345996    1.271870   -0.034063
     14          6           0        5.662980   -0.080134    0.118937
     15          1           0        6.689976   -0.411146    0.198937
     16          1           0        6.123005    2.024861   -0.076063
     17          1           0        0.193959   -1.929069    0.171937
     18          7           0        2.428022    3.476904   -0.547063
     19          7           0        3.915942   -3.367113    0.341937
     20          8           0        1.701936   -3.876087    0.282937
     21          8           0        6.139948   -2.843139    0.407937
     22          8           0        4.649028    3.969878   -0.324063
     23          8           0        0.250017    3.020930   -0.892063
     24          6           0        2.116039    4.875908   -0.868063
     25          1           0        1.726040    4.947913   -1.884063
     26          1           0        1.356043    5.250917   -0.183063
     27          1           0        3.033046    5.449897   -0.771063
     28          6           0        4.210925   -4.801117    0.479937
     29          1           0        3.733920   -5.189111    1.379937
     30          1           0        3.814918   -5.342112   -0.380063
     31          1           0        5.287923   -4.916129    0.538937
     32          6           0       -0.870013    0.458943    0.115937
     33          6           0       -1.550000    1.558951    0.601937
     34         16           0       -2.013028   -0.808043   -0.321063
     35          6           0       -2.944002    1.387968    0.636937
     36          1           0       -1.056990    2.458945    0.922937
     37          6           0       -3.388017    0.152973    0.156937
     38          8           0       -3.857992    2.290978    1.077937
     39          6           0       -4.742022   -0.305011    0.033937
     40          6           0       -3.389976    3.581973    1.460937
     41          6           0       -5.181037   -1.542006   -0.430063
     42         16           0       -6.133011    0.681005    0.469937
     43          1           0       -4.278970    4.156983    1.715937
     44          1           0       -2.734977    3.517965    2.334937
     45          1           0       -2.860971    4.067967    0.634937
     46          6           0       -6.594039   -1.693989   -0.435063
     47          8           0       -4.268048   -2.464017   -0.826063
     48          6           0       -7.229025   -0.572982    0.023937
     49          1           0       -7.114049   -2.582983   -0.760063
     50          6           0       -4.739063   -3.731011   -1.279063
     51          1           0       -8.292024   -0.414969    0.127937
     52          1           0       -5.368061   -3.621004   -2.168063
     53          1           0       -3.850069   -4.306022   -1.532063
     54          1           0       -5.296069   -4.248005   -0.491063
 ---------------------------------------------------------------------

 SCF Done:  E(RHF) =  -2348.40277106     A.U. after   19 cycles
 E2 =    -0.5326122647D+01 EUMP2 =    -0.23537288937082D+04

 The electronic state is 1-A.
 Alpha  occ. eigenvalues --  -91.99063 -91.98900 -20.60668 -20.60179 -20.56807
 Alpha  occ. eigenvalues --  -20.56796 -20.56209 -20.56145 -15.63901 -15.63480
 Alpha  occ. eigenvalues --  -11.39944 -11.39720 -11.39661 -11.39282 -11.31686
 Alpha  occ. eigenvalues --  -11.31579 -11.30950 -11.30264 -11.30041 -11.29879
 Alpha  occ. eigenvalues --  -11.29350 -11.29333 -11.29151 -11.29115 -11.28718
 Alpha  occ. eigenvalues --  -11.28671 -11.28364 -11.28358 -11.28277 -11.28043
 Alpha  occ. eigenvalues --  -11.28016 -11.27464 -11.27338 -11.27115 -11.25670
 Alpha  occ. eigenvalues --  -11.25191  -8.99160  -8.98982  -6.67312  -6.67220
 Alpha  occ. eigenvalues --   -6.67139  -6.67043  -6.67028  -6.66855  -1.43407
 Alpha  occ. eigenvalues --   -1.43043  -1.42624  -1.42157  -1.41443  -1.40966
 Alpha  occ. eigenvalues --   -1.27501  -1.26973  -1.22948  -1.19343  -1.17467
 Alpha  occ. eigenvalues --   -1.15437  -1.12616  -1.07822  -1.05744  -1.04056
 Alpha  occ. eigenvalues --   -1.01001  -1.00077  -0.99760  -0.97717  -0.96873
 Alpha  occ. eigenvalues --   -0.96514  -0.93967  -0.92463  -0.89850  -0.88710
 Alpha  occ. eigenvalues --   -0.88388  -0.86531  -0.81928  -0.79960  -0.78765
 Alpha  occ. eigenvalues --   -0.77866  -0.76380  -0.74946  -0.74564  -0.72950
 Alpha  occ. eigenvalues --   -0.72024  -0.70491  -0.69262  -0.67933  -0.67421
 Alpha  occ. eigenvalues --   -0.66965  -0.66678  -0.66382  -0.66203  -0.65800
 Alpha  occ. eigenvalues --   -0.65306  -0.64967  -0.64229  -0.63878  -0.63624
 Alpha  occ. eigenvalues --   -0.62605  -0.61703  -0.61286  -0.59824  -0.59387
 Alpha  occ. eigenvalues --   -0.59081  -0.57388  -0.57118  -0.56864  -0.56661
 Alpha  occ. eigenvalues --   -0.56461  -0.56426  -0.56239  -0.55600  -0.55534
 Alpha  occ. eigenvalues --   -0.53857  -0.53238  -0.53166  -0.52212  -0.51420
 Alpha  occ. eigenvalues --   -0.51158  -0.49627  -0.48476  -0.48074  -0.47129
 Alpha  occ. eigenvalues --   -0.46628  -0.46281  -0.45890  -0.45668  -0.44916
 Alpha  occ. eigenvalues --   -0.42876  -0.41813  -0.41211  -0.39085  -0.35048
 Alpha  occ. eigenvalues --   -0.34134  -0.33767  -0.32968  -0.25225
 Alpha virt. eigenvalues --   -0.01961   0.02918   0.03215   0.03541   0.04104
 Alpha virt. eigenvalues --    0.04196   0.04332   0.04907   0.05128   0.05327
 Alpha virt. eigenvalues --    0.05548   0.05711   0.06017   0.06440   0.06676

 Mulliken charges:
               1
     1  C    0.120196
     2  C    0.620328
     3  C   -0.549185
     4  C    1.665189
     5  C    0.074731
     6  C    0.836727
     7  C   -0.263930
     8  C    1.099902
     9  C    0.968013
    10  C    0.098418
    11  C   -0.137385
    12  C    1.349524
    13  C    0.322835
    14  C    0.236383
    15  H   -0.632514
    16  H   -0.684991
    17  H   -0.702671
    18  N   -0.959796
    19  N   -0.967473
    20  O   -0.861741
    21  O   -0.889625
    22  O   -0.899542
    23  O   -0.828214
    24  C    0.663245
    25  H   -0.029011
    26  H   -0.048896
    27  H   -0.230206
    28  C    0.665099
    29  H   -0.018187
    30  H   -0.015304
    31  H   -0.225383
    32  C    0.737714
    33  C    0.568167
    34  S    0.393982
    35  C   -0.329497
    36  H   -0.767587
    37  C   -0.042944
    38  O   -1.105545
    39  C    1.125175
    40  C    0.933706
    41  C   -0.265051
    42  S    0.368937
    43  H   -0.350117
    44  H   -0.080001
    45  H   -0.029476
    46  C    1.052773
    47  O   -1.127361
    48  C   -0.257556
    49  H   -0.638735
    50  C    0.911079
    51  H   -0.429873
    52  H   -0.057600
    53  H   -0.329498
    54  H   -0.057228
 Sum of Mulliken charges =  -0.00000

 Dipole moment (field-independent basis, Debye):
    X=             -3.3606    Y=             -0.5353    Z=              0.3317  Tot=              3.4191
 Quadrupole moment (field-independent basis, Debye-Ang):
   XX=           -216.7135   YY=           -213.4275   ZZ=           -223.7184
   XY=              6.4300   XZ=              1.5221   YZ=             11.2954

 Normal termination of Gaussian 16 at Thu Dec 10 15:35:10 2020.
