 Gaussian 16, Revision C.01,
 Gaussian 16:  ES64L-G16RevC.01  3-Jul-2019

 -------------------------------
 # mp2/aug-cc-pvdz MaxDisk=400GB
 -------------------------------

 -----------------
 NDI_-70_b3lyp.pdb
 -----------------
 Symbolic Z-matrix:
 Charge =  0 Multiplicity = 1

                         Standard orientation:
 ---------------------------------------------------------------------
 Center     Atomic      Atomic             Coordinates (Angstroms)
 Number     Number       Type             X           Y           Z
 ---------------------------------------------------------------------
      1          6           0        2.839047   -2.898060    0.620974
      2          6           0        2.399069   -1.499053    0.373974
      3          6           0        3.346085   -0.494068    0.077974
      4          6           0        4.723080   -0.802090    0.006974
      5          6           0        5.198058   -2.189098    0.258974
      6          6           0        1.062074   -1.185032    0.443974
      7          6           0        2.893107    0.831939   -0.162026
      8          6           0        1.505112    1.144961   -0.082026
      9          6           0        0.583096    0.139976    0.256974
     10          6           0        1.074134    2.535968   -0.405026
     11          6           0        3.447145    3.208930   -0.793026
     12          6           0        3.858122    1.815923   -0.493026
     13          6           0        5.203117    1.492902   -0.557026
     14          6           0        5.641096    0.185895   -0.303026
     15          1           0        6.691092   -0.071122   -0.353026
     16          1           0        5.907130    2.274891   -0.812026
     17          1           0        0.358062   -1.971021    0.685974
     18          7           0        2.074149    3.460952   -0.761026
     19          7           0        4.215043   -3.149082    0.546974
     20          8           0        2.062033   -3.797048    0.877974
     21          8           0        6.378054   -2.484117    0.215974
     22          8           0        4.253158    4.081917   -1.064026
     23          8           0       -0.083860    2.906986   -0.391026
     24          6           0        1.606170    4.815959   -1.088026
     25          1           0        0.870169    4.763971   -1.890026
     26          1           0        1.132177    5.267967   -0.216026
     27          1           0        2.468180    5.399946   -1.393026
     28          6           0        4.637021   -4.535089    0.796974
     29          1           0        4.334016   -4.837084    1.799974
     30          1           0        4.159010   -5.200081    0.076974
     31          1           0        5.717020   -4.579106    0.697974
     32          6           0       -0.869901    0.329999    0.402974
     33          6           0       -1.551891    1.009010    1.380974
     34         16           0       -1.958916   -0.610984   -0.584026
     35          6           0       -2.950894    0.811032    1.316974
     36          1           0       -1.058881    1.638002    2.107974
     37          6           0       -3.364907   -0.036961    0.296974
     38          8           0       -3.880885    1.360047    2.145974
     39          6           0       -4.710913   -0.394940   -0.067026
     40          6           0       -3.449869    2.362040    3.061974
     41          6           0       -5.117927   -1.271933   -1.064026
     42         16           0       -6.127902    0.271083    0.734974
     43          1           0       -4.348863    2.714055    3.563974
     44          1           0       -2.759876    1.947029    3.803974
     45          1           0       -2.970856    3.195033    2.535974
     46          6           0       -6.528929   -1.406911   -1.183026
     47          8           0       -4.178937   -1.904948   -1.819026
     48          6           0       -7.194917   -0.630900   -0.276026
     49          1           0       -7.024939   -2.044903   -1.900026
     50          6           0       -4.623952   -2.814941   -2.819026
     51          1           0       -8.261915   -0.544883   -0.140026
     52          1           0       -5.234944   -2.305931   -3.572026
     53          1           0       -3.723958   -3.206955   -3.289026
     54          1           0       -5.192965   -3.639932   -2.377026
 ---------------------------------------------------------------------

 SCF Done:  E(RHF) =  -2348.40725558     A.U. after   19 cycles
 E2 =    -0.5319676091D+01 EUMP2 =    -0.23537269316697D+04

 The electronic state is 1-A.
 Alpha  occ. eigenvalues --  -91.98675 -91.98236 -20.60008 -20.59842 -20.57008
 Alpha  occ. eigenvalues --  -20.56995 -20.56630 -20.56606 -15.64096 -15.63819
 Alpha  occ. eigenvalues --  -11.40178 -11.39912 -11.39896 -11.39775 -11.31170
 Alpha  occ. eigenvalues --  -11.30735 -11.30629 -11.30312 -11.30102 -11.29929
 Alpha  occ. eigenvalues --  -11.29840 -11.29682 -11.29492 -11.29432 -11.29360
 Alpha  occ. eigenvalues --  -11.28803 -11.28710 -11.28688 -11.28346 -11.27492
 Alpha  occ. eigenvalues --  -11.27387 -11.27257 -11.27201 -11.26930 -11.25008
 Alpha  occ. eigenvalues --  -11.24622  -8.98735  -8.98329  -6.66892  -6.66797
 Alpha  occ. eigenvalues --   -6.66603  -6.66487  -6.66392  -6.66203  -1.43647
 Alpha  occ. eigenvalues --   -1.43411  -1.41891  -1.41700  -1.41697  -1.41399
 Alpha  occ. eigenvalues --   -1.27743  -1.27307  -1.23405  -1.19024  -1.17164
 Alpha  occ. eigenvalues --   -1.15423  -1.13021  -1.07815  -1.06080  -1.03636
 Alpha  occ. eigenvalues --   -1.00595  -1.00317  -0.99174  -0.97363  -0.96980
 Alpha  occ. eigenvalues --   -0.96425  -0.93621  -0.92233  -0.90142  -0.89050
 Alpha  occ. eigenvalues --   -0.88531  -0.86804  -0.81520  -0.79685  -0.78817
 Alpha  occ. eigenvalues --   -0.78079  -0.76189  -0.74780  -0.74225  -0.72648
 Alpha  occ. eigenvalues --   -0.72129  -0.70724  -0.69475  -0.68081  -0.67427
 Alpha  occ. eigenvalues --   -0.66931  -0.66437  -0.66178  -0.65995  -0.65803
 Alpha  occ. eigenvalues --   -0.65372  -0.64764  -0.64532  -0.64009  -0.63914
 Alpha  occ. eigenvalues --   -0.62457  -0.61798  -0.60939  -0.60276  -0.59464
 Alpha  occ. eigenvalues --   -0.59358  -0.57397  -0.56976  -0.56944  -0.56655
 Alpha  occ. eigenvalues --   -0.56537  -0.56392  -0.55968  -0.55868  -0.55551
 Alpha  occ. eigenvalues --   -0.53912  -0.53450  -0.52803  -0.51617  -0.51317
 Alpha  occ. eigenvalues --   -0.50635  -0.48825  -0.48110  -0.47910  -0.47401
 Alpha  occ. eigenvalues --   -0.46493  -0.46412  -0.46018  -0.45620  -0.45136
 Alpha  occ. eigenvalues --   -0.43152  -0.42007  -0.41468  -0.37896  -0.35555
 Alpha  occ. eigenvalues --   -0.33817  -0.33478  -0.33173  -0.25371
 Alpha virt. eigenvalues --   -0.01823   0.02976   0.03238   0.03507   0.04016
 Alpha virt. eigenvalues --    0.04095   0.04615   0.04803   0.05250   0.05531
 Alpha virt. eigenvalues --    0.05700   0.05933   0.06151   0.06210   0.06529

 Mulliken charges:
               1
     1  C    0.025386
     2  C    0.915863
     3  C   -0.576576
     4  C    1.654241
     5  C    0.017293
     6  C    0.476928
     7  C   -0.496428
     8  C    1.119223
     9  C    1.274644
    10  C   -0.387373
    11  C   -0.031107
    12  C    1.448798
    13  C    0.351582
    14  C    0.292548
    15  H   -0.632065
    16  H   -0.660062
    17  H   -0.783949
    18  N   -0.956790
    19  N   -0.949442
    20  O   -0.859963
    21  O   -0.895474
    22  O   -0.907823
    23  O   -0.790095
    24  C    0.696492
    25  H   -0.029981
    26  H   -0.021493
    27  H   -0.243138
    28  C    0.669675
    29  H   -0.016884
    30  H   -0.021475
    31  H   -0.229595
    32  C    1.307047
    33  C    0.716367
    34  S    0.288835
    35  C   -0.626755
    36  H   -0.813593
    37  C   -0.167529
    38  O   -1.071224
    39  C    1.185908
    40  C    1.001686
    41  C   -0.169201
    42  S    0.362813
    43  H   -0.342080
    44  H   -0.110904
    45  H   -0.030905
    46  C    1.012312
    47  O   -1.132160
    48  C   -0.260089
    49  H   -0.635535
    50  C    0.913166
    51  H   -0.426276
    52  H   -0.059717
    53  H   -0.330035
    54  H   -0.065093
 Sum of Mulliken charges =  -0.00000

 Dipole moment (field-independent basis, Debye):
    X=             -1.4890    Y=             -0.0750    Z=             -0.0335  Tot=              1.4912
 Quadrupole moment (field-independent basis, Debye-Ang):
   XX=           -220.9637   YY=           -225.2614   ZZ=           -210.6813
   XY=              4.0628   XZ=              8.3995   YZ=             17.3771

 Normal termination of Gaussian 16 at Thu Dec 10 13:48:52 2020.
