 Gaussian 16, Revision C.01,
 Gaussian 16:  ES64L-G16RevC.01  3-Jul-2019

 -------------------------------
 # mp2/aug-cc-pvdz MaxDisk=400GB
 -------------------------------

 ----------------
 NDI_85_b3lyp.pdb
 ----------------
 Symbolic Z-matrix:
 Charge =  0 Multiplicity = 1

                         Standard orientation:
 ---------------------------------------------------------------------
 Center     Atomic      Atomic             Coordinates (Angstroms)
 Number     Number       Type             X           Y           Z
 ---------------------------------------------------------------------
      1          6           0       -3.104887   -2.864094    0.459034
      2          6           0       -2.542944   -1.495070    0.306034
      3          6           0       -3.391990   -0.405106    0.015034
      4          6           0       -4.783982   -0.597164   -0.139966
      5          6           0       -5.377925   -1.954189    0.008034
      6          6           0       -1.188953   -1.291013    0.454034
      7          6           0       -2.829045    0.891918   -0.128966
      8          6           0       -1.428053    1.085977    0.029034
      9          6           0       -0.606007   -0.003988    0.341034
     10          6           0       -0.871111    2.460001   -0.163966
     11          6           0       -3.163148    3.344904   -0.610966
     12          6           0       -3.695090    1.969882   -0.434966
     13          6           0       -5.056082    1.759824   -0.581966
     14          6           0       -5.604028    0.476801   -0.432966
     15          1           0       -6.667020    0.307756   -0.547966
     16          1           0       -5.685117    2.608798   -0.814966
     17          1           0       -0.553917   -2.137986    0.682034
     18          7           0       -1.780155    3.488962   -0.474966
     19          7           0       -4.488881   -3.002152    0.297034
     20          8           0       -2.414846   -3.833064    0.714034
     21          8           0       -6.571917   -2.151240   -0.113966
     22          8           0       -3.884188    4.291874   -0.864966
     23          8           0        0.309878    2.726050   -0.075966
     24          6           0       -1.194211    4.824987   -0.660966
     25          1           0       -0.690224    5.139008    0.253034
     26          1           0       -0.458210    4.794018   -1.464966
     27          1           0       -1.999240    5.509953   -0.905966
     28          6           0       -5.029824   -4.361175    0.451034
     29          1           0       -4.560796   -5.026155   -0.273966
     30          1           0       -4.810808   -4.732165    1.452034
     31          1           0       -6.101826   -4.314220    0.288034
     32          6           0        0.857989    0.077073    0.552034
     33          6           0        1.524976    0.393102    1.703034
     34         16           0        1.949012   -0.456881   -0.693966
     35          6           0        2.931982    0.243161    1.578034
     36          1           0        1.023962    0.735080    2.598034
     37          6           0        3.352001   -0.208821    0.337034
     38          8           0        3.855972    0.488200    2.550034
     39          6           0        4.701011   -0.438765   -0.117966
     40          6           0        3.409946    1.099181    3.755034
     41          6           0        5.113031   -0.915747   -1.352966
     42         16           0        6.111998   -0.119705    0.882034
     43          1           0        4.303939    1.260219    4.357034
     44          1           0        2.925906    2.061161    3.555034
     45          1           0        2.721974    0.445152    4.301034
     46          6           0        6.525036   -1.021688   -1.497966
     47          8           0        4.178044   -1.231787   -2.293966
     48          6           0        7.187019   -0.625660   -0.369966
     49          1           0        7.025050   -1.374667   -2.388966
     50          6           0        4.633065   -1.717767   -3.550966
     51          1           0        8.252018   -0.606615   -0.200966
     52          1           0        5.193104   -2.651744   -3.434966
     53          1           0        3.737073   -1.904805   -4.140966
     54          1           0        5.255034   -0.974741   -4.060966
 ---------------------------------------------------------------------

 SCF Done:  E(RHF) =  -2348.40877046     A.U. after   21 cycles
 E2 =    -0.5316802316D+01 EUMP2 =    -0.23537255727729D+04

 The electronic state is 1-A.
 Alpha  occ. eigenvalues --  -91.98464 -91.98031 -20.59790 -20.59775 -20.57090
 Alpha  occ. eigenvalues --  -20.57048 -20.56812 -20.56754 -15.64174 -15.63887
 Alpha  occ. eigenvalues --  -11.40272 -11.39983 -11.39942 -11.39916 -11.31032
 Alpha  occ. eigenvalues --  -11.30553 -11.30449 -11.30403 -11.30303 -11.30115
 Alpha  occ. eigenvalues --  -11.29683 -11.29657 -11.29596 -11.29556 -11.29519
 Alpha  occ. eigenvalues --  -11.28991 -11.28873 -11.28849 -11.28452 -11.27549
 Alpha  occ. eigenvalues --  -11.27299 -11.27007 -11.26970 -11.26775 -11.24766
 Alpha  occ. eigenvalues --  -11.24471  -8.98521  -8.98125  -6.66680  -6.66583
 Alpha  occ. eigenvalues --   -6.66388  -6.66283  -6.66189  -6.66000  -1.43710
 Alpha  occ. eigenvalues --   -1.43591  -1.41764  -1.41648  -1.41623  -1.41550
 Alpha  occ. eigenvalues --   -1.27817  -1.27403  -1.23553  -1.18930  -1.17082
 Alpha  occ. eigenvalues --   -1.15401  -1.13138  -1.07815  -1.06165  -1.03524
 Alpha  occ. eigenvalues --   -1.00469  -1.00358  -0.98938  -0.97344  -0.97021
 Alpha  occ. eigenvalues --   -0.96306  -0.93528  -0.92131  -0.90220  -0.89146
 Alpha  occ. eigenvalues --   -0.88583  -0.86916  -0.81368  -0.79671  -0.78795
 Alpha  occ. eigenvalues --   -0.78112  -0.76186  -0.74717  -0.74010  -0.72786
 Alpha  occ. eigenvalues --   -0.72012  -0.70816  -0.69575  -0.68155  -0.67486
 Alpha  occ. eigenvalues --   -0.66975  -0.66436  -0.66032  -0.65946  -0.65703
 Alpha  occ. eigenvalues --   -0.65474  -0.64826  -0.64452  -0.64194  -0.63938
 Alpha  occ. eigenvalues --   -0.62421  -0.61788  -0.60849  -0.60316  -0.59609
 Alpha  occ. eigenvalues --   -0.59435  -0.57446  -0.57090  -0.57039  -0.56712
 Alpha  occ. eigenvalues --   -0.56448  -0.56219  -0.55988  -0.55925  -0.55447
 Alpha  occ. eigenvalues --   -0.54002  -0.53513  -0.52611  -0.51569  -0.51118
 Alpha  occ. eigenvalues --   -0.50443  -0.48794  -0.47980  -0.47720  -0.47626
 Alpha  occ. eigenvalues --   -0.46516  -0.46302  -0.45943  -0.45547  -0.45146
 Alpha  occ. eigenvalues --   -0.43261  -0.42074  -0.41544  -0.37315  -0.35956
 Alpha  occ. eigenvalues --   -0.33912  -0.33392  -0.33114  -0.25457
 Alpha virt. eigenvalues --   -0.01772   0.02928   0.03280   0.03515   0.03926
 Alpha virt. eigenvalues --    0.04083   0.04612   0.04807   0.05204   0.05554
 Alpha virt. eigenvalues --    0.05579   0.05941   0.06272   0.06380   0.06580

 Mulliken charges:
               1
     1  C    0.048365
     2  C    1.068450
     3  C   -0.612809
     4  C    1.696716
     5  C    0.006459
     6  C   -0.034361
     7  C   -0.241520
     8  C    1.051948
     9  C    1.402346
    10  C   -0.454036
    11  C   -0.021863
    12  C    1.455348
    13  C    0.366417
    14  C    0.277600
    15  H   -0.634139
    16  H   -0.653960
    17  H   -0.793191
    18  N   -0.954926
    19  N   -0.955160
    20  O   -0.862418
    21  O   -0.888818
    22  O   -0.903189
    23  O   -0.836980
    24  C    0.685089
    25  H   -0.016987
    26  H   -0.012784
    27  H   -0.251255
    28  C    0.676954
    29  H   -0.019646
    30  H   -0.021335
    31  H   -0.232698
    32  C    2.124217
    33  C   -0.093933
    34  S    0.064394
    35  C    0.276914
    36  H   -0.826406
    37  C   -0.817630
    38  O   -1.104685
    39  C    1.354455
    40  C    0.976092
    41  C   -0.162907
    42  S    0.340400
    43  H   -0.341097
    44  H   -0.042577
    45  H   -0.096423
    46  C    1.004612
    47  O   -1.128337
    48  C   -0.253127
    49  H   -0.635408
    50  C    0.918218
    51  H   -0.427377
    52  H   -0.072727
    53  H   -0.327535
    54  H   -0.062747
 Sum of Mulliken charges =  -0.00000

 Dipole moment (field-independent basis, Debye):
    X=              0.9353    Y=              0.1848    Z=             -0.0555  Tot=              0.9550
 Quadrupole moment (field-independent basis, Debye-Ang):
   XX=           -221.3642   YY=           -234.4703   ZZ=           -201.8208
   XY=             -1.4896   XZ=            -10.3687   YZ=             12.3850

 Normal termination of Gaussian 16 at Tue Dec 15 12:47:58 2020.
