 Gaussian 16, Revision C.01,
 Gaussian 16:  ES64L-G16RevC.01  3-Jul-2019

 -------------------------------
 # mp2/aug-cc-pvdz MaxDisk=400GB
 -------------------------------

 ----------------
 NDI_10_b3lyp.pdb
 ----------------
 Symbolic Z-matrix:
 Charge =  0 Multiplicity = 1

                         Standard orientation:
 ---------------------------------------------------------------------
 Center     Atomic      Atomic             Coordinates (Angstroms)
 Number     Number       Type             X           Y           Z
 ---------------------------------------------------------------------
      1          6           0       -2.373005   -3.004955    0.398067
      2          6           0       -2.154002   -1.538956    0.280067
      3          6           0       -3.237001   -0.668954    0.023067
      4          6           0       -4.534002   -1.180952   -0.169933
      5          6           0       -4.787004   -2.643952   -0.079933
      6          6           0       -0.890002   -1.038958    0.403067
      7          6           0       -2.979999    0.728046   -0.029933
      8          6           0       -1.660998    1.250044    0.185067
      9          6           0       -0.556999    0.353042    0.309067
     10          6           0       -1.562996    2.724043    0.316067
     11          6           0       -3.912995    3.033047   -0.438933
     12          6           0       -4.082998    1.571047   -0.323933
     13          6           0       -5.352998    1.047049   -0.532933
     14          6           0       -5.590000   -0.325951   -0.447933
     15          1           0       -6.579001   -0.737949   -0.597933
     16          1           0       -6.152997    1.737050   -0.766933
     17          1           0       -0.113003   -1.766959    0.594067
     18          7           0       -2.642995    3.511045   -0.120933
     19          7           0       -3.681005   -3.461953    0.208067
     20          8           0       -1.474006   -3.788957    0.642067
     21          8           0       -5.896005   -3.119950   -0.239933
     22          8           0       -4.817994    3.783048   -0.764933
     23          8           0       -0.606995    3.310042    0.803067
     24          6           0       -2.441993    4.966045   -0.082933
     25          1           0       -2.361992    5.311045    0.949067
     26          1           0       -1.518992    5.218043   -0.602933
     27          1           0       -3.295992    5.428046   -0.566933
     28          6           0       -3.887007   -4.912953    0.319067
     29          1           0       -3.270008   -5.428954   -0.416933
     30          1           0       -3.595008   -5.251954    1.313067
     31          1           0       -4.939008   -5.114952    0.141067
     32          6           0        0.881001    0.626040    0.302067
     33          6           0        1.642003    1.785039    0.354067
     34         16           0        1.963999   -0.758962    0.047067
     35          6           0        3.022002    1.572037    0.209067
     36          1           0        1.201004    2.747039    0.531067
     37          6           0        3.392000    0.239036    0.029067
     38          8           0        3.989004    2.526035    0.241067
     39          6           0        4.713000   -0.291966   -0.138933
     40          6           0        3.588006    3.880036    0.444067
     41          6           0        5.080998   -1.626967   -0.291933
     42         16           0        6.155001    0.719032   -0.177933
     43          1           0        4.507007    4.464034    0.442067
     44          1           0        2.933006    4.221037   -0.362933
     45          1           0        3.079006    3.999036    1.405067
     46          6           0        6.479997   -1.830969   -0.434933
     47          8           0        4.120996   -2.582965   -0.295933
     48          6           0        7.174999   -0.653970   -0.391933
     49          1           0        6.948996   -2.795969   -0.561933
     50          6           0        4.521994   -3.945966   -0.419933
     51          1           0        8.241999   -0.516971   -0.473933
     52          1           0        5.172994   -4.239967    0.409067
     53          1           0        3.603993   -4.528964   -0.385933
     54          1           0        5.029994   -4.119967   -1.373933
 ---------------------------------------------------------------------

 SCF Done:  E(RHF) =  -2348.39835720     A.U. after   37 cycles
 E2 =    -0.5327135571D+01 EUMP2 =    -0.23537254927748D+04

 The electronic state is 1-A.
 Alpha  occ. eigenvalues --  -91.99078 -91.99007 -20.60840 -20.60108 -20.56763
 Alpha  occ. eigenvalues --  -20.56749 -20.56695 -20.56040 -15.63861 -15.63525
 Alpha  occ. eigenvalues --  -11.39921 -11.39894 -11.39673 -11.39159 -11.32095
 Alpha  occ. eigenvalues --  -11.31990 -11.30813 -11.30353 -11.30040 -11.29737
 Alpha  occ. eigenvalues --  -11.29496 -11.29159 -11.29033 -11.28931 -11.28920
 Alpha  occ. eigenvalues --  -11.28817 -11.28596 -11.28293 -11.28259 -11.28118
 Alpha  occ. eigenvalues --  -11.27878 -11.27597 -11.27321 -11.27194 -11.25353
 Alpha  occ. eigenvalues --  -11.25209  -8.99156  -8.99119  -6.67311  -6.67270
 Alpha  occ. eigenvalues --   -6.67216  -6.67173  -6.67028  -6.66980  -1.43362
 Alpha  occ. eigenvalues --   -1.43286  -1.42842  -1.42061  -1.41394  -1.41048
 Alpha  occ. eigenvalues --   -1.27484  -1.27105  -1.22851  -1.19324  -1.17506
 Alpha  occ. eigenvalues --   -1.15374  -1.12538  -1.07813  -1.05678  -1.04157
 Alpha  occ. eigenvalues --   -1.01072  -1.00112  -0.99764  -0.97799  -0.96890
 Alpha  occ. eigenvalues --   -0.96506  -0.94019  -0.92434  -0.89923  -0.88696
 Alpha  occ. eigenvalues --   -0.88398  -0.86521  -0.82004  -0.80022  -0.78859
 Alpha  occ. eigenvalues --   -0.77875  -0.76469  -0.75107  -0.74586  -0.73207
 Alpha  occ. eigenvalues --   -0.71831  -0.70419  -0.69602  -0.68199  -0.67373
 Alpha  occ. eigenvalues --   -0.66992  -0.66801  -0.66409  -0.66108  -0.65877
 Alpha  occ. eigenvalues --   -0.65298  -0.65054  -0.64163  -0.64044  -0.63550
 Alpha  occ. eigenvalues --   -0.62507  -0.61703  -0.61311  -0.59735  -0.59302
 Alpha  occ. eigenvalues --   -0.59016  -0.57350  -0.57142  -0.56934  -0.56625
 Alpha  occ. eigenvalues --   -0.56492  -0.56343  -0.56305  -0.55737  -0.55461
 Alpha  occ. eigenvalues --   -0.53797  -0.53253  -0.53047  -0.52414  -0.51279
 Alpha  occ. eigenvalues --   -0.51074  -0.49751  -0.48616  -0.48099  -0.47016
 Alpha  occ. eigenvalues --   -0.46603  -0.46205  -0.45703  -0.45625  -0.44846
 Alpha  occ. eigenvalues --   -0.42891  -0.41854  -0.41308  -0.39343  -0.35029
 Alpha  occ. eigenvalues --   -0.34298  -0.33779  -0.33044  -0.25327
 Alpha virt. eigenvalues --   -0.01831   0.02869   0.03343   0.03538   0.04037
 Alpha virt. eigenvalues --    0.04142   0.04238   0.04944   0.05283   0.05444
 Alpha virt. eigenvalues --    0.05482   0.05660   0.06052   0.06559   0.06726

 Mulliken charges:
               1
     1  C    0.003584
     2  C    0.632737
     3  C   -0.764142
     4  C    1.769409
     5  C    0.050406
     6  C    0.795999
     7  C   -0.358542
     8  C    1.146176
     9  C    0.237496
    10  C   -0.197953
    11  C   -0.178160
    12  C    1.484231
    13  C    0.371922
    14  C    0.394542
    15  H   -0.681263
    16  H   -0.717102
    17  H   -0.632431
    18  N   -0.912436
    19  N   -0.944898
    20  O   -0.860450
    21  O   -0.894446
    22  O   -0.904278
    23  O   -0.878813
    24  C    0.694685
    25  H   -0.040921
    26  H   -0.063608
    27  H   -0.215628
    28  C    0.650287
    29  H   -0.016562
    30  H   -0.020230
    31  H   -0.227410
    32  C    0.694074
    33  C    0.597710
    34  S    0.574771
    35  C    0.195930
    36  H   -0.682657
    37  C    0.206412
    38  O   -1.085687
    39  C    0.994090
    40  C    0.959517
    41  C   -0.050027
    42  S    0.327482
    43  H   -0.368784
    44  H   -0.034963
    45  H   -0.041916
    46  C    0.913182
    47  O   -1.131656
    48  C   -0.199764
    49  H   -0.632798
    50  C    0.915572
    51  H   -0.429861
    52  H   -0.053250
    53  H   -0.334723
    54  H   -0.054855
 Sum of Mulliken charges =  -0.00000

 Dipole moment (field-independent basis, Debye):
    X=              3.8519    Y=             -0.7060    Z=             -0.4364  Tot=              3.9403
 Quadrupole moment (field-independent basis, Debye-Ang):
   XX=           -216.3522   YY=           -209.2272   ZZ=           -228.0893
   XY=             -6.8310   XZ=             -6.3019   YZ=              3.9542

 Normal termination of Gaussian 16 at Tue Dec 15 02:13:03 2020.
