 Gaussian 16, Revision C.01,
 Gaussian 16:  ES64L-G16RevC.01  3-Jul-2019

 -------------------------------
 # mp2/aug-cc-pvdz MaxDisk=400GB
 -------------------------------

 ----------------
 NDI_25_b3lyp.pdb
 ----------------
 Symbolic Z-matrix:
 Charge =  0 Multiplicity = 1

                         Standard orientation:
 ---------------------------------------------------------------------
 Center     Atomic      Atomic             Coordinates (Angstroms)
 Number     Number       Type             X           Y           Z
 ---------------------------------------------------------------------
      1          6           0       -2.564857   -3.017107    0.249970
      2          6           0       -2.256888   -1.569101    0.114970
      3          6           0       -3.298908   -0.615123    0.069970
      4          6           0       -4.644900   -1.020152    0.164970
      5          6           0       -4.988869   -2.459159    0.314970
      6          6           0       -0.950897   -1.162073    0.073970
      7          6           0       -2.958938    0.757884   -0.087030
      8          6           0       -1.592947    1.169914   -0.176030
      9          6           0       -0.557926    0.207936   -0.033030
     10          6           0       -1.337977    2.584919   -0.555030
     11          6           0       -3.762989    3.131867   -0.331030
     12          6           0       -4.025958    1.688861   -0.144030
     13          6           0       -5.344949    1.271833   -0.034030
     14          6           0       -5.662920   -0.080174    0.118970
     15          1           0       -6.689913   -0.411196    0.198970
     16          1           0       -6.122965    2.024816   -0.076030
     17          1           0       -0.193880   -1.929056    0.171970
     18          7           0       -2.427996    3.476896   -0.547030
     19          7           0       -3.916849   -3.367136    0.340970
     20          8           0       -1.702838   -3.876089    0.283970
     21          8           0       -6.139861   -2.842184    0.407970
     22          8           0       -4.649007    3.969848   -0.325030
     23          8           0       -0.249987    3.020942   -0.892030
     24          6           0       -2.116026    4.875902   -0.869030
     25          1           0       -1.357034    5.250919   -0.183030
     26          1           0       -1.725028    4.946911   -1.884030
     27          1           0       -3.033039    5.448883   -0.773030
     28          6           0       -4.210818   -4.801143    0.478970
     29          1           0       -3.809807   -5.342134   -0.378030
     30          1           0       -3.739810   -5.188133    1.382970
     31          1           0       -5.288816   -4.917166    0.531970
     32          6           0        0.870068    0.458966    0.115970
     33          6           0        1.550045    1.558981    0.601970
     34         16           0        2.013096   -0.809009   -0.321030
     35          6           0        2.944049    1.388011    0.637970
     36          1           0        1.057026    2.458970    0.922970
     37          6           0        3.388075    0.153021    0.156970
     38          8           0        3.858029    2.291031    1.077970
     39          6           0        4.742085   -0.304950    0.033970
     40          6           0        3.390001    3.582021    1.460970
     41          6           0        5.181111   -1.541941   -0.431030
     42         16           0        6.133064    0.681080    0.469970
     43          1           0        4.278989    4.156040    1.716970
     44          1           0        2.860991    4.068009    0.635970
     45          1           0        2.735003    3.518007    2.335970
     46          6           0        6.594115   -1.693911   -0.435030
     47          8           0        4.268131   -2.463961   -0.826030
     48          6           0        7.229091   -0.572897    0.023970
     49          1           0        7.114134   -2.581899   -0.760030
     50          6           0        4.739159   -3.730950   -1.279030
     51          1           0        8.292087   -0.414874    0.127970
     52          1           0        5.296170   -4.247938   -0.492030
     53          1           0        3.851171   -4.305969   -1.532030
     54          1           0        5.368156   -3.620937   -2.168030
 ---------------------------------------------------------------------

 SCF Done:  E(RHF) =  -2348.40277886     A.U. after   19 cycles
 E2 =    -0.5326089687D+01 EUMP2 =    -0.23537288685497D+04

 The electronic state is 1-A.
 Alpha  occ. eigenvalues --  -91.99066 -91.98899 -20.60675 -20.60187 -20.56809
 Alpha  occ. eigenvalues --  -20.56781 -20.56210 -20.56145 -15.63880 -15.63478
 Alpha  occ. eigenvalues --  -11.39919 -11.39715 -11.39661 -11.39284 -11.31689
 Alpha  occ. eigenvalues --  -11.31573 -11.30954 -11.30252 -11.30041 -11.29881
 Alpha  occ. eigenvalues --  -11.29351 -11.29328 -11.29144 -11.29111 -11.28711
 Alpha  occ. eigenvalues --  -11.28675 -11.28368 -11.28364 -11.28275 -11.28046
 Alpha  occ. eigenvalues --  -11.28015 -11.27464 -11.27333 -11.27105 -11.25673
 Alpha  occ. eigenvalues --  -11.25183  -8.99160  -8.98982  -6.67312  -6.67220
 Alpha  occ. eigenvalues --   -6.67138  -6.67043  -6.67027  -6.66854  -1.43416
 Alpha  occ. eigenvalues --   -1.43044  -1.42640  -1.42174  -1.41461  -1.40968
 Alpha  occ. eigenvalues --   -1.27483  -1.26969  -1.22948  -1.19330  -1.17463
 Alpha  occ. eigenvalues --   -1.15429  -1.12624  -1.07821  -1.05745  -1.04054
 Alpha  occ. eigenvalues --   -1.01005  -1.00078  -0.99762  -0.97717  -0.96871
 Alpha  occ. eigenvalues --   -0.96515  -0.93976  -0.92460  -0.89839  -0.88716
 Alpha  occ. eigenvalues --   -0.88388  -0.86522  -0.81927  -0.79958  -0.78769
 Alpha  occ. eigenvalues --   -0.77873  -0.76384  -0.74951  -0.74565  -0.72953
 Alpha  occ. eigenvalues --   -0.72027  -0.70494  -0.69262  -0.67931  -0.67421
 Alpha  occ. eigenvalues --   -0.66962  -0.66685  -0.66382  -0.66209  -0.65801
 Alpha  occ. eigenvalues --   -0.65313  -0.64976  -0.64228  -0.63881  -0.63623
 Alpha  occ. eigenvalues --   -0.62606  -0.61706  -0.61294  -0.59826  -0.59390
 Alpha  occ. eigenvalues --   -0.59077  -0.57390  -0.57115  -0.56865  -0.56670
 Alpha  occ. eigenvalues --   -0.56440  -0.56430  -0.56241  -0.55604  -0.55537
 Alpha  occ. eigenvalues --   -0.53863  -0.53240  -0.53164  -0.52215  -0.51421
 Alpha  occ. eigenvalues --   -0.51168  -0.49625  -0.48481  -0.48078  -0.47131
 Alpha  occ. eigenvalues --   -0.46628  -0.46280  -0.45889  -0.45664  -0.44915
 Alpha  occ. eigenvalues --   -0.42880  -0.41805  -0.41210  -0.39082  -0.35044
 Alpha  occ. eigenvalues --   -0.34135  -0.33765  -0.32967  -0.25213
 Alpha virt. eigenvalues --   -0.01961   0.02917   0.03214   0.03541   0.04104
 Alpha virt. eigenvalues --    0.04196   0.04331   0.04906   0.05127   0.05327
 Alpha virt. eigenvalues --    0.05548   0.05710   0.06017   0.06439   0.06672

 Mulliken charges:
               1
     1  C    0.114990
     2  C    0.627456
     3  C   -0.548362
     4  C    1.663337
     5  C    0.075290
     6  C    0.832655
     7  C   -0.264929
     8  C    1.094461
     9  C    0.970083
    10  C    0.097356
    11  C   -0.138992
    12  C    1.359731
    13  C    0.319181
    14  C    0.235616
    15  H   -0.632752
    16  H   -0.683135
    17  H   -0.703076
    18  N   -0.959290
    19  N   -0.968859
    20  O   -0.860735
    21  O   -0.890006
    22  O   -0.899544
    23  O   -0.828133
    24  C    0.666213
    25  H   -0.048170
    26  H   -0.030354
    27  H   -0.231980
    28  C    0.663735
    29  H   -0.017836
    30  H   -0.016283
    31  H   -0.223346
    32  C    0.739523
    33  C    0.572531
    34  S    0.393654
    35  C   -0.331488
    36  H   -0.767659
    37  C   -0.044263
    38  O   -1.105027
    39  C    1.124084
    40  C    0.934350
    41  C   -0.269201
    42  S    0.369130
    43  H   -0.351216
    44  H   -0.031627
    45  H   -0.077365
    46  C    1.059958
    47  O   -1.126416
    48  C   -0.259209
    49  H   -0.640739
    50  C    0.916039
    51  H   -0.430045
    52  H   -0.059297
    53  H   -0.332249
    54  H   -0.057790
 Sum of Mulliken charges =  -0.00000

 Dipole moment (field-independent basis, Debye):
    X=              3.3715    Y=             -0.5302    Z=              0.3290  Tot=              3.4287
 Quadrupole moment (field-independent basis, Debye-Ang):
   XX=           -216.7696   YY=           -213.4019   ZZ=           -223.7126
   XY=             -6.4834   XZ=             -1.5170   YZ=             11.3215

 Normal termination of Gaussian 16 at Tue Dec 15 01:57:51 2020.
