 Gaussian 16, Revision C.01,
 Gaussian 16:  ES64L-G16RevC.01  3-Jul-2019

 -------------------------------
 # mp2/aug-cc-pvdz MaxDisk=400GB
 -------------------------------

 ----------------
 NDI_50_b3lyp.pdb
 ----------------
 Symbolic Z-matrix:
 Charge =  0 Multiplicity = 1

                         Standard orientation:
 ---------------------------------------------------------------------
 Center     Atomic      Atomic             Coordinates (Angstroms)
 Number     Number       Type             X           Y           Z
 ---------------------------------------------------------------------
      1          6           0       -2.656008   -2.956020    0.523948
      2          6           0       -2.302031   -1.529015    0.298948
      3          6           0       -3.315047   -0.565031    0.091948
      4          6           0       -4.674041   -0.942053    0.093948
      5          6           0       -5.063018   -2.359059    0.328948
      6          6           0       -0.985037   -1.150993    0.310948
      7          6           0       -2.937069    0.787975   -0.133052
      8          6           0       -1.562075    1.172997   -0.119052
      9          6           0       -0.567059    0.202013    0.140948
     10          6           0       -1.233097    2.585003   -0.456052
     11          6           0       -3.659106    3.141964   -0.672052
     12          6           0       -3.972084    1.724959   -0.379052
     13          6           0       -5.303077    1.333937   -0.372052
     14          6           0       -5.661056    0.003931   -0.131052
     15          1           0       -6.698051   -0.306085   -0.125052
     16          1           0       -6.057089    2.086925   -0.563052
     17          1           0       -0.241025   -1.912981    0.501948
     18          7           0       -2.301112    3.461985   -0.730052
     19          7           0       -4.018003   -3.276042    0.525948
     20          8           0       -1.818995   -3.822007    0.700948
     21          8           0       -6.227012   -2.714078    0.348948
     22          8           0       -4.524120    3.977950   -0.865052
     23          8           0       -0.100105    3.026021   -0.524052
     24          6           0       -1.926134    4.840991   -1.071052
     25          1           0       -1.413141    5.308000   -0.229052
     26          1           0       -1.250134    4.836002   -1.925052
     27          1           0       -2.837142    5.383977   -1.303052
     28          6           0       -4.354981   -4.689048    0.753948
     29          1           0       -3.895971   -5.306040   -0.018052
     30          1           0       -3.968976   -5.007041    1.722948
     31          1           0       -5.435979   -4.783065    0.725948
     32          6           0        0.873937    0.436036    0.254948
     33          6           0        1.561922    1.366047    1.001948
     34         16           0        1.981956   -0.720946   -0.459052
     35          6           0        2.956925    1.169070    0.986948
     36          1           0        1.072909    2.167040    1.530948
     37          6           0        3.377943    0.080077    0.224948
     38          8           0        3.885913    1.927085    1.627948
     39          6           0        4.725950   -0.345902   -0.033052
     40          6           0        3.443894    3.117078    2.276948
     41          6           0        5.141967   -1.450895   -0.768052
     42         16           0        6.135936    0.517121    0.569948
     43          1           0        4.341886    3.601092    2.654948
     44          1           0        2.934883    3.782070    1.571948
     45          1           0        2.776898    2.885067    3.112948
     46          6           0        6.552970   -1.600872   -0.846052
     47          8           0        4.209980   -2.262910   -1.332052
     48          6           0        7.209954   -0.609862   -0.170052
     49          1           0        7.056983   -2.398864   -1.371052
     50          6           0        4.660999   -3.404903   -2.055052
     51          1           0        8.276952   -0.482845   -0.061052
     52          1           0        5.232010   -4.079894   -1.409052
     53          1           0        3.763007   -3.910917   -2.403052
     54          1           0        5.270994   -3.109893   -2.915052
 ---------------------------------------------------------------------

 SCF Done:  E(RHF) =  -2348.40578193     A.U. after   23 cycles
 E2 =    -0.5323158465D+01 EUMP2 =    -0.23537289403971D+04

 The electronic state is 1-A.
 Alpha  occ. eigenvalues --  -91.98829 -91.98561 -20.60331 -20.59958 -20.56906
 Alpha  occ. eigenvalues --  -20.56895 -20.56368 -20.56357 -15.64012 -15.63617
 Alpha  occ. eigenvalues --  -11.40069 -11.39814 -11.39767 -11.39492 -11.31407
 Alpha  occ. eigenvalues --  -11.31193 -11.30724 -11.30194 -11.30048 -11.29745
 Alpha  occ. eigenvalues --  -11.29721 -11.29625 -11.29327 -11.29288 -11.29022
 Alpha  occ. eigenvalues --  -11.28507 -11.28447 -11.28362 -11.28238 -11.28012
 Alpha  occ. eigenvalues --  -11.27597 -11.27421 -11.27178 -11.27134 -11.25359
 Alpha  occ. eigenvalues --  -11.24887  -8.98909  -8.98648  -6.67064  -6.66971
 Alpha  occ. eigenvalues --   -6.66805  -6.66778  -6.66710  -6.66522  -1.43515
 Alpha  occ. eigenvalues --   -1.43234  -1.42244  -1.41873  -1.41550  -1.41206
 Alpha  occ. eigenvalues --   -1.27632  -1.27102  -1.23153  -1.19142  -1.17296
 Alpha  occ. eigenvalues --   -1.15424  -1.12802  -1.07793  -1.05898  -1.03827
 Alpha  occ. eigenvalues --   -1.00778  -1.00191  -0.99465  -0.97484  -0.96927
 Alpha  occ. eigenvalues --   -0.96475  -0.93772  -0.92346  -0.89969  -0.88871
 Alpha  occ. eigenvalues --   -0.88425  -0.86656  -0.81700  -0.79766  -0.78811
 Alpha  occ. eigenvalues --   -0.77956  -0.76257  -0.74753  -0.74480  -0.72678
 Alpha  occ. eigenvalues --   -0.72152  -0.70575  -0.69355  -0.67989  -0.67342
 Alpha  occ. eigenvalues --   -0.66905  -0.66502  -0.66404  -0.65982  -0.65915
 Alpha  occ. eigenvalues --   -0.65250  -0.64836  -0.64409  -0.63903  -0.63740
 Alpha  occ. eigenvalues --   -0.62532  -0.61698  -0.61126  -0.60092  -0.59291
 Alpha  occ. eigenvalues --   -0.59252  -0.57382  -0.56863  -0.56833  -0.56769
 Alpha  occ. eigenvalues --   -0.56513  -0.56457  -0.55952  -0.55803  -0.55606
 Alpha  occ. eigenvalues --   -0.53824  -0.53334  -0.53013  -0.51854  -0.51425
 Alpha  occ. eigenvalues --   -0.50915  -0.49082  -0.48187  -0.48152  -0.47165
 Alpha  occ. eigenvalues --   -0.46545  -0.46409  -0.45976  -0.45666  -0.45033
 Alpha  occ. eigenvalues --   -0.42993  -0.41916  -0.41343  -0.38535  -0.35202
 Alpha  occ. eigenvalues --   -0.33851  -0.33618  -0.33100  -0.25276
 Alpha virt. eigenvalues --   -0.01894   0.02994   0.03213   0.03517   0.04089
 Alpha virt. eigenvalues --    0.04144   0.04556   0.04828   0.05299   0.05370
 Alpha virt. eigenvalues --    0.05686   0.05735   0.06079   0.06216   0.06575

 Mulliken charges:
               1
     1  C    0.080513
     2  C    0.699526
     3  C   -0.469967
     4  C    1.696551
     5  C   -0.016716
     6  C    0.724799
     7  C   -0.497441
     8  C    1.222913
     9  C    1.127292
    10  C   -0.222890
    11  C   -0.066189
    12  C    1.467518
    13  C    0.330389
    14  C    0.266957
    15  H   -0.639735
    16  H   -0.680544
    17  H   -0.751601
    18  N   -0.988453
    19  N   -0.957135
    20  O   -0.860208
    21  O   -0.893807
    22  O   -0.908050
    23  O   -0.782604
    24  C    0.686137
    25  H   -0.026314
    26  H   -0.035955
    27  H   -0.234260
    28  C    0.665188
    29  H   -0.020536
    30  H   -0.015760
    31  H   -0.225522
    32  C    1.035221
    33  C    0.455252
    34  S    0.336605
    35  C   -0.391944
    36  H   -0.767096
    37  C   -0.140651
    38  O   -1.081617
    39  C    1.191640
    40  C    0.970581
    41  C   -0.229013
    42  S    0.378524
    43  H   -0.347397
    44  H   -0.026567
    45  H   -0.098722
    46  C    1.044943
    47  O   -1.133875
    48  C   -0.269179
    49  H   -0.637567
    50  C    0.910958
    51  H   -0.426012
    52  H   -0.058520
    53  H   -0.332064
    54  H   -0.057596
 Sum of Mulliken charges =  -0.00000

 Dipole moment (field-independent basis, Debye):
    X=              2.3957    Y=             -0.3584    Z=              0.0666  Tot=              2.4233
 Quadrupole moment (field-independent basis, Debye-Ang):
   XX=           -219.3269   YY=           -218.2609   ZZ=           -217.8488
   XY=             -5.4598   XZ=             -5.9029   YZ=             15.9441

 Normal termination of Gaussian 16 at Tue Dec 15 10:01:03 2020.
