 Gaussian 16, Revision C.01,
 Gaussian 16:  ES64L-G16RevC.01  3-Jul-2019

 -------------------------------
 # mp2/aug-cc-pvdz MaxDisk=400GB
 -------------------------------

 ----------------
 NDI_45_b3lyp.pdb
 ----------------
 Symbolic Z-matrix:
 Charge =  0 Multiplicity = 1

                         Standard orientation:
 ---------------------------------------------------------------------
 Center     Atomic      Atomic             Coordinates (Angstroms)
 Number     Number       Type             X           Y           Z
 ---------------------------------------------------------------------
      1          6           0       -2.644076   -2.970997    0.469881
      2          6           0       -2.297068   -1.539999    0.260881
      3          6           0       -3.314063   -0.573994    0.087881
      4          6           0       -4.672065   -0.951986    0.111881
      5          6           0       -5.056072   -2.372984    0.332881
      6          6           0       -0.980066   -1.160006    0.259881
      7          6           0       -2.941056    0.782005   -0.126119
      8          6           0       -1.566053    1.167997   -0.138119
      9          6           0       -0.565059    0.194992    0.100881
     10          6           0       -1.246046    2.576995   -0.495119
     11          6           0       -3.676043    3.144008   -0.605119
     12          6           0       -3.982051    1.722010   -0.332119
     13          6           0       -5.312053    1.331017   -0.299119
     14          6           0       -5.665060   -0.002981   -0.074119
     15          1           0       -6.701061   -0.313975   -0.050119
     16          1           0       -6.071049    2.087021   -0.458119
     17          1           0       -0.235070   -1.925010    0.433881
     18          7           0       -2.321041    3.463001   -0.703119
     19          7           0       -4.006077   -3.292990    0.492881
     20          8           0       -1.804080   -3.839002    0.616881
     21          8           0       -6.218074   -2.729978    0.370881
     22          8           0       -4.546038    3.986013   -0.753119
     23          8           0       -0.115044    3.008989   -0.635119
     24          6           0       -1.955034    4.844999   -1.047119
     25          1           0       -1.369031    5.285996   -0.240119
     26          1           0       -1.349034    4.849996   -1.952119
     27          1           0       -2.873031    5.403004   -1.196119
     28          6           0       -4.338085   -4.708988    0.705881
     29          1           0       -3.893088   -5.312990   -0.086119
     30          1           0       -3.934087   -5.041990    1.661881
     31          1           0       -5.419085   -4.803982    0.694881
     32          6           0        0.871943    0.431984    0.222881
     33          6           0        1.553948    1.403981    0.922881
     34         16           0        1.991936   -0.749022   -0.434119
     35          6           0        2.948947    1.216973    0.921881
     36          1           0        1.059952    2.226983    1.411881
     37          6           0        3.379941    0.093971    0.213881
     38          8           0        3.871951    2.009968    1.526881
     39          6           0        4.730938   -0.337036   -0.015119
     40          6           0        3.419958    3.225971    2.118881
     41          6           0        5.155932   -1.473039   -0.696119
     42         16           0        6.133943    0.558956    0.557881
     43          1           0        4.313960    3.733966    2.474881
     44          1           0        2.907961    3.852973    1.381881
     45          1           0        2.753956    3.027974    2.963881
     46          6           0        6.568932   -1.620046   -0.758119
     47          8           0        4.232928   -2.313034   -1.229119
     48          6           0        7.216937   -0.597050   -0.123119
     49          1           0        7.079927   -2.438049   -1.244119
     50          6           0        4.692922   -3.485036   -1.897119
     51          1           0        8.281938   -0.459055   -0.014119
     52          1           0        5.261918   -4.127039   -1.218119
     53          1           0        3.797919   -4.009031   -2.228119
     54          1           0        5.306923   -3.226040   -2.766119
 ---------------------------------------------------------------------

 SCF Done:  E(RHF) =  -2348.40525858     A.U. after   22 cycles
 E2 =    -0.5323980112D+01 EUMP2 =    -0.23537292386925D+04

 The electronic state is 1-A.
 Alpha  occ. eigenvalues --  -91.98885 -91.98620 -20.60409 -20.60012 -20.56894
 Alpha  occ. eigenvalues --  -20.56884 -20.56306 -20.56287 -15.63962 -15.63603
 Alpha  occ. eigenvalues --  -11.40038 -11.39792 -11.39745 -11.39448 -11.31422
 Alpha  occ. eigenvalues --  -11.31300 -11.30771 -11.30164 -11.30110 -11.29760
 Alpha  occ. eigenvalues --  -11.29660 -11.29560 -11.29299 -11.29269 -11.28947
 Alpha  occ. eigenvalues --  -11.28459 -11.28423 -11.28298 -11.28237 -11.28157
 Alpha  occ. eigenvalues --  -11.27676 -11.27395 -11.27230 -11.27123 -11.25440
 Alpha  occ. eigenvalues --  -11.24949  -8.98966  -8.98705  -6.67120  -6.67028
 Alpha  occ. eigenvalues --   -6.66861  -6.66835  -6.66766  -6.66578  -1.43527
 Alpha  occ. eigenvalues --   -1.43130  -1.42368  -1.41947  -1.41580  -1.41072
 Alpha  occ. eigenvalues --   -1.27580  -1.27059  -1.23112  -1.19170  -1.17316
 Alpha  occ. eigenvalues --   -1.15417  -1.12758  -1.07803  -1.05863  -1.03870
 Alpha  occ. eigenvalues --   -1.00826  -1.00162  -0.99530  -0.97518  -0.96912
 Alpha  occ. eigenvalues --   -0.96490  -0.93818  -0.92371  -0.89937  -0.88838
 Alpha  occ. eigenvalues --   -0.88411  -0.86629  -0.81749  -0.79798  -0.78801
 Alpha  occ. eigenvalues --   -0.77935  -0.76279  -0.74767  -0.74527  -0.72718
 Alpha  occ. eigenvalues --   -0.72138  -0.70556  -0.69324  -0.67965  -0.67337
 Alpha  occ. eigenvalues --   -0.66920  -0.66485  -0.66464  -0.66038  -0.65885
 Alpha  occ. eigenvalues --   -0.65263  -0.64878  -0.64370  -0.63895  -0.63688
 Alpha  occ. eigenvalues --   -0.62555  -0.61686  -0.61174  -0.60042  -0.59311
 Alpha  occ. eigenvalues --   -0.59210  -0.57382  -0.56868  -0.56839  -0.56757
 Alpha  occ. eigenvalues --   -0.56500  -0.56470  -0.56009  -0.55744  -0.55615
 Alpha  occ. eigenvalues --   -0.53824  -0.53313  -0.53064  -0.51925  -0.51431
 Alpha  occ. eigenvalues --   -0.50970  -0.49195  -0.48253  -0.48140  -0.47150
 Alpha  occ. eigenvalues --   -0.46560  -0.46384  -0.45958  -0.45667  -0.44998
 Alpha  occ. eigenvalues --   -0.42964  -0.41880  -0.41308  -0.38655  -0.35155
 Alpha  occ. eigenvalues --   -0.33887  -0.33660  -0.33061  -0.25239
 Alpha virt. eigenvalues --   -0.01925   0.02981   0.03206   0.03519   0.04095
 Alpha virt. eigenvalues --    0.04158   0.04524   0.04842   0.05298   0.05316
 Alpha virt. eigenvalues --    0.05647   0.05734   0.06065   0.06263   0.06587

 Mulliken charges:
               1
     1  C    0.091776
     2  C    0.664611
     3  C   -0.441572
     4  C    1.683718
     5  C   -0.010914
     6  C    0.742643
     7  C   -0.470990
     8  C    1.225146
     9  C    1.095091
    10  C   -0.150785
    11  C   -0.073244
    12  C    1.440409
    13  C    0.337833
    14  C    0.258346
    15  H   -0.640604
    16  H   -0.680550
    17  H   -0.745490
    18  N   -0.982883
    19  N   -0.960955
    20  O   -0.858832
    21  O   -0.891752
    22  O   -0.908539
    23  O   -0.793834
    24  C    0.683683
    25  H   -0.029618
    26  H   -0.034084
    27  H   -0.237677
    28  C    0.662205
    29  H   -0.016129
    30  H   -0.016858
    31  H   -0.225961
    32  C    0.998107
    33  C    0.435195
    34  S    0.341293
    35  C   -0.346044
    36  H   -0.763791
    37  C   -0.160651
    38  O   -1.084842
    39  C    1.197092
    40  C    0.961078
    41  C   -0.250933
    42  S    0.379256
    43  H   -0.347089
    44  H   -0.025081
    45  H   -0.097558
    46  C    1.047011
    47  O   -1.131067
    48  C   -0.263975
    49  H   -0.638476
    50  C    0.910469
    51  H   -0.428400
    52  H   -0.060596
    53  H   -0.328809
    54  H   -0.056378
 Sum of Mulliken charges =  -0.00000

 Dipole moment (field-independent basis, Debye):
    X=              2.5970    Y=             -0.4028    Z=              0.1338  Tot=              2.6315
 Quadrupole moment (field-independent basis, Debye-Ang):
   XX=           -218.7478   YY=           -217.1944   ZZ=           -219.1270
   XY=             -5.6820   XZ=             -5.0315   YZ=             15.2512

 Normal termination of Gaussian 16 at Tue Dec 15 09:51:23 2020.
