 Gaussian 16, Revision C.01,
 Gaussian 16:  ES64L-G16RevC.01  3-Jul-2019

 -------------------------------
 # mp2/aug-cc-pvdz MaxDisk=400GB
 -------------------------------

 -----------------
 NDI_-30_b3lyp.pdb
 -----------------
 Symbolic Z-matrix:
 Charge =  0 Multiplicity = 1

                         Standard orientation:
 ---------------------------------------------------------------------
 Center     Atomic      Atomic             Coordinates (Angstroms)
 Number     Number       Type             X           Y           Z
 ---------------------------------------------------------------------
      1          6           0        2.592017   -3.007005    0.308052
      2          6           0        2.270005   -1.564008    0.152052
      3          6           0        3.304997   -0.603000    0.075052
      4          6           0        4.655001   -0.997989    0.154052
      5          6           0        5.013012   -2.431986    0.324052
      6          6           0        0.960002   -1.167018    0.121052
      7          6           0        2.952986    0.764998   -0.097948
      8          6           0        1.583983    1.165987   -0.169948
      9          6           0        0.558991    0.197978   -0.000948
     10          6           0        1.307972    2.576984   -0.550948
     11          6           0        3.735967    3.139004   -0.403948
     12          6           0        4.012979    1.702006   -0.192948
     13          6           0        5.336982    1.295017   -0.099948
     14          6           0        5.664993   -0.051981    0.073052
     15          1           0        6.695996   -0.374972    0.140052
     16          1           0        6.107976    2.051023   -0.170948
     17          1           0        0.207008   -1.935024    0.240052
     18          7           0        2.393965    3.471993   -0.593948
     19          7           0        3.947019   -3.345994    0.385052
     20          8           0        1.736024   -3.871012    0.369052
     21          8           0        6.168015   -2.804976    0.404052
     22          8           0        4.616960    3.981011   -0.434948
     23          8           0        0.205968    3.005976   -0.848948
     24          6           0        2.064953    4.865991   -0.925948
     25          1           0        1.627953    4.916987   -1.922948
     26          1           0        1.336950    5.252985   -0.212948
     27          1           0        2.983949    5.441998   -0.881948
     28          6           0        4.254031   -4.774992    0.543052
     29          1           0        3.791034   -5.150996    1.456052
     30          1           0        3.852035   -5.332995   -0.301948
     31          1           0        5.333032   -4.880983    0.591052
     32          6           0       -0.870011    0.444967    0.144052
     33          6           0       -1.548020    1.518961    0.686052
     34         16           0       -2.010001   -0.802042   -0.349948
     35          6           0       -2.942018    1.346950    0.713052
     36          1           0       -1.051027    2.400965    1.052052
     37          6           0       -3.386009    0.136947    0.173052
     38          8           0       -3.856025    2.226943    1.198052
     39          6           0       -4.740005   -0.313064    0.024052
     40          6           0       -3.389036    3.501947    1.633052
     41          6           0       -5.178995   -1.528068   -0.496948
     42         16           0       -6.132013    0.654925    0.496052
     43          1           0       -4.278040    4.062939    1.916052
     44          1           0       -2.731035    3.402952    2.502052
     45          1           0       -2.864040    4.022951    0.827052
     46          6           0       -6.591994   -1.676079   -0.515948
     47          8           0       -4.265988   -2.434060   -0.927948
     48          6           0       -7.228003   -0.576084   -0.009948
     49          1           0       -7.112987   -2.549083   -0.881948
     50          6           0       -4.736978   -3.678064   -1.438948
     51          1           0       -8.291004   -0.420093    0.096052
     52          1           0       -5.361979   -3.527069   -2.324948
     53          1           0       -3.847973   -4.243057   -1.711948
     54          1           0       -5.298973   -4.228069   -0.676948
 ---------------------------------------------------------------------

 SCF Done:  E(RHF) =  -2348.40343214     A.U. after   19 cycles
 E2 =    -0.5325808789D+01 EUMP2 =    -0.23537292409313D+04

 The electronic state is 1-A.
 Alpha  occ. eigenvalues --  -91.99030 -91.98837 -20.60611 -20.60147 -20.56833
 Alpha  occ. eigenvalues --  -20.56811 -20.56198 -20.56178 -15.63909 -15.63499
 Alpha  occ. eigenvalues --  -11.39968 -11.39729 -11.39662 -11.39309 -11.31607
 Alpha  occ. eigenvalues --  -11.31518 -11.30913 -11.30225 -11.30065 -11.29855
 Alpha  occ. eigenvalues --  -11.29408 -11.29386 -11.29184 -11.29154 -11.28767
 Alpha  occ. eigenvalues --  -11.28562 -11.28370 -11.28314 -11.28311 -11.28100
 Alpha  occ. eigenvalues --  -11.27937 -11.27419 -11.27344 -11.27117 -11.25640
 Alpha  occ. eigenvalues --  -11.25137  -8.99120  -8.98920  -6.67272  -6.67181
 Alpha  occ. eigenvalues --   -6.67076  -6.66988  -6.66981  -6.66793  -1.43437
 Alpha  occ. eigenvalues --   -1.43056  -1.42590  -1.42121  -1.41480  -1.40996
 Alpha  occ. eigenvalues --   -1.27517  -1.26981  -1.22976  -1.19295  -1.17429
 Alpha  occ. eigenvalues --   -1.15424  -1.12641  -1.07820  -1.05767  -1.04010
 Alpha  occ. eigenvalues --   -1.00965  -1.00093  -0.99716  -0.97662  -0.96879
 Alpha  occ. eigenvalues --   -0.96519  -0.93936  -0.92444  -0.89865  -0.88741
 Alpha  occ. eigenvalues --   -0.88379  -0.86554  -0.81894  -0.79918  -0.78774
 Alpha  occ. eigenvalues --   -0.77879  -0.76352  -0.74899  -0.74565  -0.72881
 Alpha  occ. eigenvalues --   -0.72059  -0.70501  -0.69269  -0.67928  -0.67393
 Alpha  occ. eigenvalues --   -0.66963  -0.66642  -0.66397  -0.66173  -0.65821
 Alpha  occ. eigenvalues --   -0.65304  -0.64954  -0.64253  -0.63867  -0.63633
 Alpha  occ. eigenvalues --   -0.62596  -0.61690  -0.61273  -0.59872  -0.59373
 Alpha  occ. eigenvalues --   -0.59111  -0.57390  -0.57056  -0.56850  -0.56699
 Alpha  occ. eigenvalues --   -0.56464  -0.56439  -0.56185  -0.55626  -0.55570
 Alpha  occ. eigenvalues --   -0.53845  -0.53247  -0.53145  -0.52144  -0.51433
 Alpha  occ. eigenvalues --   -0.51126  -0.49521  -0.48423  -0.48089  -0.47133
 Alpha  occ. eigenvalues --   -0.46601  -0.46306  -0.45912  -0.45668  -0.44930
 Alpha  occ. eigenvalues --   -0.42888  -0.41827  -0.41228  -0.38991  -0.35063
 Alpha  occ. eigenvalues --   -0.34067  -0.33753  -0.32975  -0.25200
 Alpha virt. eigenvalues --   -0.01968   0.02936   0.03207   0.03536   0.04104
 Alpha virt. eigenvalues --    0.04190   0.04384   0.04888   0.05151   0.05328
 Alpha virt. eigenvalues --    0.05568   0.05714   0.06030   0.06402   0.06650

 Mulliken charges:
               1
     1  C    0.121205
     2  C    0.607540
     3  C   -0.511393
     4  C    1.678299
     5  C    0.050446
     6  C    0.821728
     7  C   -0.314233
     8  C    1.138200
     9  C    1.013486
    10  C    0.038825
    11  C   -0.123911
    12  C    1.367547
    13  C    0.339587
    14  C    0.231672
    15  H   -0.634331
    16  H   -0.685824
    17  H   -0.715826
    18  N   -0.965034
    19  N   -0.966456
    20  O   -0.860878
    21  O   -0.889207
    22  O   -0.901015
    23  O   -0.820033
    24  C    0.668719
    25  H   -0.031371
    26  H   -0.043545
    27  H   -0.232765
    28  C    0.664217
    29  H   -0.016347
    30  H   -0.018220
    31  H   -0.223589
    32  C    0.803740
    33  C    0.504903
    34  S    0.366142
    35  C   -0.307290
    36  H   -0.763928
    37  C   -0.086643
    38  O   -1.100447
    39  C    1.147447
    40  C    0.940274
    41  C   -0.266334
    42  S    0.374759
    43  H   -0.349523
    44  H   -0.084298
    45  H   -0.029291
    46  C    1.051900
    47  O   -1.127085
    48  C   -0.260443
    49  H   -0.637944
    50  C    0.910825
    51  H   -0.429874
    52  H   -0.056177
    53  H   -0.330913
    54  H   -0.057292
 Sum of Mulliken charges =  -0.00000

 Dipole moment (field-independent basis, Debye):
    X=             -3.1802    Y=             -0.4914    Z=              0.2950  Tot=              3.2314
 Quadrupole moment (field-independent basis, Debye-Ang):
   XX=           -217.1216   YY=           -214.2947   ZZ=           -222.6472
   XY=              6.2771   XZ=              2.4250   YZ=             12.4650

 Normal termination of Gaussian 16 at Thu Dec 10 17:51:40 2020.
