 Gaussian 16, Revision C.01,
 Gaussian 16:  ES64L-G16RevC.01  3-Jul-2019

 -------------------------------
 # mp2/aug-cc-pvdz MaxDisk=400GB
 -------------------------------

 -----------------
 NDI_-50_b3lyp.pdb
 -----------------
 Symbolic Z-matrix:
 Charge =  0 Multiplicity = 1

                         Standard orientation:
 ---------------------------------------------------------------------
 Center     Atomic      Atomic             Coordinates (Angstroms)
 Number     Number       Type             X           Y           Z
 ---------------------------------------------------------------------
      1          6           0        2.656058   -2.955999    0.523966
      2          6           0        2.302055   -1.528999    0.298966
      3          6           0        3.315053   -0.564997    0.091966
      4          6           0        4.674054   -0.941995    0.093966
      5          6           0        5.063057   -2.358994    0.328966
      6          6           0        0.985054   -1.151002    0.310966
      7          6           0        2.937051    0.788002   -0.133034
      8          6           0        1.562050    1.172999   -0.119034
      9          6           0        0.567052    0.201997    0.140966
     10          6           0        1.233047    2.584999   -0.455034
     11          6           0        3.659046    3.142003   -0.672034
     12          6           0        3.972049    1.725004   -0.380034
     13          6           0        5.303050    1.334007   -0.372034
     14          6           0        5.661052    0.004007   -0.131034
     15          1           0        6.698053   -0.305991   -0.126034
     16          1           0        6.057048    2.087008   -0.564034
     17          1           0        0.241056   -1.913003    0.501966
     18          7           0        2.301045    3.462001   -0.730034
     19          7           0        4.018059   -3.275996    0.525966
     20          8           0        1.819060   -3.823000    0.699966
     21          8           0        6.227058   -2.713992    0.348966
     22          8           0        4.524044    3.978005   -0.867034
     23          8           0        0.100046    3.025996   -0.523034
     24          6           0        1.926043    4.842000   -1.070034
     25          1           0        1.249043    4.835999   -1.924034
     26          1           0        1.414042    5.308999   -0.228034
     27          1           0        2.837042    5.384002   -1.304034
     28          6           0        4.355061   -4.688995    0.754966
     29          1           0        3.965062   -5.007996    1.721966
     30          1           0        3.901063   -5.305996   -0.020034
     31          1           0        5.436062   -4.781993    0.730966
     32          6           0       -0.873949    0.435995    0.254966
     33          6           0       -1.561950    1.365993    1.001966
     34         16           0       -1.981946   -0.721008   -0.459034
     35          6           0       -2.956950    1.168990    0.987966
     36          1           0       -1.072952    2.165994    1.531966
     37          6           0       -3.377948    0.079990    0.224966
     38          8           0       -3.885952    1.926989    1.628966
     39          6           0       -4.725947   -0.346013   -0.033034
     40          6           0       -3.443954    3.116990    2.276966
     41          6           0       -5.141945   -1.451014   -0.768034
     42         16           0       -6.135949    0.516984    0.569966
     43          1           0       -4.341955    3.600988    2.655966
     44          1           0       -2.776953    2.883991    3.113966
     45          1           0       -2.934955    3.781991    1.571966
     46          6           0       -6.552945   -1.601017   -0.846034
     47          8           0       -4.209943   -2.263012   -1.332034
     48          6           0       -7.209947   -0.610018   -0.171034
     49          1           0       -7.056943   -2.399018   -1.372034
     50          6           0       -4.660941   -3.404013   -2.056034
     51          1           0       -8.276947   -0.483020   -0.062034
     52          1           0       -5.270942   -3.108014   -2.916034
     53          1           0       -3.762940   -3.910011   -2.405034
     54          1           0       -5.231940   -4.079014   -1.411034
 ---------------------------------------------------------------------

 SCF Done:  E(RHF) =  -2348.40569508     A.U. after   22 cycles
 E2 =    -0.5323302915D+01 EUMP2 =    -0.23537289979985D+04

 The electronic state is 1-A.
 Alpha  occ. eigenvalues --  -91.98834 -91.98561 -20.60333 -20.59965 -20.56907
 Alpha  occ. eigenvalues --  -20.56892 -20.56368 -20.56351 -15.64016 -15.63617
 Alpha  occ. eigenvalues --  -11.40071 -11.39821 -11.39767 -11.39491 -11.31410
 Alpha  occ. eigenvalues --  -11.31196 -11.30735 -11.30199 -11.30046 -11.29745
 Alpha  occ. eigenvalues --  -11.29732 -11.29628 -11.29331 -11.29294 -11.29024
 Alpha  occ. eigenvalues --  -11.28510 -11.28451 -11.28364 -11.28238 -11.28024
 Alpha  occ. eigenvalues --  -11.27598 -11.27420 -11.27182 -11.27144 -11.25360
 Alpha  occ. eigenvalues --  -11.24892  -8.98915  -8.98648  -6.67069  -6.66977
 Alpha  occ. eigenvalues --   -6.66805  -6.66784  -6.66710  -6.66521  -1.43499
 Alpha  occ. eigenvalues --   -1.43222  -1.42255  -1.41890  -1.41529  -1.41191
 Alpha  occ. eigenvalues --   -1.27626  -1.27086  -1.23152  -1.19142  -1.17300
 Alpha  occ. eigenvalues --   -1.15425  -1.12802  -1.07794  -1.05902  -1.03832
 Alpha  occ. eigenvalues --   -1.00778  -1.00189  -0.99467  -0.97486  -0.96927
 Alpha  occ. eigenvalues --   -0.96475  -0.93768  -0.92344  -0.89966  -0.88876
 Alpha  occ. eigenvalues --   -0.88425  -0.86652  -0.81704  -0.79765  -0.78812
 Alpha  occ. eigenvalues --   -0.77957  -0.76257  -0.74753  -0.74483  -0.72680
 Alpha  occ. eigenvalues --   -0.72153  -0.70572  -0.69356  -0.67980  -0.67338
 Alpha  occ. eigenvalues --   -0.66901  -0.66500  -0.66413  -0.65987  -0.65911
 Alpha  occ. eigenvalues --   -0.65249  -0.64836  -0.64402  -0.63901  -0.63739
 Alpha  occ. eigenvalues --   -0.62532  -0.61694  -0.61132  -0.60091  -0.59290
 Alpha  occ. eigenvalues --   -0.59254  -0.57378  -0.56854  -0.56834  -0.56761
 Alpha  occ. eigenvalues --   -0.56509  -0.56454  -0.55949  -0.55802  -0.55606
 Alpha  occ. eigenvalues --   -0.53823  -0.53333  -0.53011  -0.51855  -0.51425
 Alpha  occ. eigenvalues --   -0.50911  -0.49081  -0.48188  -0.48151  -0.47166
 Alpha  occ. eigenvalues --   -0.46545  -0.46410  -0.45977  -0.45666  -0.45031
 Alpha  occ. eigenvalues --   -0.42991  -0.41915  -0.41343  -0.38538  -0.35207
 Alpha  occ. eigenvalues --   -0.33856  -0.33620  -0.33102  -0.25276
 Alpha virt. eigenvalues --   -0.01899   0.02994   0.03213   0.03518   0.04089
 Alpha virt. eigenvalues --    0.04144   0.04555   0.04828   0.05299   0.05367
 Alpha virt. eigenvalues --    0.05684   0.05735   0.06079   0.06215   0.06573

 Mulliken charges:
               1
     1  C    0.082621
     2  C    0.698107
     3  C   -0.469317
     4  C    1.697672
     5  C   -0.017379
     6  C    0.724694
     7  C   -0.499837
     8  C    1.223916
     9  C    1.126383
    10  C   -0.222738
    11  C   -0.066199
    12  C    1.469760
    13  C    0.329986
    14  C    0.266593
    15  H   -0.639738
    16  H   -0.680186
    17  H   -0.751551
    18  N   -0.990181
    19  N   -0.957244
    20  O   -0.860856
    21  O   -0.893820
    22  O   -0.908395
    23  O   -0.782348
    24  C    0.685853
    25  H   -0.033704
    26  H   -0.027449
    27  H   -0.234102
    28  C    0.666180
    29  H   -0.016094
    30  H   -0.019965
    31  H   -0.226620
    32  C    1.035376
    33  C    0.458961
    34  S    0.337399
    35  C   -0.392541
    36  H   -0.768622
    37  C   -0.144447
    38  O   -1.081977
    39  C    1.193869
    40  C    0.966012
    41  C   -0.227676
    42  S    0.377976
    43  H   -0.346831
    44  H   -0.095606
    45  H   -0.026057
    46  C    1.041911
    47  O   -1.133683
    48  C   -0.268531
    49  H   -0.636434
    50  C    0.911119
    51  H   -0.425993
    52  H   -0.056856
    53  H   -0.330878
    54  H   -0.060535
 Sum of Mulliken charges =  -0.00000

 Dipole moment (field-independent basis, Debye):
    X=             -2.4002    Y=             -0.3560    Z=              0.0702  Tot=              2.4275
 Quadrupole moment (field-independent basis, Debye-Ang):
   XX=           -219.3108   YY=           -218.2976   ZZ=           -217.8531
   XY=              5.4492   XZ=              5.9433   YZ=             15.9486

 Normal termination of Gaussian 16 at Thu Dec 10 17:51:43 2020.
