 Gaussian 16, Revision C.01,
 Gaussian 16:  ES64L-G16RevC.01  3-Jul-2019

 -------------------------------
 # mp2/aug-cc-pvdz MaxDisk=400GB
 -------------------------------

 -----------------
 NDI_-40_b3lyp.pdb
 -----------------
 Symbolic Z-matrix:
 Charge =  0 Multiplicity = 1

                         Standard orientation:
 ---------------------------------------------------------------------
 Center     Atomic      Atomic             Coordinates (Angstroms)
 Number     Number       Type             X           Y           Z
 ---------------------------------------------------------------------
      1          6           0        2.631060   -2.983962    0.417000
      2          6           0        2.290061   -1.549962    0.225000
      3          6           0        3.312063   -0.582963    0.084000
      4          6           0        4.669062   -0.963965    0.128000
      5          6           0        5.046060   -2.388965    0.333000
      6          6           0        0.975062   -1.165960    0.213000
      7          6           0        2.944064    0.777037   -0.118000
      8          6           0        1.570065    1.165039   -0.152000
      9          6           0        0.563064    0.192040    0.065000
     10          6           0        1.262067    2.573039   -0.523000
     11          6           0        3.693067    3.145036   -0.539000
     12          6           0        3.991066    1.718036   -0.286000
     13          6           0        5.320065    1.324034   -0.232000
     14          6           0        5.666063   -0.013966   -0.023000
     15          1           0        6.702063   -0.326967    0.016000
     16          1           0        6.082066    2.082033   -0.361000
     17          1           0        0.228061   -1.932959    0.370000
     18          7           0        2.341068    3.466038   -0.671000
     19          7           0        3.991059   -3.308964    0.460000
     20          8           0        1.786059   -3.852961    0.535000
     21          8           0        6.206060   -2.748967    0.386000
     22          8           0        4.566068    3.989035   -0.647000
     23          8           0        0.138067    2.999041   -0.724000
     24          6           0        1.985070    4.850039   -1.013000
     25          1           0        1.442070    4.868039   -1.958000
     26          1           0        1.342070    5.270039   -0.240000
     27          1           0        2.906070    5.419037   -1.090000
     28          6           0        4.317057   -4.728964    0.655000
     29          1           0        3.889057   -5.077964    1.596000
     30          1           0        3.891057   -5.318964   -0.157000
     31          1           0        5.397057   -4.824966    0.669000
     32          6           0       -0.870936    0.432042    0.196000
     33          6           0       -1.548935    1.442043    0.845000
     34         16           0       -1.999938   -0.771956   -0.407000
     35          6           0       -2.943935    1.261045    0.855000
     36          1           0       -1.051934    2.285042    1.294000
     37          6           0       -3.381936    0.107045    0.202000
     38          8           0       -3.861934    2.087046    1.422000
     39          6           0       -4.734937   -0.328953    0.000000
     40          6           0       -3.403932    3.325045    1.959000
     41          6           0       -5.166938   -1.492952   -0.628000
     42         16           0       -6.131936    0.594049    0.540000
     43          1           0       -4.294932    3.854046    2.293000
     44          1           0       -2.738933    3.161044    2.813000
     45          1           0       -2.887932    3.916045    1.196000
     46          6           0       -6.579939   -1.638951   -0.675000
     47          8           0       -4.247940   -2.358954   -1.127000
     48          6           0       -7.221937   -0.586950   -0.083000
     49          1           0       -7.095940   -2.476950   -1.122000
     50          6           0       -4.713941   -3.555953   -1.745000
     51          1           0       -8.285937   -0.441949    0.026000
     52          1           0       -5.330941   -3.331952   -2.621000
     53          1           0       -3.822942   -4.095954   -2.058000
     54          1           0       -5.281942   -4.167952   -1.037000
 ---------------------------------------------------------------------

 SCF Done:  E(RHF) =  -2348.40487604     A.U. after   23 cycles
 E2 =    -0.5324446140D+01 EUMP2 =    -0.23537293221849D+04

 The electronic state is 1-A.
 Alpha  occ. eigenvalues --  -91.98933 -91.98687 -20.60464 -20.60054 -20.56890
 Alpha  occ. eigenvalues --  -20.56845 -20.56264 -20.56260 -15.63951 -15.63565
 Alpha  occ. eigenvalues --  -11.40020 -11.39769 -11.39713 -11.39405 -11.31443
 Alpha  occ. eigenvalues --  -11.31387 -11.30828 -11.30135 -11.30132 -11.29795
 Alpha  occ. eigenvalues --  -11.29574 -11.29515 -11.29259 -11.29232 -11.28892
 Alpha  occ. eigenvalues --  -11.28412 -11.28406 -11.28290 -11.28255 -11.28236
 Alpha  occ. eigenvalues --  -11.27748 -11.27379 -11.27287 -11.27115 -11.25510
 Alpha  occ. eigenvalues --  -11.25009  -8.99016  -8.98775  -6.67169  -6.67078
 Alpha  occ. eigenvalues --   -6.66932  -6.66885  -6.66837  -6.66648  -1.43499
 Alpha  occ. eigenvalues --   -1.43127  -1.42390  -1.42019  -1.41541  -1.41076
 Alpha  occ. eigenvalues --   -1.27566  -1.27042  -1.23065  -1.19219  -1.17374
 Alpha  occ. eigenvalues --   -1.15431  -1.12726  -1.07813  -1.05836  -1.03923
 Alpha  occ. eigenvalues --   -1.00867  -1.00141  -0.99590  -0.97572  -0.96907
 Alpha  occ. eigenvalues --   -0.96500  -0.93851  -0.92398  -0.89916  -0.88802
 Alpha  occ. eigenvalues --   -0.88403  -0.86603  -0.81804  -0.79840  -0.78790
 Alpha  occ. eigenvalues --   -0.77920  -0.76305  -0.74800  -0.74549  -0.72761
 Alpha  occ. eigenvalues --   -0.72122  -0.70538  -0.69306  -0.67955  -0.67358
 Alpha  occ. eigenvalues --   -0.66946  -0.66515  -0.66449  -0.66078  -0.65871
 Alpha  occ. eigenvalues --   -0.65280  -0.64894  -0.64335  -0.63885  -0.63680
 Alpha  occ. eigenvalues --   -0.62580  -0.61693  -0.61208  -0.59988  -0.59330
 Alpha  occ. eigenvalues --   -0.59175  -0.57389  -0.56934  -0.56846  -0.56745
 Alpha  occ. eigenvalues --   -0.56503  -0.56455  -0.56063  -0.55708  -0.55599
 Alpha  occ. eigenvalues --   -0.53824  -0.53289  -0.53092  -0.51990  -0.51446
 Alpha  occ. eigenvalues --   -0.51017  -0.49298  -0.48308  -0.48131  -0.47139
 Alpha  occ. eigenvalues --   -0.46572  -0.46358  -0.45950  -0.45671  -0.44979
 Alpha  occ. eigenvalues --   -0.42941  -0.41864  -0.41281  -0.38778  -0.35113
 Alpha  occ. eigenvalues --   -0.33946  -0.33695  -0.33039  -0.25232
 Alpha virt. eigenvalues --   -0.01938   0.02969   0.03203   0.03524   0.04100
 Alpha virt. eigenvalues --    0.04170   0.04487   0.04856   0.05243   0.05320
 Alpha virt. eigenvalues --    0.05619   0.05728   0.06054   0.06311   0.06604

 Mulliken charges:
               1
     1  C    0.108030
     2  C    0.636460
     3  C   -0.464915
     4  C    1.684707
     5  C    0.004135
     6  C    0.772440
     7  C   -0.420537
     8  C    1.202547
     9  C    1.071275
    10  C   -0.082716
    11  C   -0.087952
    12  C    1.412477
    13  C    0.345475
    14  C    0.244807
    15  H   -0.636598
    16  H   -0.683221
    17  H   -0.736894
    18  N   -0.977583
    19  N   -0.961904
    20  O   -0.860045
    21  O   -0.889968
    22  O   -0.905897
    23  O   -0.803176
    24  C    0.675027
    25  H   -0.030764
    26  H   -0.036054
    27  H   -0.235235
    28  C    0.662837
    29  H   -0.013905
    30  H   -0.016467
    31  H   -0.228371
    32  C    0.944620
    33  C    0.435074
    34  S    0.343933
    35  C   -0.316959
    36  H   -0.763145
    37  C   -0.148213
    38  O   -1.089862
    39  C    1.186801
    40  C    0.951738
    41  C   -0.257295
    42  S    0.380469
    43  H   -0.346969
    44  H   -0.093148
    45  H   -0.026611
    46  C    1.043704
    47  O   -1.129639
    48  C   -0.262543
    49  H   -0.636104
    50  C    0.913148
    51  H   -0.428672
    52  H   -0.057373
    53  H   -0.332143
    54  H   -0.058828
 Sum of Mulliken charges =  -0.00000

 Dipole moment (field-independent basis, Debye):
    X=             -2.7667    Y=             -0.4210    Z=              0.1927  Tot=              2.8052
 Quadrupole moment (field-independent basis, Debye-Ang):
   XX=           -218.0844   YY=           -216.2162   ZZ=           -220.3648
   XY=              5.8779   XZ=              4.1692   YZ=             14.4349

 Normal termination of Gaussian 16 at Thu Dec 10 16:37:27 2020.
