 Gaussian 16, Revision C.01,
 Gaussian 16:  ES64L-G16RevC.01  3-Jul-2019

 -------------------------------
 # mp2/aug-cc-pvdz MaxDisk=400GB
 -------------------------------

 ----------------
 NDI_30_b3lyp.pdb
 ----------------
 Symbolic Z-matrix:
 Charge =  0 Multiplicity = 1

                         Standard orientation:
 ---------------------------------------------------------------------
 Center     Atomic      Atomic             Coordinates (Angstroms)
 Number     Number       Type             X           Y           Z
 ---------------------------------------------------------------------
      1          6           0       -2.590949   -3.007143    0.307996
      2          6           0       -2.269977   -1.564137    0.151996
      3          6           0       -3.304996   -0.603157    0.074996
      4          6           0       -4.654988   -0.998183    0.153996
      5          6           0       -5.011960   -2.432190    0.323996
      6          6           0       -0.959985   -1.167112    0.120996
      7          6           0       -2.953022    0.763849   -0.098004
      8          6           0       -1.584030    1.165876   -0.170004
      9          6           0       -0.559011    0.198896   -0.001004
     10          6           0       -1.308057    2.576881   -0.551004
     11          6           0       -3.737068    3.138834   -0.403004
     12          6           0       -4.013040    1.701829   -0.193004
     13          6           0       -5.337033    1.294803   -0.100004
     14          6           0       -5.665006   -0.052203    0.072996
     15          1           0       -6.696000   -0.375223    0.139996
     16          1           0       -6.108047    2.050788   -0.171004
     17          1           0       -0.206970   -1.935097    0.240996
     18          7           0       -2.395075    3.471860   -0.594004
     19          7           0       -3.946943   -3.346170    0.383996
     20          8           0       -1.735932   -3.871127    0.370996
     21          8           0       -6.166953   -2.805213    0.404996
     22          8           0       -4.618085    3.980817   -0.434004
     23          8           0       -0.206066    3.005903   -0.849004
     24          6           0       -2.066102    4.865867   -0.926004
     25          1           0       -1.338109    5.253881   -0.213004
     26          1           0       -1.628103    4.916875   -1.924004
     27          1           0       -2.985113    5.440849   -0.883004
     28          6           0       -4.252915   -4.775176    0.541996
     29          1           0       -3.841904   -5.334168   -0.299004
     30          1           0       -3.798908   -5.150167    1.459996
     31          1           0       -5.332913   -4.883197    0.579996
     32          6           0        0.869984    0.444924    0.143996
     33          6           0        1.547963    1.518937    0.685996
     34         16           0        2.010008   -0.802054   -0.350004
     35          6           0        2.941966    1.346964    0.712996
     36          1           0        1.050946    2.400927    1.051996
     37          6           0        3.385990    0.136972    0.172996
     38          8           0        3.855949    2.226981    1.197996
     39          6           0        4.739999   -0.313001    0.023996
     40          6           0        3.389925    3.502972    1.630996
     41          6           0        5.179022   -1.526993   -0.497004
     42         16           0        6.131980    0.655026    0.496996
     43          1           0        4.278914    4.063990    1.912996
     44          1           0        2.863915    4.021962    0.823996
     45          1           0        2.730927    3.404960    2.499996
     46          6           0        6.592025   -1.675966   -0.516004
     47          8           0        4.266040   -2.433011   -0.929004
     48          6           0        7.228004   -0.575953   -0.010004
     49          1           0        7.112042   -2.548955   -0.883004
     50          6           0        4.737064   -3.678001   -1.438004
     51          1           0        8.291001   -0.420933    0.095996
     52          1           0        5.298074   -4.226991   -0.676004
     53          1           0        3.848075   -4.243019   -1.712004
     54          1           0        5.362061   -3.528989   -2.324004
 ---------------------------------------------------------------------

 SCF Done:  E(RHF) =  -2348.40348419     A.U. after   19 cycles
 E2 =    -0.5325712165D+01 EUMP2 =    -0.23537291963528D+04

 The electronic state is 1-A.
 Alpha  occ. eigenvalues --  -91.99037 -91.98840 -20.60607 -20.60146 -20.56831
 Alpha  occ. eigenvalues --  -20.56802 -20.56215 -20.56180 -15.63900 -15.63497
 Alpha  occ. eigenvalues --  -11.39944 -11.39734 -11.39676 -11.39311 -11.31600
 Alpha  occ. eigenvalues --  -11.31521 -11.30919 -11.30215 -11.30066 -11.29865
 Alpha  occ. eigenvalues --  -11.29407 -11.29378 -11.29181 -11.29150 -11.28767
 Alpha  occ. eigenvalues --  -11.28567 -11.28384 -11.28317 -11.28307 -11.28098
 Alpha  occ. eigenvalues --  -11.27943 -11.27416 -11.27352 -11.27125 -11.25644
 Alpha  occ. eigenvalues --  -11.25140  -8.99127  -8.98922  -6.67279  -6.67187
 Alpha  occ. eigenvalues --   -6.67078  -6.66995  -6.66983  -6.66795  -1.43449
 Alpha  occ. eigenvalues --   -1.43053  -1.42572  -1.42122  -1.41495  -1.41000
 Alpha  occ. eigenvalues --   -1.27512  -1.26968  -1.22979  -1.19300  -1.17432
 Alpha  occ. eigenvalues --   -1.15425  -1.12639  -1.07821  -1.05772  -1.04016
 Alpha  occ. eigenvalues --   -1.00968  -1.00088  -0.99718  -0.97664  -0.96863
 Alpha  occ. eigenvalues --   -0.96516  -0.93939  -0.92446  -0.89857  -0.88742
 Alpha  occ. eigenvalues --   -0.88380  -0.86544  -0.81899  -0.79925  -0.78774
 Alpha  occ. eigenvalues --   -0.77881  -0.76355  -0.74898  -0.74568  -0.72887
 Alpha  occ. eigenvalues --   -0.72054  -0.70500  -0.69275  -0.67928  -0.67387
 Alpha  occ. eigenvalues --   -0.66961  -0.66642  -0.66389  -0.66167  -0.65818
 Alpha  occ. eigenvalues --   -0.65302  -0.64958  -0.64256  -0.63869  -0.63634
 Alpha  occ. eigenvalues --   -0.62605  -0.61693  -0.61269  -0.59875  -0.59367
 Alpha  occ. eigenvalues --   -0.59105  -0.57394  -0.57067  -0.56850  -0.56687
 Alpha  occ. eigenvalues --   -0.56447  -0.56436  -0.56193  -0.55630  -0.55566
 Alpha  occ. eigenvalues --   -0.53843  -0.53244  -0.53142  -0.52146  -0.51437
 Alpha  occ. eigenvalues --   -0.51127  -0.49518  -0.48423  -0.48092  -0.47136
 Alpha  occ. eigenvalues --   -0.46607  -0.46309  -0.45914  -0.45669  -0.44932
 Alpha  occ. eigenvalues --   -0.42886  -0.41821  -0.41220  -0.38993  -0.35066
 Alpha  occ. eigenvalues --   -0.34073  -0.33760  -0.32984  -0.25212
 Alpha virt. eigenvalues --   -0.01960   0.02934   0.03207   0.03536   0.04103
 Alpha virt. eigenvalues --    0.04191   0.04382   0.04889   0.05150   0.05328
 Alpha virt. eigenvalues --    0.05566   0.05713   0.06029   0.06402   0.06643

 Mulliken charges:
               1
     1  C    0.119645
     2  C    0.609822
     3  C   -0.506016
     4  C    1.677014
     5  C    0.050838
     6  C    0.819867
     7  C   -0.318355
     8  C    1.140785
     9  C    1.010234
    10  C    0.044160
    11  C   -0.130803
    12  C    1.369235
    13  C    0.340733
    14  C    0.232596
    15  H   -0.634218
    16  H   -0.686212
    17  H   -0.716483
    18  N   -0.965445
    19  N   -0.967008
    20  O   -0.859913
    21  O   -0.889707
    22  O   -0.900595
    23  O   -0.819386
    24  C    0.665597
    25  H   -0.042364
    26  H   -0.027433
    27  H   -0.235600
    28  C    0.660271
    29  H   -0.017293
    30  H   -0.016078
    31  H   -0.221620
    32  C    0.805037
    33  C    0.504803
    34  S    0.366814
    35  C   -0.307952
    36  H   -0.763873
    37  C   -0.089166
    38  O   -1.100350
    39  C    1.151305
    40  C    0.938134
    41  C   -0.267056
    42  S    0.374701
    43  H   -0.350097
    44  H   -0.028180
    45  H   -0.082750
    46  C    1.049837
    47  O   -1.127235
    48  C   -0.259098
    49  H   -0.637730
    50  C    0.914670
    51  H   -0.429821
    52  H   -0.060324
    53  H   -0.329760
    54  H   -0.058177
 Sum of Mulliken charges =  -0.00000

 Dipole moment (field-independent basis, Debye):
    X=              3.2002    Y=             -0.4941    Z=              0.2887  Tot=              3.2510
 Quadrupole moment (field-independent basis, Debye-Ang):
   XX=           -217.1957   YY=           -214.2975   ZZ=           -222.6669
   XY=             -6.3143   XZ=             -2.3986   YZ=             12.4814

 Normal termination of Gaussian 16 at Tue Dec 15 05:10:45 2020.
