 Gaussian 16, Revision C.01,
 Gaussian 16:  ES64L-G16RevC.01  3-Jul-2019

 -------------------------------
 # mp2/aug-cc-pvdz MaxDisk=400GB
 -------------------------------

 ----------------
 NDI_20_b3lyp.pdb
 ----------------
 Symbolic Z-matrix:
 Charge =  0 Multiplicity = 1

                         Standard orientation:
 ---------------------------------------------------------------------
 Center     Atomic      Atomic             Coordinates (Angstroms)
 Number     Number       Type             X           Y           Z
 ---------------------------------------------------------------------
      1          6           0        2.534014   -3.025951   -0.188989
      2          6           0        2.241007   -1.572953   -0.074989
      3          6           0        3.292003   -0.626948   -0.063989
      4          6           0        4.632005   -1.045942   -0.173989
      5          6           0        4.962011   -2.490940   -0.302989
      6          6           0        0.940005   -1.152958   -0.025989
      7          6           0        2.964997    0.750051    0.074011
      8          6           0        1.603995    1.176045    0.180011
      9          6           0        0.555999    0.222040    0.065011
     10          6           0        1.372988    2.597043    0.550011
     11          6           0        3.793986    3.122054    0.255011
     12          6           0        4.040992    1.673056    0.093011
     13          6           0        5.354994    1.243061   -0.032989
     14          6           0        5.659001   -0.113937   -0.164989
     15          1           0        6.682002   -0.455933   -0.255989
     16          1           0        6.138991    1.990065   -0.020989
     17          1           0        0.178009   -1.917962   -0.099989
     18          7           0        2.466984    3.481048    0.494011
     19          7           0        3.881015   -3.389945   -0.293989
     20          8           0        1.663017   -3.876955   -0.192989
     21          8           0        6.107013   -2.886935   -0.406989
     22          8           0        4.685982    3.952058    0.211011
     23          8           0        0.299986    3.044039    0.921011
     24          6           0        2.173978    4.888047    0.800011
     25          1           0        1.388976    5.253044    0.138011
     26          1           0        1.824978    4.982046    1.829011
     27          1           0        3.088975    5.455051    0.657011
     28          6           0        4.160022   -4.827944   -0.408989
     29          1           0        3.766024   -5.349946    0.464011
     30          1           0        3.673024   -5.227946   -1.297989
     31          1           0        5.236022   -4.954939   -0.475989
     32          6           0       -0.870002    0.478033   -0.085989
     33          6           0       -1.556007    1.601030   -0.512989
     34         16           0       -2.013996   -0.809972    0.291011
     35          6           0       -2.948006    1.429024   -0.556989
     36          1           0       -1.066011    2.518033   -0.785989
     37          6           0       -3.390001    0.170022   -0.138989
     38          8           0       -3.864011    2.351020   -0.948989
     39          6           0       -4.742999   -0.296984   -0.042989
     40          6           0       -3.397016    3.658022   -1.277989
     41          6           0       -5.179993   -1.554986    0.362011
     42         16           0       -6.136003    0.704010   -0.439989
     43          1           0       -4.287019    4.243018   -1.505989
     44          1           0       -2.865018    4.108024   -0.434989
     45          1           0       -2.745016    3.632025   -2.156989
     46          6           0       -6.592992   -1.710992    0.353011
     47          8           0       -4.265989   -2.491982    0.718011
     48          6           0       -7.228997   -0.571995   -0.057989
     49          1           0       -7.111988   -2.615995    0.634011
     50          6           0       -4.734983   -3.778984    1.113011
     51          1           0       -8.291998   -0.413000   -0.158989
     52          1           0       -5.286981   -4.261986    0.301011
     53          1           0       -3.844980   -4.361980    1.343011
     54          1           0       -5.367983   -3.709987    2.003011
 ---------------------------------------------------------------------

 SCF Done:  E(RHF) =  -2348.40187620     A.U. after   21 cycles
 E2 =    -0.5326622345D+01 EUMP2 =    -0.23537284985444D+04

 The electronic state is 1-A.
 Alpha  occ. eigenvalues --  -91.99102 -91.98968 -20.60732 -20.60221 -20.56782
 Alpha  occ. eigenvalues --  -20.56775 -20.56200 -20.56117 -15.63852 -15.63466
 Alpha  occ. eigenvalues --  -11.39909 -11.39689 -11.39648 -11.39245 -11.31785
 Alpha  occ. eigenvalues --  -11.31634 -11.30977 -11.30291 -11.29998 -11.29906
 Alpha  occ. eigenvalues --  -11.29284 -11.29258 -11.29102 -11.29062 -11.28795
 Alpha  occ. eigenvalues --  -11.28657 -11.28416 -11.28351 -11.28215 -11.28094
 Alpha  occ. eigenvalues --  -11.27983 -11.27524 -11.27301 -11.27129 -11.25689
 Alpha  occ. eigenvalues --  -11.25256  -8.99203  -8.99051  -6.67354  -6.67262
 Alpha  occ. eigenvalues --   -6.67207  -6.67112  -6.67070  -6.66923  -1.43402
 Alpha  occ. eigenvalues --   -1.43035  -1.42690  -1.42214  -1.41450  -1.40955
 Alpha  occ. eigenvalues --   -1.27462  -1.26973  -1.22904  -1.19373  -1.17498
 Alpha  occ. eigenvalues --   -1.15420  -1.12568  -1.07819  -1.05698  -1.04093
 Alpha  occ. eigenvalues --   -1.01043  -1.00059  -0.99812  -0.97754  -0.96855
 Alpha  occ. eigenvalues --   -0.96509  -0.94012  -0.92476  -0.89827  -0.88679
 Alpha  occ. eigenvalues --   -0.88369  -0.86500  -0.81960  -0.79992  -0.78759
 Alpha  occ. eigenvalues --   -0.77843  -0.76397  -0.74999  -0.74552  -0.73006
 Alpha  occ. eigenvalues --   -0.71985  -0.70467  -0.69266  -0.67948  -0.67439
 Alpha  occ. eigenvalues --   -0.66952  -0.66728  -0.66368  -0.66236  -0.65789
 Alpha  occ. eigenvalues --   -0.65316  -0.64983  -0.64200  -0.63878  -0.63614
 Alpha  occ. eigenvalues --   -0.62597  -0.61723  -0.61303  -0.59754  -0.59395
 Alpha  occ. eigenvalues --   -0.59047  -0.57389  -0.57171  -0.56887  -0.56648
 Alpha  occ. eigenvalues --   -0.56434  -0.56408  -0.56280  -0.55579  -0.55504
 Alpha  occ. eigenvalues --   -0.53873  -0.53235  -0.53147  -0.52282  -0.51408
 Alpha  occ. eigenvalues --   -0.51204  -0.49730  -0.48537  -0.48056  -0.47132
 Alpha  occ. eigenvalues --   -0.46642  -0.46249  -0.45857  -0.45654  -0.44896
 Alpha  occ. eigenvalues --   -0.42850  -0.41786  -0.41197  -0.39166  -0.35035
 Alpha  occ. eigenvalues --   -0.34194  -0.33782  -0.32947  -0.25215
 Alpha virt. eigenvalues --   -0.01953   0.02899   0.03222   0.03548   0.04104
 Alpha virt. eigenvalues --    0.04191   0.04278   0.04923   0.05114   0.05322
 Alpha virt. eigenvalues --    0.05533   0.05709   0.06010   0.06470   0.06706

 Mulliken charges:
               1
     1  C    0.111824
     2  C    0.647486
     3  C   -0.599289
     4  C    1.667740
     5  C    0.095244
     6  C    0.844375
     7  C   -0.220657
     8  C    1.052821
     9  C    0.902998
    10  C    0.149785
    11  C   -0.152349
    12  C    1.335034
    13  C    0.311759
    14  C    0.229403
    15  H   -0.631547
    16  H   -0.685876
    17  H   -0.686158
    18  N   -0.959323
    19  N   -0.967305
    20  O   -0.862196
    21  O   -0.888481
    22  O   -0.897620
    23  O   -0.838116
    24  C    0.662689
    25  H   -0.050716
    26  H   -0.028385
    27  H   -0.230872
    28  C    0.663228
    29  H   -0.015040
    30  H   -0.018674
    31  H   -0.223745
    32  C    0.700935
    33  C    0.638779
    34  S    0.436531
    35  C   -0.364666
    36  H   -0.767611
    37  C    0.007118
    38  O   -1.107627
    39  C    1.100350
    40  C    0.932729
    41  C   -0.263166
    42  S    0.361865
    43  H   -0.351549
    44  H   -0.035580
    45  H   -0.071984
    46  C    1.046540
    47  O   -1.127125
    48  C   -0.252428
    49  H   -0.638007
    50  C    0.913010
    51  H   -0.430493
    52  H   -0.058511
    53  H   -0.328963
    54  H   -0.058188
 Sum of Mulliken charges =  -0.00000

 Dipole moment (field-independent basis, Debye):
    X=             -3.5575    Y=             -0.5435    Z=             -0.3648  Tot=              3.6172
 Quadrupole moment (field-independent basis, Debye-Ang):
   XX=           -216.2627   YY=           -212.5288   ZZ=           -224.7232
   XY=              6.6398   XZ=             -0.6070   YZ=            -10.0156

 Normal termination of Gaussian 16 at Tue Dec 15 02:12:57 2020.
