 Gaussian 16, Revision C.01,
 Gaussian 16:  ES64L-G16RevC.01  3-Jul-2019

 -------------------------------
 # mp2/aug-cc-pvdz MaxDisk=400GB
 -------------------------------

 ----------------
 NDI_55_b3lyp.pdb
 ----------------
 Symbolic Z-matrix:
 Charge =  0 Multiplicity = 1

                         Standard orientation:
 ---------------------------------------------------------------------
 Center     Atomic      Atomic             Coordinates (Angstroms)
 Number     Number       Type             X           Y           Z
 ---------------------------------------------------------------------
      1          6           0       -2.668944   -2.940036    0.577030
      2          6           0       -2.308971   -1.517029    0.338030
      3          6           0       -3.315990   -0.555048    0.097030
      4          6           0       -4.674982   -0.930074    0.072030
      5          6           0       -5.071956   -2.343081    0.320030
      6          6           0       -0.989978   -1.140004    0.365030
      7          6           0       -2.932015    0.794959   -0.136970
      8          6           0       -1.558022    1.178985   -0.094970
      9          6           0       -0.570004    0.210004    0.187030
     10          6           0       -1.221049    2.594992   -0.407970
     11          6           0       -3.635059    3.139946   -0.736970
     12          6           0       -3.959033    1.728940   -0.426970
     13          6           0       -5.289025    1.338915   -0.446970
     14          6           0       -5.654000    0.012908   -0.192970
     15          1           0       -6.691994   -0.296112   -0.206970
     16          1           0       -6.038039    2.087901   -0.672970
     17          1           0       -0.248964   -1.900990    0.574030
     18          7           0       -2.277065    3.460972   -0.750970
     19          7           0       -4.031938   -3.258061    0.554030
     20          8           0       -1.838928   -3.804020    0.786030
     21          8           0       -6.235949   -2.696103    0.319030
     22          8           0       -4.493075    3.970930   -0.978970
     23          8           0       -0.089058    3.045013   -0.398970
     24          6           0       -1.892092    4.839979   -1.084970
     25          1           0       -1.457101    5.330987   -0.213970
     26          1           0       -1.147091    4.826993   -1.879970
     27          1           0       -2.787101    5.365962   -1.402970
     28          6           0       -4.375912   -4.666068    0.798030
     29          1           0       -3.899900   -5.296059    0.047030
     30          1           0       -4.013906   -4.969061    1.781030
     31          1           0       -5.455910   -4.760088    0.746030
     32          6           0        0.874992    0.439031    0.292030
     33          6           0        1.571975    1.323045    1.084030
     34         16           0        1.969013   -0.690948   -0.481970
     35          6           0        2.966979    1.117071    1.053030
     36          1           0        1.089960    2.100036    1.655030
     37          6           0        3.375999    0.065079    0.235030
     38          8           0        3.903965    1.835089    1.727030
     39          6           0        4.719007   -0.355896   -0.052970
     40          6           0        3.472943    2.997081    2.432030
     41          6           0        5.123027   -1.427888   -0.841970
     42         16           0        6.138991    0.470131    0.577030
     43          1           0        4.376935    3.456098    2.830030
     44          1           0        2.968930    3.699071    1.760030
     45          1           0        2.806948    2.732068    3.259030
     46          6           0        6.533030   -1.581862   -0.938970
     47          8           0        4.182042   -2.207906   -1.435970
     48          6           0        7.201012   -0.626849   -0.222970
     49          1           0        7.028045   -2.356852   -1.504970
     50          6           0        4.622063   -3.317898   -2.213970
     51          1           0        8.269010   -0.510829   -0.116970
     52          1           0        5.194076   -4.024887   -1.603970
     53          1           0        3.718072   -3.802915   -2.577970
     54          1           0        5.227057   -2.987886   -3.063970
 ---------------------------------------------------------------------

 SCF Done:  E(RHF) =  -2348.40601173     A.U. after   23 cycles
 E2 =    -0.5322606561D+01 EUMP2 =    -0.23537286182902D+04

 The electronic state is 1-A.
 Alpha  occ. eigenvalues --  -91.98779 -91.98494 -20.60271 -20.59928 -20.56936
 Alpha  occ. eigenvalues --  -20.56918 -20.56440 -20.56391 -15.64002 -15.63677
 Alpha  occ. eigenvalues --  -11.40089 -11.39819 -11.39812 -11.39537 -11.31363
 Alpha  occ. eigenvalues --  -11.31108 -11.30686 -11.30224 -11.30014 -11.29829
 Alpha  occ. eigenvalues --  -11.29702 -11.29679 -11.29350 -11.29315 -11.29082
 Alpha  occ. eigenvalues --  -11.28556 -11.28484 -11.28425 -11.28237 -11.27881
 Alpha  occ. eigenvalues --  -11.27516 -11.27413 -11.27177 -11.27120 -11.25284
 Alpha  occ. eigenvalues --  -11.24835  -8.98854  -8.98583  -6.67009  -6.66916
 Alpha  occ. eigenvalues --   -6.66740  -6.66722  -6.66645  -6.66457  -1.43577
 Alpha  occ. eigenvalues --   -1.43256  -1.42169  -1.41840  -1.41632  -1.41216
 Alpha  occ. eigenvalues --   -1.27642  -1.27163  -1.23199  -1.19085  -1.17260
 Alpha  occ. eigenvalues --   -1.15403  -1.12845  -1.07785  -1.05931  -1.03785
 Alpha  occ. eigenvalues --   -1.00722  -1.00212  -0.99388  -0.97435  -0.96940
 Alpha  occ. eigenvalues --   -0.96461  -0.93732  -0.92303  -0.90011  -0.88905
 Alpha  occ. eigenvalues --   -0.88437  -0.86684  -0.81657  -0.79727  -0.78814
 Alpha  occ. eigenvalues --   -0.77982  -0.76233  -0.74753  -0.74435  -0.72641
 Alpha  occ. eigenvalues --   -0.72152  -0.70591  -0.69379  -0.68020  -0.67346
 Alpha  occ. eigenvalues --   -0.66882  -0.66517  -0.66353  -0.65982  -0.65910
 Alpha  occ. eigenvalues --   -0.65241  -0.64809  -0.64437  -0.63929  -0.63769
 Alpha  occ. eigenvalues --   -0.62495  -0.61707  -0.61081  -0.60123  -0.59301
 Alpha  occ. eigenvalues --   -0.59262  -0.57389  -0.56861  -0.56837  -0.56742
 Alpha  occ. eigenvalues --   -0.56499  -0.56456  -0.55923  -0.55825  -0.55607
 Alpha  occ. eigenvalues --   -0.53832  -0.53354  -0.52964  -0.51781  -0.51413
 Alpha  occ. eigenvalues --   -0.50854  -0.48982  -0.48168  -0.48134  -0.47193
 Alpha  occ. eigenvalues --   -0.46525  -0.46425  -0.45982  -0.45653  -0.45065
 Alpha  occ. eigenvalues --   -0.43026  -0.41934  -0.41386  -0.38409  -0.35264
 Alpha  occ. eigenvalues --   -0.33817  -0.33560  -0.33123  -0.25279
 Alpha virt. eigenvalues --   -0.01867   0.03004   0.03222   0.03518   0.04080
 Alpha virt. eigenvalues --    0.04132   0.04582   0.04816   0.05288   0.05429
 Alpha virt. eigenvalues --    0.05718   0.05746   0.06091   0.06181   0.06566

 Mulliken charges:
               1
     1  C    0.060631
     2  C    0.757786
     3  C   -0.497601
     4  C    1.706549
     5  C   -0.019372
     6  C    0.683669
     7  C   -0.508832
     8  C    1.194922
     9  C    1.179023
    10  C   -0.290391
    11  C   -0.059937
    12  C    1.496383
    13  C    0.327114
    14  C    0.266573
    15  H   -0.637671
    16  H   -0.676599
    17  H   -0.755763
    18  N   -0.987491
    19  N   -0.955349
    20  O   -0.859643
    21  O   -0.894016
    22  O   -0.908469
    23  O   -0.773008
    24  C    0.696456
    25  H   -0.028261
    26  H   -0.037703
    27  H   -0.230757
    28  C    0.665392
    29  H   -0.021241
    30  H   -0.015494
    31  H   -0.228067
    32  C    1.037245
    33  C    0.498408
    34  S    0.328560
    35  C   -0.436797
    36  H   -0.772143
    37  C   -0.115647
    38  O   -1.078932
    39  C    1.185291
    40  C    0.976141
    41  C   -0.209389
    42  S    0.376369
    43  H   -0.343404
    44  H   -0.026537
    45  H   -0.101335
    46  C    1.038569
    47  O   -1.135960
    48  C   -0.267145
    49  H   -0.637880
    50  C    0.910587
    51  H   -0.426387
    52  H   -0.058799
    53  H   -0.329333
    54  H   -0.060320
 Sum of Mulliken charges =  -0.00000

 Dipole moment (field-independent basis, Debye):
    X=              2.2107    Y=             -0.3155    Z=             -0.0040  Tot=              2.2331
 Quadrupole moment (field-independent basis, Debye-Ang):
   XX=           -219.8162   YY=           -219.3722   ZZ=           -216.5508
   XY=             -5.2253   XZ=             -6.8618   YZ=             16.5651

 Normal termination of Gaussian 16 at Tue Dec 15 11:01:33 2020.
