 Gaussian 16, Revision C.01,
 Gaussian 16:  ES64L-G16RevC.01  3-Jul-2019

 -------------------------------
 # mp2/aug-cc-pvdz MaxDisk=400GB
 -------------------------------

 ------------------
 NDI_-105_b3lyp.pdb
 ------------------
 Symbolic Z-matrix:
 Charge =  0 Multiplicity = 1

                         Standard orientation:
 ---------------------------------------------------------------------
 Center     Atomic      Atomic             Coordinates (Angstroms)
 Number     Number       Type             X           Y           Z
 ---------------------------------------------------------------------
      1          6           0       -3.427999   -2.781928    0.232030
      2          6           0       -2.718985   -1.488935    0.038030
      3          6           0       -3.429973   -0.270928    0.098030
      4          6           0       -4.819973   -0.258914    0.352030
      5          6           0       -5.557986   -1.534906    0.559030
      6          6           0       -1.359985   -1.479949   -0.184970
      7          6           0       -2.730960    0.950065   -0.105970
      8          6           0       -1.331961    0.939051   -0.363970
      9          6           0       -0.634973   -0.274956   -0.367970
     10          6           0       -0.658947    2.234044   -0.684970
     11          6           0       -2.781935    3.468066   -0.242970
     12          6           0       -3.460948    2.162073   -0.041970
     13          6           0       -4.821948    2.150087    0.214030
     14          6           0       -5.504961    0.941093    0.409030
     15          1           0       -6.569961    0.928104    0.606030
     16          1           0       -5.344939    3.097092    0.259030
     17          1           0       -0.825995   -2.421954   -0.201970
     18          7           0       -1.418935    3.410052   -0.540970
     19          7           0       -4.803998   -2.716914    0.483030
     20          8           0       -2.861009   -3.856933    0.179030
     21          8           0       -6.753986   -1.559894    0.782030
     22          8           0       -3.376924    4.527072   -0.163970
     23          8           0        0.489053    2.317032   -1.069970
     24          6           0       -0.708923    4.670045   -0.808970
     25          1           0        0.205078    4.703035   -0.216970
     26          1           0       -0.438922    4.731042   -1.863970
     27          1           0       -1.370914    5.488051   -0.542970
     28          6           0       -5.491011   -4.002907    0.677030
     29          1           0       -5.380017   -4.617908   -0.215970
     30          1           0       -5.044016   -4.533911    1.518030
     31          1           0       -6.539009   -3.796896    0.870030
     32          6           0        0.826026   -0.410971   -0.549970
     33          6           0        1.490021   -0.841978   -1.666970
     34         16           0        1.923029   -0.049982    0.749030
     35          6           0        2.899021   -0.864992   -1.487970
     36          1           0        0.986019   -1.100973   -2.586970
     37          6           0        3.323025   -0.469997   -0.227970
     38          8           0        3.822017   -1.237002   -2.418970
     39          6           0        4.671026   -0.418010    0.281030
     40          6           0        3.356013   -1.619997   -3.706970
     41          6           0        5.089030   -0.026015    1.544030
     42         16           0        6.072021   -0.866025   -0.682970
     43          1           0        4.245011   -1.868006   -4.284970
     44          1           0        2.705004   -2.498990   -3.647970
     45          1           0        2.824022   -0.796991   -4.195970
     46          6           0        6.498029   -0.079029    1.736030
     47          8           0        4.163034    0.360995    2.465030
     48          6           0        7.152025   -0.515036    0.617030
     49          1           0        7.003032    0.189966    2.653030
     50          6           0        4.627038    0.793990    3.738030
     51          1           0        8.214023   -0.648046    0.482030
     52          1           0        5.279047    1.668983    3.645030
     53          1           0        3.737041    1.064999    4.305030
     54          1           0        5.159030   -0.008015    4.260030
 ---------------------------------------------------------------------

 SCF Done:  E(RHF) =  -2348.40861513     A.U. after   24 cycles
 E2 =    -0.5317675296D+01 EUMP2 =    -0.23537262904218D+04

 The electronic state is 1-A.
 Alpha  occ. eigenvalues --  -91.98356 -91.98062 -20.59840 -20.59797 -20.57082
 Alpha  occ. eigenvalues --  -20.57076 -20.56752 -20.56682 -15.64186 -15.63789
 Alpha  occ. eigenvalues --  -11.40267 -11.40009 -11.39845 -11.39829 -11.30968
 Alpha  occ. eigenvalues --  -11.30577 -11.30483 -11.30366 -11.30259 -11.30092
 Alpha  occ. eigenvalues --  -11.29746 -11.29688 -11.29569 -11.29531 -11.29504
 Alpha  occ. eigenvalues --  -11.28971 -11.28889 -11.28815 -11.28446 -11.27565
 Alpha  occ. eigenvalues --  -11.27222 -11.27053 -11.27009 -11.26787 -11.24873
 Alpha  occ. eigenvalues --  -11.24495  -8.98427  -8.98154  -6.66585  -6.66488
 Alpha  occ. eigenvalues --   -6.66311  -6.66293  -6.66217  -6.66029  -1.43708
 Alpha  occ. eigenvalues --   -1.43503  -1.41759  -1.41731  -1.41623  -1.41531
 Alpha  occ. eigenvalues --   -1.27822  -1.27354  -1.23540  -1.18930  -1.17087
 Alpha  occ. eigenvalues --   -1.15402  -1.13126  -1.07827  -1.06149  -1.03524
 Alpha  occ. eigenvalues --   -1.00500  -1.00324  -0.98960  -0.97325  -0.97128
 Alpha  occ. eigenvalues --   -0.96194  -0.93623  -0.92151  -0.90180  -0.89110
 Alpha  occ. eigenvalues --   -0.88531  -0.86952  -0.81326  -0.79699  -0.78790
 Alpha  occ. eigenvalues --   -0.78107  -0.76297  -0.74539  -0.73983  -0.72896
 Alpha  occ. eigenvalues --   -0.72047  -0.70810  -0.69565  -0.68126  -0.67465
 Alpha  occ. eigenvalues --   -0.66936  -0.66384  -0.66105  -0.65995  -0.65761
 Alpha  occ. eigenvalues --   -0.65489  -0.64780  -0.64487  -0.64161  -0.63934
 Alpha  occ. eigenvalues --   -0.62399  -0.61774  -0.60897  -0.60354  -0.59659
 Alpha  occ. eigenvalues --   -0.59357  -0.57505  -0.57028  -0.56948  -0.56701
 Alpha  occ. eigenvalues --   -0.56422  -0.56190  -0.56008  -0.55877  -0.55445
 Alpha  occ. eigenvalues --   -0.53981  -0.53479  -0.52618  -0.51556  -0.51142
 Alpha  occ. eigenvalues --   -0.50512  -0.48865  -0.48094  -0.47745  -0.47550
 Alpha  occ. eigenvalues --   -0.46440  -0.46305  -0.45860  -0.45547  -0.45070
 Alpha  occ. eigenvalues --   -0.43235  -0.42058  -0.41484  -0.37388  -0.35916
 Alpha  occ. eigenvalues --   -0.33889  -0.33359  -0.33118  -0.25436
 Alpha virt. eigenvalues --   -0.01776   0.02950   0.03270   0.03532   0.03896
 Alpha virt. eigenvalues --    0.04110   0.04652   0.04846   0.05216   0.05459
 Alpha virt. eigenvalues --    0.05575   0.05844   0.06293   0.06355   0.06621

 Mulliken charges:
               1
     1  C    0.049415
     2  C    1.089835
     3  C   -0.576541
     4  C    1.592669
     5  C    0.051329
     6  C   -0.094405
     7  C   -0.207636
     8  C    1.158577
     9  C    1.470288
    10  C   -0.457953
    11  C   -0.019939
    12  C    1.418978
    13  C    0.336586
    14  C    0.300931
    15  H   -0.625035
    16  H   -0.642547
    17  H   -0.807988
    18  N   -0.927758
    19  N   -0.961497
    20  O   -0.865787
    21  O   -0.893469
    22  O   -0.902263
    23  O   -0.853419
    24  C    0.712317
    25  H   -0.038547
    26  H   -0.024964
    27  H   -0.228476
    28  C    0.671452
    29  H   -0.020041
    30  H   -0.018143
    31  H   -0.229593
    32  C    2.058559
    33  C   -0.110962
    34  S   -0.014399
    35  C    0.156342
    36  H   -0.867882
    37  C   -0.582984
    38  O   -1.091161
    39  C    1.236714
    40  C    0.982425
    41  C   -0.095215
    42  S    0.331393
    43  H   -0.341689
    44  H   -0.053080
    45  H   -0.066433
    46  C    0.998835
    47  O   -1.129163
    48  C   -0.256553
    49  H   -0.638970
    50  C    0.916921
    51  H   -0.427146
    52  H   -0.062107
    53  H   -0.325646
    54  H   -0.074176
 Sum of Mulliken charges =  -0.00000

 Dipole moment (field-independent basis, Debye):
    X=              1.0803    Y=              0.1850    Z=              0.1538  Tot=              1.1068
 Quadrupole moment (field-independent basis, Debye-Ang):
   XX=           -220.3170   YY=           -236.7916   ZZ=           -200.8914
   XY=              4.3111   XZ=             11.8224   YZ=              8.6871

 Normal termination of Gaussian 16 at Thu Dec 10 16:40:09 2020.
