 Gaussian 16, Revision C.01,
 Gaussian 16:  ES64L-G16RevC.01  3-Jul-2019

 -------------------------------
 # mp2/aug-cc-pvdz MaxDisk=400GB
 -------------------------------

 ----------------
 NDI_60_b3lyp.pdb
 ----------------
 Symbolic Z-matrix:
 Charge =  0 Multiplicity = 1

                         Standard orientation:
 ---------------------------------------------------------------------
 Center     Atomic      Atomic             Coordinates (Angstroms)
 Number     Number       Type             X           Y           Z
 ---------------------------------------------------------------------
      1          6           0       -2.689876   -2.922122    0.625974
      2          6           0       -2.318938   -1.504105    0.374974
      3          6           0       -3.316980   -0.542149    0.099974
      4          6           0       -4.676964   -0.914209    0.047974
      5          6           0       -5.083902   -2.321227    0.305974
      6          6           0       -0.998954   -1.133048    0.418974
      7          6           0       -2.925039    0.803868   -0.141026
      8          6           0       -1.552056    1.182928   -0.071026
      9          6           0       -0.572013    0.213971    0.231974
     10          6           0       -1.204118    2.601943   -0.362026
     11          6           0       -3.602142    3.141838   -0.794026
     12          6           0       -3.940080    1.736823   -0.470026
     13          6           0       -5.270063    1.350765   -0.519026
     14          6           0       -5.646005    0.028749   -0.254026
     15          1           0       -6.683992   -0.277297   -0.290026
     16          1           0       -6.011096    2.097733   -0.776026
     17          1           0       -0.261921   -1.893015    0.643974
     18          7           0       -2.243156    3.460898   -0.766026
     19          7           0       -4.053862   -3.236182    0.576974
     20          8           0       -1.867838   -3.787086    0.864974
     21          8           0       -6.248887   -2.671278    0.282974
     22          8           0       -4.449178    3.970801   -1.078026
     23          8           0       -0.078138    3.055993   -0.282026
     24          6           0       -1.847216    4.838915   -1.094026
     25          1           0       -1.489239    5.350931   -0.200026
     26          1           0       -1.041215    4.817951   -1.825026
     27          1           0       -2.719238    5.348877   -1.491026
     28          6           0       -4.407800   -4.640197    0.832974
     29          1           0       -3.919772   -5.282176    0.099974
     30          1           0       -4.065787   -4.930182    1.826974
     31          1           0       -5.486796   -4.731244    0.760974
     32          6           0        0.875977    0.438035    0.331974
     33          6           0        1.581941    1.271066    1.167974
     34         16           0        1.956025   -0.660918   -0.502026
     35          6           0        2.975950    1.056127    1.119974
     36          1           0        1.106908    2.020045    1.780974
     37          6           0        3.372994    0.046144    0.246974
     38          8           0        3.920920    1.733168    1.825974
     39          6           0        4.712012   -0.367797   -0.073026
     40          6           0        3.502871    2.862150    2.587974
     41          6           0        5.103058   -1.400780   -0.917026
     42         16           0        6.140978    0.417266    0.586974
     43          1           0        4.410852    3.293190    3.004974
     44          1           0        3.002838    3.600128    1.952974
     45          1           0        2.836884    2.563121    3.402974
     46          6           0        6.512065   -1.557718   -1.032026
     47          8           0        4.153090   -2.145822   -1.543026
     48          6           0        7.191025   -0.644688   -0.275026
     49          1           0        6.998098   -2.307697   -1.640026
     50          6           0        4.581137   -3.218803   -2.376026
     51          1           0        8.260020   -0.539641   -0.170026
     52          1           0        5.153170   -3.957778   -1.805026
     53          1           0        3.673158   -3.680843   -2.758026
     54          1           0        5.183121   -2.851776   -3.213026
 ---------------------------------------------------------------------

 SCF Done:  E(RHF) =  -2348.40638409     A.U. after   19 cycles
 E2 =    -0.5321642032D+01 EUMP2 =    -0.23537280261245D+04

 The electronic state is 1-A.
 Alpha  occ. eigenvalues --  -91.98743 -91.98428 -20.60212 -20.59885 -20.56924
 Alpha  occ. eigenvalues --  -20.56922 -20.56518 -20.56458 -15.64016 -15.63702
 Alpha  occ. eigenvalues --  -11.40086 -11.39840 -11.39828 -11.39599 -11.31337
 Alpha  occ. eigenvalues --  -11.31027 -11.30662 -11.30234 -11.29965 -11.29907
 Alpha  occ. eigenvalues --  -11.29744 -11.29645 -11.29386 -11.29325 -11.29154
 Alpha  occ. eigenvalues --  -11.28625 -11.28528 -11.28508 -11.28253 -11.27768
 Alpha  occ. eigenvalues --  -11.27436 -11.27427 -11.27203 -11.27080 -11.25214
 Alpha  occ. eigenvalues --  -11.24797  -8.98815  -8.98519  -6.66971  -6.66877
 Alpha  occ. eigenvalues --   -6.66684  -6.66676  -6.66581  -6.66393  -1.43550
 Alpha  occ. eigenvalues --   -1.43344  -1.42099  -1.41797  -1.41596  -1.41305
 Alpha  occ. eigenvalues --   -1.27641  -1.27205  -1.23246  -1.19064  -1.17243
 Alpha  occ. eigenvalues --   -1.15409  -1.12896  -1.07783  -1.05976  -1.03755
 Alpha  occ. eigenvalues --   -1.00692  -1.00240  -0.99334  -0.97415  -0.96951
 Alpha  occ. eigenvalues --   -0.96447  -0.93698  -0.92288  -0.90035  -0.88948
 Alpha  occ. eigenvalues --   -0.88467  -0.86703  -0.81617  -0.79710  -0.78820
 Alpha  occ. eigenvalues --   -0.78011  -0.76227  -0.74748  -0.74394  -0.72630
 Alpha  occ. eigenvalues --   -0.72156  -0.70622  -0.69416  -0.68027  -0.67353
 Alpha  occ. eigenvalues --   -0.66875  -0.66514  -0.66310  -0.65996  -0.65885
 Alpha  occ. eigenvalues --   -0.65244  -0.64787  -0.64466  -0.63935  -0.63831
 Alpha  occ. eigenvalues --   -0.62484  -0.61731  -0.61067  -0.60187  -0.59349
 Alpha  occ. eigenvalues --   -0.59257  -0.57394  -0.56890  -0.56847  -0.56719
 Alpha  occ. eigenvalues --   -0.56499  -0.56437  -0.55937  -0.55847  -0.55609
 Alpha  occ. eigenvalues --   -0.53849  -0.53383  -0.52917  -0.51733  -0.51389
 Alpha  occ. eigenvalues --   -0.50789  -0.48887  -0.48166  -0.48079  -0.47221
 Alpha  occ. eigenvalues --   -0.46505  -0.46442  -0.45995  -0.45644  -0.45101
 Alpha  occ. eigenvalues --   -0.43058  -0.41949  -0.41417  -0.38288  -0.35339
 Alpha  occ. eigenvalues --   -0.33810  -0.33523  -0.33152  -0.25337
 Alpha virt. eigenvalues --   -0.01835   0.03010   0.03230   0.03521   0.04068
 Alpha virt. eigenvalues --    0.04118   0.04601   0.04805   0.05275   0.05474
 Alpha virt. eigenvalues --    0.05704   0.05799   0.06103   0.06161   0.06559

 Mulliken charges:
               1
     1  C    0.051460
     2  C    0.821108
     3  C   -0.555979
     4  C    1.706640
     5  C   -0.014035
     6  C    0.645521
     7  C   -0.467610
     8  C    1.122544
     9  C    1.237324
    10  C   -0.348692
    11  C   -0.055778
    12  C    1.520701
    13  C    0.317054
    14  C    0.274571
    15  H   -0.637303
    16  H   -0.674370
    17  H   -0.761347
    18  N   -0.986080
    19  N   -0.953891
    20  O   -0.861561
    21  O   -0.895889
    22  O   -0.906541
    23  O   -0.765028
    24  C    0.705447
    25  H   -0.028334
    26  H   -0.045926
    27  H   -0.224823
    28  C    0.666242
    29  H   -0.021292
    30  H   -0.015686
    31  H   -0.229095
    32  C    1.040117
    33  C    0.549916
    34  S    0.317420
    35  C   -0.469316
    36  H   -0.781253
    37  C   -0.100317
    38  O   -1.076837
    39  C    1.177445
    40  C    0.991860
    41  C   -0.183082
    42  S    0.371543
    43  H   -0.346777
    44  H   -0.027585
    45  H   -0.104793
    46  C    1.024073
    47  O   -1.137107
    48  C   -0.264280
    49  H   -0.634908
    50  C    0.912057
    51  H   -0.426280
    52  H   -0.059069
    53  H   -0.331109
    54  H   -0.061071
 Sum of Mulliken charges =  -0.00000

 Dipole moment (field-independent basis, Debye):
    X=              2.0451    Y=             -0.2562    Z=             -0.0792  Tot=              2.0626
 Quadrupole moment (field-independent basis, Debye-Ang):
   XX=           -220.2354   YY=           -220.6576   ZZ=           -215.2225
   XY=             -5.0154   XZ=             -7.6563   YZ=             16.9903

 Normal termination of Gaussian 16 at Tue Dec 15 11:02:04 2020.
