 Gaussian 16, Revision C.01,
 Gaussian 16:  ES64L-G16RevC.01  3-Jul-2019

 -------------------------------
 # mp2/aug-cc-pvdz MaxDisk=400GB
 -------------------------------

 -----------------
 NDI_-65_b3lyp.pdb
 -----------------
 Symbolic Z-matrix:
 Charge =  0 Multiplicity = 1

                         Standard orientation:
 ---------------------------------------------------------------------
 Center     Atomic      Atomic             Coordinates (Angstroms)
 Number     Number       Type             X           Y           Z
 ---------------------------------------------------------------------
      1          6           0        2.730106   -2.907921    0.655015
      2          6           0        2.339102   -1.495922    0.398015
      3          6           0        3.323099   -0.525919    0.098015
      4          6           0        4.686100   -0.883915    0.026015
      5          6           0        5.112104   -2.284913    0.289015
      6          6           0        1.015101   -1.136926    0.456015
      7          6           0        2.914095    0.814080   -0.146985
      8          6           0        1.539093    1.179076   -0.058985
      9          6           0        0.576096    0.204073    0.265015
     10          6           0        1.170089    2.595074   -0.342985
     11          6           0        3.553087    3.155082   -0.826985
     12          6           0        3.913092    1.756083   -0.499985
     13          6           0        5.246093    1.383087   -0.567985
     14          6           0        5.639097    0.066088   -0.298985
     15          1           0        6.679098   -0.228909   -0.349985
     16          1           0        5.975090    2.135089   -0.842985
     17          1           0        0.287103   -1.900928    0.695015
     18          7           0        2.192086    3.462078   -0.773985
     19          7           0        4.096107   -3.207916    0.585015
     20          8           0        1.920109   -3.777923    0.916015
     21          8           0        6.280105   -2.622910    0.250015
     22          8           0        4.386085    3.990084   -1.132985
     23          8           0        0.042088    3.037071   -0.234985
     24          6           0        1.776082    4.834076   -1.097985
     25          1           0        0.946082    4.803074   -1.801985
     26          1           0        1.445081    5.352075   -0.196985
     27          1           0        2.631081    5.347079   -1.527985
     28          6           0        4.468111   -4.605915    0.847015
     29          1           0        4.153112   -4.888916    1.851015
     30          1           0        3.968113   -5.258917    0.132015
     31          1           0        5.546111   -4.687912    0.749015
     32          6           0       -0.875904    0.419068    0.369015
     33          6           0       -1.582907    1.192066    1.259015
     34         16           0       -1.947901   -0.631935   -0.529985
     35          6           0       -2.976906    0.974062    1.197015
     36          1           0       -1.108909    1.902067    1.918015
     37          6           0       -3.368903    0.019061    0.263015
     38          8           0       -3.924908    1.600059    1.945015
     39          6           0       -4.705902   -0.380944   -0.083985
     40          6           0       -3.512911    2.687060    2.769015
     41          6           0       -5.092899   -1.360945   -0.989985
     42         16           0       -6.139904    0.357052    0.621015
     43          1           0       -4.422912    3.086057    3.214015
     44          1           0       -2.840910    2.347062    3.564015
     45          1           0       -3.020914    3.465062    2.177015
     46          6           0       -6.500898   -1.515949   -1.116985
     47          8           0       -4.138897   -2.062942   -1.658985
     48          6           0       -7.184901   -0.653951   -0.305985
     49          1           0       -6.982896   -2.228951   -1.769985
     50          6           0       -4.561894   -3.080943   -2.559985
     51          1           0       -8.254901   -0.559955   -0.196985
     52          1           0       -5.163895   -2.662945   -3.372985
     53          1           0       -3.651892   -3.514940   -2.968985
     54          1           0       -5.131891   -3.856945   -2.037985
 ---------------------------------------------------------------------

 SCF Done:  E(RHF) =  -2348.40659254     A.U. after   19 cycles
 E2 =    -0.5320913378D+01 EUMP2 =    -0.23537275059205D+04

 The electronic state is 1-A.
 Alpha  occ. eigenvalues --  -91.98720 -91.98357 -20.60134 -20.59870 -20.56963
 Alpha  occ. eigenvalues --  -20.56944 -20.56589 -20.56508 -15.64051 -15.63744
 Alpha  occ. eigenvalues --  -11.40131 -11.39866 -11.39865 -11.39651 -11.31273
 Alpha  occ. eigenvalues --  -11.30919 -11.30646 -11.30259 -11.29979 -11.29917
 Alpha  occ. eigenvalues --  -11.29815 -11.29652 -11.29424 -11.29365 -11.29235
 Alpha  occ. eigenvalues --  -11.28690 -11.28579 -11.28575 -11.28279 -11.27621
 Alpha  occ. eigenvalues --  -11.27443 -11.27358 -11.27228 -11.27029 -11.25136
 Alpha  occ. eigenvalues --  -11.24730  -8.98788  -8.98447  -6.66944  -6.66849
 Alpha  occ. eigenvalues --   -6.66656  -6.66604  -6.66509  -6.66321  -1.43580
 Alpha  occ. eigenvalues --   -1.43391  -1.42028  -1.41766  -1.41626  -1.41361
 Alpha  occ. eigenvalues --   -1.27684  -1.27257  -1.23302  -1.19033  -1.17204
 Alpha  occ. eigenvalues --   -1.15404  -1.12942  -1.07782  -1.06010  -1.03711
 Alpha  occ. eigenvalues --   -1.00650  -1.00273  -0.99273  -0.97385  -0.96968
 Alpha  occ. eigenvalues --   -0.96430  -0.93663  -0.92256  -0.90074  -0.88985
 Alpha  occ. eigenvalues --   -0.88483  -0.86734  -0.81570  -0.79689  -0.78823
 Alpha  occ. eigenvalues --   -0.78038  -0.76215  -0.74763  -0.74328  -0.72628
 Alpha  occ. eigenvalues --   -0.72152  -0.70645  -0.69452  -0.68052  -0.67383
 Alpha  occ. eigenvalues --   -0.66900  -0.66494  -0.66263  -0.66014  -0.65847
 Alpha  occ. eigenvalues --   -0.65269  -0.64771  -0.64510  -0.63939  -0.63897
 Alpha  occ. eigenvalues --   -0.62465  -0.61763  -0.61015  -0.60227  -0.59398
 Alpha  occ. eigenvalues --   -0.59271  -0.57405  -0.56916  -0.56876  -0.56690
 Alpha  occ. eigenvalues --   -0.56515  -0.56415  -0.55951  -0.55842  -0.55584
 Alpha  occ. eigenvalues --   -0.53868  -0.53406  -0.52870  -0.51670  -0.51363
 Alpha  occ. eigenvalues --   -0.50735  -0.48831  -0.48148  -0.48013  -0.47288
 Alpha  occ. eigenvalues --   -0.46488  -0.46451  -0.46014  -0.45632  -0.45128
 Alpha  occ. eigenvalues --   -0.43091  -0.41977  -0.41441  -0.38130  -0.35423
 Alpha  occ. eigenvalues --   -0.33803  -0.33487  -0.33175  -0.25349
 Alpha virt. eigenvalues --   -0.01811   0.03009   0.03234   0.03520   0.04051
 Alpha virt. eigenvalues --    0.04104   0.04614   0.04800   0.05264   0.05506
 Alpha virt. eigenvalues --    0.05689   0.05871   0.06113   0.06161   0.06551

 Mulliken charges:
               1
     1  C    0.038214
     2  C    0.873705
     3  C   -0.589842
     4  C    1.700348
     5  C    0.001060
     6  C    0.597042
     7  C   -0.472833
     8  C    1.093540
     9  C    1.276463
    10  C   -0.373136
    11  C   -0.049987
    12  C    1.504577
    13  C    0.331431
    14  C    0.280299
    15  H   -0.636143
    16  H   -0.670772
    17  H   -0.769036
    18  N   -0.979986
    19  N   -0.951836
    20  O   -0.862471
    21  O   -0.896432
    22  O   -0.905389
    23  O   -0.767046
    24  C    0.704186
    25  H   -0.046743
    26  H   -0.028580
    27  H   -0.222490
    28  C    0.668534
    29  H   -0.017830
    30  H   -0.022345
    31  H   -0.228165
    32  C    1.063485
    33  C    0.637969
    34  S    0.308234
    35  C   -0.525576
    36  H   -0.796926
    37  C   -0.101727
    38  O   -1.074415
    39  C    1.170449
    40  C    0.997887
    41  C   -0.162410
    42  S    0.368296
    43  H   -0.344616
    44  H   -0.105417
    45  H   -0.029853
    46  C    1.020422
    47  O   -1.137712
    48  C   -0.265001
    49  H   -0.636143
    50  C    0.911499
    51  H   -0.425140
    52  H   -0.059987
    53  H   -0.331204
    54  H   -0.060449
 Sum of Mulliken charges =  -0.00000

 Dipole moment (field-independent basis, Debye):
    X=             -1.8297    Y=             -0.2018    Z=             -0.1168  Tot=              1.8445
 Quadrupole moment (field-independent basis, Debye-Ang):
   XX=           -220.5716   YY=           -222.3007   ZZ=           -213.5718
   XY=              4.6112   XZ=              8.2564   YZ=             17.3713

 Normal termination of Gaussian 16 at Thu Dec 10 14:54:28 2020.
