 Gaussian 16, Revision C.01,
 Gaussian 16:  ES64L-G16RevC.01  3-Jul-2019

 -------------------------------
 # mp2/aug-cc-pvdz MaxDisk=400GB
 -------------------------------

 ----------------
 NDI_70_b3lyp.pdb
 ----------------
 Symbolic Z-matrix:
 Charge =  0 Multiplicity = 1

                         Standard orientation:
 ---------------------------------------------------------------------
 Center     Atomic      Atomic             Coordinates (Angstroms)
 Number     Number       Type             X           Y           Z
 ---------------------------------------------------------------------
      1          6           0       -2.839985   -2.898034    0.620933
      2          6           0       -2.398978   -1.499036    0.373933
      3          6           0       -3.345973   -0.494032    0.077933
      4          6           0       -4.722974   -0.801025    0.007933
      5          6           0       -5.198981   -2.189022    0.258933
      6          6           0       -1.061976   -1.185043    0.443933
      7          6           0       -2.892966    0.831966   -0.163067
      8          6           0       -1.504964    1.144959   -0.082067
      9          6           0       -0.582969    0.139954    0.256933
     10          6           0       -1.073957    2.535957   -0.406067
     11          6           0       -3.446954    3.208969   -0.793067
     12          6           0       -3.857961    1.815971   -0.493067
     13          6           0       -5.202963    1.492978   -0.556067
     14          6           0       -5.640969    0.185980   -0.303067
     15          1           0       -6.691971   -0.070015   -0.352067
     16          1           0       -5.906959    2.274981   -0.812067
     17          1           0       -0.357980   -1.971047    0.684933
     18          7           0       -2.073953    3.460962   -0.760067
     19          7           0       -4.215986   -3.149027    0.546933
     20          8           0       -2.061989   -3.797038    0.877933
     21          8           0       -6.377983   -2.484016    0.216933
     22          8           0       -4.252950    4.081973   -1.063067
     23          8           0        0.084045    2.905951   -0.394067
     24          6           0       -1.605946    4.815960   -1.087067
     25          1           0       -1.125944    5.265957   -0.217067
     26          1           0       -0.874946    4.764956   -1.893067
     27          1           0       -2.468943    5.401964   -1.386067
     28          6           0       -4.637993   -4.535025    0.796933
     29          1           0       -4.158996   -5.200028    0.077933
     30          1           0       -4.334995   -4.837027    1.799933
     31          1           0       -5.716993   -4.579020    0.696933
     32          6           0        0.870032    0.329947    0.402933
     33          6           0        1.551035    1.008944    1.380933
     34         16           0        1.959027   -0.611058   -0.584067
     35          6           0        2.951034    0.810937    1.316933
     36          1           0        1.058038    1.637946    2.106933
     37          6           0        3.365030   -0.037065    0.296933
     38          8           0        3.881037    1.359932    2.145933
     39          6           0        4.711028   -0.395072   -0.067067
     40          6           0        3.449042    2.362934    3.059933
     41          6           0        5.118023   -1.272074   -1.064067
     42         16           0        6.128031    0.271921    0.734933
     43          1           0        4.349044    2.715930    3.562933
     44          1           0        2.971046    3.195936    2.533933
     45          1           0        2.760040    1.949938    3.802933
     46          6           0        6.529023   -1.407081   -1.183067
     47          8           0        4.179020   -1.906070   -1.818067
     48          6           0        7.195027   -0.631085   -0.276067
     49          1           0        7.026020   -2.045084   -1.899067
     50          6           0        4.625016   -2.816072   -2.818067
     51          1           0        8.262027   -0.545090   -0.139067
     52          1           0        5.193011   -3.641075   -2.376067
     53          1           0        3.724014   -3.209067   -3.287067
     54          1           0        5.235018   -2.308075   -3.571067
 ---------------------------------------------------------------------

 SCF Done:  E(RHF) =  -2348.40738301     A.U. after   19 cycles
 E2 =    -0.5319481154D+01 EUMP2 =    -0.23537268641658D+04

 The electronic state is 1-A.
 Alpha  occ. eigenvalues --  -91.98667 -91.98234 -20.60010 -20.59852 -20.57010
 Alpha  occ. eigenvalues --  -20.57000 -20.56623 -20.56610 -15.64095 -15.63817
 Alpha  occ. eigenvalues --  -11.40178 -11.39917 -11.39885 -11.39774 -11.31165
 Alpha  occ. eigenvalues --  -11.30734 -11.30635 -11.30306 -11.30096 -11.29924
 Alpha  occ. eigenvalues --  -11.29833 -11.29679 -11.29493 -11.29433 -11.29349
 Alpha  occ. eigenvalues --  -11.28798 -11.28704 -11.28683 -11.28341 -11.27482
 Alpha  occ. eigenvalues --  -11.27382 -11.27256 -11.27205 -11.26929 -11.25004
 Alpha  occ. eigenvalues --  -11.24622  -8.98728  -8.98324  -6.66885  -6.66789
 Alpha  occ. eigenvalues --   -6.66596  -6.66482  -6.66388  -6.66199  -1.43656
 Alpha  occ. eigenvalues --   -1.43428  -1.41889  -1.41713  -1.41708  -1.41417
 Alpha  occ. eigenvalues --   -1.27745  -1.27317  -1.23405  -1.19020  -1.17156
 Alpha  occ. eigenvalues --   -1.15416  -1.13016  -1.07815  -1.06071  -1.03635
 Alpha  occ. eigenvalues --   -1.00587  -1.00314  -0.99163  -0.97367  -0.96981
 Alpha  occ. eigenvalues --   -0.96419  -0.93619  -0.92231  -0.90146  -0.89045
 Alpha  occ. eigenvalues --   -0.88528  -0.86809  -0.81515  -0.79684  -0.78813
 Alpha  occ. eigenvalues --   -0.78071  -0.76188  -0.74781  -0.74225  -0.72651
 Alpha  occ. eigenvalues --   -0.72130  -0.70722  -0.69477  -0.68088  -0.67427
 Alpha  occ. eigenvalues --   -0.66934  -0.66442  -0.66189  -0.66004  -0.65815
 Alpha  occ. eigenvalues --   -0.65368  -0.64761  -0.64533  -0.64014  -0.63915
 Alpha  occ. eigenvalues --   -0.62450  -0.61788  -0.60934  -0.60277  -0.59458
 Alpha  occ. eigenvalues --   -0.59355  -0.57398  -0.56982  -0.56951  -0.56664
 Alpha  occ. eigenvalues --   -0.56534  -0.56370  -0.55960  -0.55874  -0.55555
 Alpha  occ. eigenvalues --   -0.53913  -0.53454  -0.52811  -0.51620  -0.51309
 Alpha  occ. eigenvalues --   -0.50633  -0.48828  -0.48108  -0.47916  -0.47400
 Alpha  occ. eigenvalues --   -0.46488  -0.46409  -0.46018  -0.45618  -0.45135
 Alpha  occ. eigenvalues --   -0.43154  -0.42010  -0.41471  -0.37897  -0.35552
 Alpha  occ. eigenvalues --   -0.33815  -0.33472  -0.33174  -0.25372
 Alpha virt. eigenvalues --   -0.01811   0.02977   0.03238   0.03507   0.04016
 Alpha virt. eigenvalues --    0.04095   0.04616   0.04805   0.05250   0.05532
 Alpha virt. eigenvalues --    0.05703   0.05941   0.06153   0.06209   0.06531

 Mulliken charges:
               1
     1  C    0.029199
     2  C    0.914427
     3  C   -0.569232
     4  C    1.653410
     5  C    0.009971
     6  C    0.476992
     7  C   -0.497634
     8  C    1.117311
     9  C    1.275977
    10  C   -0.389310
    11  C   -0.030675
    12  C    1.452367
    13  C    0.353480
    14  C    0.282909
    15  H   -0.630186
    16  H   -0.659428
    17  H   -0.784330
    18  N   -0.955407
    19  N   -0.949191
    20  O   -0.860833
    21  O   -0.894306
    22  O   -0.907674
    23  O   -0.790366
    24  C    0.696748
    25  H   -0.021306
    26  H   -0.030998
    27  H   -0.242981
    28  C    0.672916
    29  H   -0.021967
    30  H   -0.016791
    31  H   -0.232385
    32  C    1.313061
    33  C    0.713650
    34  S    0.288475
    35  C   -0.624352
    36  H   -0.814955
    37  C   -0.170426
    38  O   -1.070717
    39  C    1.187403
    40  C    1.001212
    41  C   -0.169080
    42  S    0.362190
    43  H   -0.336895
    44  H   -0.032817
    45  H   -0.114477
    46  C    1.013999
    47  O   -1.132028
    48  C   -0.260743
    49  H   -0.636211
    50  C    0.915356
    51  H   -0.426671
    52  H   -0.066980
    53  H   -0.326965
    54  H   -0.062739
 Sum of Mulliken charges =  -0.00000

 Dipole moment (field-independent basis, Debye):
    X=              1.4730    Y=             -0.0749    Z=             -0.0402  Tot=              1.4754
 Quadrupole moment (field-independent basis, Debye-Ang):
   XX=           -220.8446   YY=           -225.2293   ZZ=           -210.7041
   XY=             -4.0581   XZ=             -8.4061   YZ=             17.3897

 Normal termination of Gaussian 16 at Tue Dec 15 12:04:25 2020.
