 Gaussian 16, Revision C.01,
 Gaussian 16:  ES64L-G16RevC.01  3-Jul-2019

 -------------------------------
 # mp2/aug-cc-pvdz MaxDisk=400GB
 -------------------------------

 ----------------
 NDI_35_b3lyp.pdb
 ----------------
 Symbolic Z-matrix:
 Charge =  0 Multiplicity = 1

                         Standard orientation:
 ---------------------------------------------------------------------
 Center     Atomic      Atomic             Coordinates (Angstroms)
 Number     Number       Type             X           Y           Z
 ---------------------------------------------------------------------
      1          6           0       -2.613166   -2.995966    0.364019
      2          6           0       -2.281173   -1.557965    0.189019
      3          6           0       -3.309177   -0.592969    0.079019
      4          6           0       -4.663175   -0.979975    0.142019
      5          6           0       -5.031169   -2.408976    0.329019
      6          6           0       -0.968174   -1.167959    0.167019
      7          6           0       -2.949182    0.771032   -0.108981
      8          6           0       -1.576184    1.164038   -0.161981
      9          6           0       -0.561180    0.193042    0.031019
     10          6           0       -1.283190    2.573039   -0.540981
     11          6           0       -3.713192    3.144029   -0.471981
     12          6           0       -4.001186    1.711028   -0.239981
     13          6           0       -5.328185    1.312022   -0.164981
     14          6           0       -5.666179   -0.030979    0.026019
     15          1           0       -6.700178   -0.346984    0.079019
     16          1           0       -6.095188    2.070019   -0.264981
     17          1           0       -0.219171   -1.935956    0.306019
     18          7           0       -2.366194    3.469035   -0.634981
     19          7           0       -3.971165   -3.326972    0.422019
     20          8           0       -1.763163   -3.862963    0.454019
     21          8           0       -6.189167   -2.773981    0.397019
     22          8           0       -4.590196    3.988025   -0.539981
     23          8           0       -0.169192    2.998044   -0.792981
     24          6           0       -2.023200    4.857036   -0.973981
     25          1           0       -1.333201    5.260039   -0.231981
     26          1           0       -1.534200    4.890038   -1.947981
     27          1           0       -2.943202    5.431032   -0.987981
     28          6           0       -4.288159   -4.751973    0.599019
     29          1           0       -3.867157   -5.326972   -0.224981
     30          1           0       -3.851158   -5.112971    1.530019
     31          1           0       -5.369159   -4.852978    0.622019
     32          6           0        0.870819    0.436048    0.170019
     33          6           0        1.547815    1.480051    0.766019
     34         16           0        2.005824   -0.789947   -0.377981
     35          6           0        2.941815    1.305057    0.785019
     36          1           0        1.049811    2.344049    1.174019
     37          6           0        3.383820    0.121059    0.188019
     38          8           0        3.857812    2.160061    1.311019
     39          6           0        4.737822   -0.320935    0.013019
     40          6           0        3.393806    3.418059    1.796019
     41          6           0        5.173827   -1.510933   -0.561981
     42         16           0        6.131818    0.626071    0.520019
     43          1           0        4.283804    3.964063    2.104019
     44          1           0        2.872804    3.973057    1.010019
     45          1           0        2.731807    3.286056    2.659019
     46          6           0        6.587828   -1.657927   -0.594981
     47          8           0        4.258831   -2.397937   -1.027981
     48          6           0        7.225823   -0.579925   -0.045981
     49          1           0        7.105832   -2.513925   -1.001981
     50          6           0        4.728836   -3.620935   -1.589981
     51          1           0        8.288823   -0.428920    0.062019
     52          1           0        5.292839   -4.200933   -0.852981
     53          1           0        3.838839   -4.174939   -1.882981
     54          1           0        5.349835   -3.434933   -2.471981
 ---------------------------------------------------------------------

 SCF Done:  E(RHF) =  -2348.40426156     A.U. after   19 cycles
 E2 =    -0.5325097220D+01 EUMP2 =    -0.23537293587854D+04

 The electronic state is 1-A.
 Alpha  occ. eigenvalues --  -91.98989 -91.98759 -20.60543 -20.60102 -20.56849
 Alpha  occ. eigenvalues --  -20.56828 -20.56245 -20.56220 -15.63925 -15.63536
 Alpha  occ. eigenvalues --  -11.39980 -11.39743 -11.39696 -11.39361 -11.31494
 Alpha  occ. eigenvalues --  -11.31468 -11.30866 -11.30187 -11.30093 -11.29838
 Alpha  occ. eigenvalues --  -11.29492 -11.29446 -11.29210 -11.29184 -11.28827
 Alpha  occ. eigenvalues --  -11.28428 -11.28383 -11.28364 -11.28275 -11.28168
 Alpha  occ. eigenvalues --  -11.27842 -11.27363 -11.27343 -11.27116 -11.25572
 Alpha  occ. eigenvalues --  -11.25076  -8.99076  -8.98844  -6.67229  -6.67137
 Alpha  occ. eigenvalues --   -6.67000  -6.66945  -6.66905  -6.66717  -1.43471
 Alpha  occ. eigenvalues --   -1.43110  -1.42491  -1.42044  -1.41518  -1.41053
 Alpha  occ. eigenvalues --   -1.27539  -1.27024  -1.23018  -1.19259  -1.17392
 Alpha  occ. eigenvalues --   -1.15425  -1.12681  -1.07807  -1.05791  -1.03971
 Alpha  occ. eigenvalues --   -1.00907  -1.00115  -0.99650  -0.97612  -0.96893
 Alpha  occ. eigenvalues --   -0.96500  -0.93897  -0.92420  -0.89890  -0.88769
 Alpha  occ. eigenvalues --   -0.88389  -0.86578  -0.81849  -0.79871  -0.78779
 Alpha  occ. eigenvalues --   -0.77899  -0.76324  -0.74843  -0.74565  -0.72813
 Alpha  occ. eigenvalues --   -0.72082  -0.70525  -0.69285  -0.67943  -0.67372
 Alpha  occ. eigenvalues --   -0.66958  -0.66581  -0.66419  -0.66111  -0.65840
 Alpha  occ. eigenvalues --   -0.65281  -0.64926  -0.64298  -0.63870  -0.63653
 Alpha  occ. eigenvalues --   -0.62596  -0.61689  -0.61239  -0.59927  -0.59350
 Alpha  occ. eigenvalues --   -0.59134  -0.57389  -0.56988  -0.56847  -0.56725
 Alpha  occ. eigenvalues --   -0.56472  -0.56453  -0.56129  -0.55671  -0.55593
 Alpha  occ. eigenvalues --   -0.53838  -0.53268  -0.53123  -0.52070  -0.51447
 Alpha  occ. eigenvalues --   -0.51071  -0.49411  -0.48372  -0.48111  -0.47134
 Alpha  occ. eigenvalues --   -0.46586  -0.46330  -0.45931  -0.45672  -0.44959
 Alpha  occ. eigenvalues --   -0.42915  -0.41849  -0.41254  -0.38885  -0.35076
 Alpha  occ. eigenvalues --   -0.34001  -0.33726  -0.33014  -0.25209
 Alpha virt. eigenvalues --   -0.01944   0.02953   0.03204   0.03530   0.04102
 Alpha virt. eigenvalues --    0.04181   0.04442   0.04872   0.05194   0.05326
 Alpha virt. eigenvalues --    0.05591   0.05719   0.06041   0.06359   0.06626

 Mulliken charges:
               1
     1  C    0.113584
     2  C    0.624063
     3  C   -0.490905
     4  C    1.677377
     5  C    0.024449
     6  C    0.801767
     7  C   -0.358859
     8  C    1.159509
     9  C    1.051365
    10  C   -0.018525
    11  C   -0.111654
    12  C    1.399155
    13  C    0.334511
    14  C    0.243208
    15  H   -0.636074
    16  H   -0.683190
    17  H   -0.728087
    18  N   -0.968600
    19  N   -0.963835
    20  O   -0.859765
    21  O   -0.889644
    22  O   -0.903091
    23  O   -0.811038
    24  C    0.670362
    25  H   -0.038156
    26  H   -0.029865
    27  H   -0.237331
    28  C    0.664741
    29  H   -0.020147
    30  H   -0.017447
    31  H   -0.221347
    32  C    0.876683
    33  C    0.455006
    34  S    0.351817
    35  C   -0.300600
    36  H   -0.760831
    37  C   -0.127940
    38  O   -1.096006
    39  C    1.175453
    40  C    0.941225
    41  C   -0.267714
    42  S    0.378279
    43  H   -0.348549
    44  H   -0.027200
    45  H   -0.084951
    46  C    1.048473
    47  O   -1.128452
    48  C   -0.259175
    49  H   -0.638252
    50  C    0.911958
    51  H   -0.429759
    52  H   -0.058897
    53  H   -0.329692
    54  H   -0.057402
 Sum of Mulliken charges =  -0.00000

 Dipole moment (field-independent basis, Debye):
    X=              2.9785    Y=             -0.4615    Z=              0.2373  Tot=              3.0234
 Quadrupole moment (field-independent basis, Debye-Ang):
   XX=           -217.6566   YY=           -215.1644   ZZ=           -221.5504
   XY=             -6.1142   XZ=             -3.2766   YZ=             13.4812

 Normal termination of Gaussian 16 at Tue Dec 15 06:38:37 2020.
