 Gaussian 16, Revision C.01,
 Gaussian 16:  ES64L-G16RevC.01  3-Jul-2019

 -------------------------------
 # mp2/aug-cc-pvdz MaxDisk=400GB
 -------------------------------

 -----------------
 NDI_-60_b3lyp.pdb
 -----------------
 Symbolic Z-matrix:
 Charge =  0 Multiplicity = 1

                         Standard orientation:
 ---------------------------------------------------------------------
 Center     Atomic      Atomic             Coordinates (Angstroms)
 Number     Number       Type             X           Y           Z
 ---------------------------------------------------------------------
      1          6           0        2.690962   -2.922979    0.625951
      2          6           0        2.318960   -1.503979    0.374951
      3          6           0        3.316959   -0.541978    0.099951
      4          6           0        4.676960   -0.913977    0.047951
      5          6           0        5.084961   -2.320976    0.305951
      6          6           0        0.998960   -1.132980    0.417951
      7          6           0        2.924958    0.804022   -0.141049
      8          6           0        1.551958    1.183020   -0.071049
      9          6           0        0.571959    0.214019    0.231951
     10          6           0        1.203956    2.602020   -0.362049
     11          6           0        3.601956    3.142022   -0.794049
     12          6           0        3.939957    1.737023   -0.470049
     13          6           0        5.269958    1.351024   -0.519049
     14          6           0        5.645959    0.029024   -0.253049
     15          1           0        6.683959   -0.275975   -0.289049
     16          1           0        6.010957    2.098025   -0.775049
     17          1           0        0.262961   -1.892981    0.643951
     18          7           0        2.242956    3.461021   -0.766049
     19          7           0        4.053962   -3.235977    0.576951
     20          8           0        1.867963   -3.786980    0.864951
     21          8           0        6.249962   -2.670975    0.283951
     22          8           0        4.448955    3.971023   -1.078049
     23          8           0        0.076956    3.056019   -0.283049
     24          6           0        1.846954    4.838020   -1.095049
     25          1           0        1.038954    4.818020   -1.824049
     26          1           0        1.489954    5.352020   -0.200049
     27          1           0        2.717954    5.348021   -1.494049
     28          6           0        4.408964   -4.639977    0.832951
     29          1           0        4.067964   -4.929977    1.826951
     30          1           0        3.918964   -5.281977    0.099951
     31          1           0        5.487964   -4.730976    0.758951
     32          6           0       -0.876041    0.438018    0.331951
     33          6           0       -1.582042    1.271017    1.167951
     34         16           0       -1.956040   -0.660983   -0.502049
     35          6           0       -2.976042    1.056016    1.119951
     36          1           0       -1.107043    2.020018    1.780951
     37          6           0       -3.373041    0.046015    0.246951
     38          8           0       -3.921043    1.732015    1.825951
     39          6           0       -4.712041   -0.367986   -0.073049
     40          6           0       -3.502044    2.861015    2.588951
     41          6           0       -5.103040   -1.400986   -0.917049
     42         16           0       -6.141041    0.417013    0.587951
     43          1           0       -4.411044    3.292014    3.006951
     44          1           0       -2.836044    2.561016    3.403951
     45          1           0       -3.002045    3.600016    1.954951
     46          6           0       -6.512040   -1.557988   -1.032049
     47          8           0       -4.154039   -2.145985   -1.543049
     48          6           0       -7.191040   -0.644988   -0.274049
     49          1           0       -6.998039   -2.306988   -1.639049
     50          6           0       -4.582038   -3.216986   -2.378049
     51          1           0       -8.260041   -0.539989   -0.169049
     52          1           0       -5.183038   -2.846986   -3.215049
     53          1           0       -3.673037   -3.677985   -2.761049
     54          1           0       -5.154037   -3.956986   -1.809049
 ---------------------------------------------------------------------

 SCF Done:  E(RHF) =  -2348.40629883     A.U. after   19 cycles
 E2 =    -0.5321799097D+01 EUMP2 =    -0.23537280979315D+04

 The electronic state is 1-A.
 Alpha  occ. eigenvalues --  -91.98736 -91.98427 -20.60209 -20.59892 -20.56958
 Alpha  occ. eigenvalues --  -20.56916 -20.56511 -20.56462 -15.64029 -15.63712
 Alpha  occ. eigenvalues --  -11.40117 -11.39839 -11.39835 -11.39603 -11.31335
 Alpha  occ. eigenvalues --  -11.31024 -11.30651 -11.30234 -11.29974 -11.29901
 Alpha  occ. eigenvalues --  -11.29742 -11.29671 -11.29392 -11.29327 -11.29155
 Alpha  occ. eigenvalues --  -11.28625 -11.28510 -11.28508 -11.28247 -11.27758
 Alpha  occ. eigenvalues --  -11.27444 -11.27439 -11.27208 -11.27073 -11.25209
 Alpha  occ. eigenvalues --  -11.24783  -8.98808  -8.98517  -6.66963  -6.66870
 Alpha  occ. eigenvalues --   -6.66676  -6.66674  -6.66579  -6.66391  -1.43560
 Alpha  occ. eigenvalues --   -1.43315  -1.42133  -1.41799  -1.41607  -1.41279
 Alpha  occ. eigenvalues --   -1.27659  -1.27215  -1.23247  -1.19056  -1.17232
 Alpha  occ. eigenvalues --   -1.15400  -1.12892  -1.07780  -1.05971  -1.03749
 Alpha  occ. eigenvalues --   -1.00689  -1.00236  -0.99331  -0.97409  -0.96949
 Alpha  occ. eigenvalues --   -0.96443  -0.93694  -0.92285  -0.90048  -0.88936
 Alpha  occ. eigenvalues --   -0.88464  -0.86710  -0.81611  -0.79706  -0.78819
 Alpha  occ. eigenvalues --   -0.78006  -0.76230  -0.74746  -0.74398  -0.72634
 Alpha  occ. eigenvalues --   -0.72158  -0.70620  -0.69412  -0.68034  -0.67352
 Alpha  occ. eigenvalues --   -0.66873  -0.66518  -0.66324  -0.66001  -0.65883
 Alpha  occ. eigenvalues --   -0.65237  -0.64793  -0.64472  -0.63933  -0.63825
 Alpha  occ. eigenvalues --   -0.62478  -0.61722  -0.61058  -0.60186  -0.59345
 Alpha  occ. eigenvalues --   -0.59251  -0.57391  -0.56883  -0.56842  -0.56711
 Alpha  occ. eigenvalues --   -0.56506  -0.56423  -0.55921  -0.55841  -0.55608
 Alpha  occ. eigenvalues --   -0.53837  -0.53384  -0.52921  -0.51726  -0.51388
 Alpha  occ. eigenvalues --   -0.50787  -0.48889  -0.48163  -0.48078  -0.47222
 Alpha  occ. eigenvalues --   -0.46503  -0.46442  -0.46000  -0.45643  -0.45102
 Alpha  occ. eigenvalues --   -0.43059  -0.41956  -0.41415  -0.38283  -0.35332
 Alpha  occ. eigenvalues --   -0.33807  -0.33515  -0.33148  -0.25323
 Alpha virt. eigenvalues --   -0.01832   0.03011   0.03230   0.03521   0.04067
 Alpha virt. eigenvalues --    0.04118   0.04601   0.04805   0.05277   0.05473
 Alpha virt. eigenvalues --    0.05705   0.05798   0.06103   0.06161   0.06562

 Mulliken charges:
               1
     1  C    0.051962
     2  C    0.811247
     3  C   -0.553179
     4  C    1.709437
     5  C   -0.013604
     6  C    0.654838
     7  C   -0.469968
     8  C    1.120396
     9  C    1.238028
    10  C   -0.345508
    11  C   -0.055864
    12  C    1.519573
    13  C    0.317255
    14  C    0.273878
    15  H   -0.638213
    16  H   -0.675212
    17  H   -0.762523
    18  N   -0.985053
    19  N   -0.954209
    20  O   -0.861686
    21  O   -0.895261
    22  O   -0.906366
    23  O   -0.766313
    24  C    0.701894
    25  H   -0.046827
    26  H   -0.024875
    27  H   -0.225364
    28  C    0.663179
    29  H   -0.016422
    30  H   -0.018341
    31  H   -0.228171
    32  C    1.040472
    33  C    0.550775
    34  S    0.317911
    35  C   -0.467854
    36  H   -0.781831
    37  C   -0.103138
    38  O   -1.077051
    39  C    1.178913
    40  C    0.987088
    41  C   -0.187024
    42  S    0.371650
    43  H   -0.342927
    44  H   -0.103796
    45  H   -0.027435
    46  C    1.032549
    47  O   -1.137414
    48  C   -0.265846
    49  H   -0.638384
    50  C    0.908896
    51  H   -0.426584
    52  H   -0.058810
    53  H   -0.328446
    54  H   -0.060443
 Sum of Mulliken charges =  -0.00000

 Dipole moment (field-independent basis, Debye):
    X=             -2.0251    Y=             -0.2652    Z=             -0.0777  Tot=              2.0439
 Quadrupole moment (field-independent basis, Debye-Ang):
   XX=           -220.1484   YY=           -220.6838   ZZ=           -215.2050
   XY=              4.9491   XZ=              7.6496   YZ=             17.0051

 Normal termination of Gaussian 16 at Thu Dec 10 14:23:54 2020.
