 Gaussian 16, Revision C.01,
 Gaussian 16:  ES64L-G16RevC.01  3-Jul-2019

 -------------------------------
 # mp2/aug-cc-pvdz MaxDisk=400GB
 -------------------------------

 ----------------
 NDI_65_b3lyp.pdb
 ----------------
 Symbolic Z-matrix:
 Charge =  0 Multiplicity = 1

                         Standard orientation:
 ---------------------------------------------------------------------
 Center     Atomic      Atomic             Coordinates (Angstroms)
 Number     Number       Type             X           Y           Z
 ---------------------------------------------------------------------
      1          6           0       -2.729014   -2.906945    0.655007
      2          6           0       -2.338985   -1.494953    0.398007
      3          6           0       -3.321966   -0.525933    0.098007
      4          6           0       -4.685973   -0.883905    0.026007
      5          6           0       -5.112001   -2.285897    0.289007
      6          6           0       -1.014978   -1.136979    0.457007
      7          6           0       -2.913939    0.814059   -0.146993
      8          6           0       -1.538931    1.180031   -0.057993
      9          6           0       -0.575951    0.204012    0.266007
     10          6           0       -1.170903    2.595024   -0.341993
     11          6           0       -3.552891    3.155072   -0.827993
     12          6           0       -3.912920    1.756079   -0.499993
     13          6           0       -5.245927    1.382106   -0.568993
     14          6           0       -5.638954    0.066114   -0.299993
     15          1           0       -6.678960   -0.229865   -0.350993
     16          1           0       -5.974912    2.134121   -0.843993
     17          1           0       -0.286994   -1.900994    0.696007
     18          7           0       -2.191885    3.462044   -0.773993
     19          7           0       -4.095020   -3.207917    0.586007
     20          8           0       -1.920032   -3.776961    0.916007
     21          8           0       -6.280008   -2.623873    0.249007
     22          8           0       -4.385874    3.990089   -1.134993
     23          8           0       -0.042894    3.038001   -0.232993
     24          6           0       -1.776857    4.834036   -1.097993
     25          1           0       -1.443847    5.351029   -0.195993
     26          1           0       -0.946858    4.803019   -1.801993
     27          1           0       -2.631847    5.348053   -1.525993
     28          6           0       -4.468048   -4.605910    0.848007
     29          1           0       -3.974062   -5.258920    0.129007
     30          1           0       -4.146054   -4.890916    1.850007
     31          1           0       -5.546050   -4.685888    0.758007
     32          6           0        0.876053    0.419982    0.369007
     33          6           0        1.583069    1.191968    1.259007
     34         16           0        1.947032   -0.632039   -0.529993
     35          6           0        2.977064    0.973940    1.197007
     36          1           0        1.110083    1.901978    1.918007
     37          6           0        3.369045    0.018932    0.263007
     38          8           0        3.925077    1.600921    1.945007
     39          6           0        4.706037   -0.380095   -0.084993
     40          6           0        3.514099    2.687929    2.768007
     41          6           0        5.092017   -1.361103   -0.990993
     42         16           0        6.140052    0.357876    0.620007
     43          1           0        4.424107    3.086910    3.213007
     44          1           0        3.021115    3.464939    2.175007
     45          1           0        2.842092    2.347942    3.563007
     46          6           0        6.500014   -1.517132   -1.117993
     47          8           0        4.138003   -2.063084   -1.658993
     48          6           0        7.185032   -0.654145   -0.306993
     49          1           0        6.982000   -2.229141   -1.770993
     50          6           0        4.560982   -3.084092   -2.555993
     51          1           0        8.254033   -0.561167   -0.197993
     52          1           0        5.130967   -3.859104   -2.031993
     53          1           0        3.650974   -3.519074   -2.964993
     54          1           0        5.163991   -2.669104   -3.370993
 ---------------------------------------------------------------------

 SCF Done:  E(RHF) =  -2348.40651963     A.U. after   19 cycles
 E2 =    -0.5321005206D+01 EUMP2 =    -0.23537275248401D+04

 The electronic state is 1-A.
 Alpha  occ. eigenvalues --  -91.98721 -91.98372 -20.60154 -20.59861 -20.56972
 Alpha  occ. eigenvalues --  -20.56952 -20.56571 -20.56507 -15.64046 -15.63745
 Alpha  occ. eigenvalues --  -11.40140 -11.39863 -11.39855 -11.39654 -11.31288
 Alpha  occ. eigenvalues --  -11.30933 -11.30649 -11.30263 -11.29979 -11.29936
 Alpha  occ. eigenvalues --  -11.29812 -11.29643 -11.29443 -11.29362 -11.29237
 Alpha  occ. eigenvalues --  -11.28686 -11.28581 -11.28569 -11.28276 -11.27634
 Alpha  occ. eigenvalues --  -11.27444 -11.27371 -11.27228 -11.27037 -11.25129
 Alpha  occ. eigenvalues --  -11.24742  -8.98788  -8.98459  -6.66944  -6.66850
 Alpha  occ. eigenvalues --   -6.66657  -6.66616  -6.66522  -6.66333  -1.43598
 Alpha  occ. eigenvalues --   -1.43372  -1.42070  -1.41767  -1.41653  -1.41333
 Alpha  occ. eigenvalues --   -1.27677  -1.27259  -1.23308  -1.19031  -1.17190
 Alpha  occ. eigenvalues --   -1.15406  -1.12943  -1.07789  -1.06008  -1.03710
 Alpha  occ. eigenvalues --   -1.00654  -1.00275  -0.99277  -0.97384  -0.96964
 Alpha  occ. eigenvalues --   -0.96432  -0.93660  -0.92253  -0.90070  -0.88987
 Alpha  occ. eigenvalues --   -0.88483  -0.86736  -0.81574  -0.79697  -0.78824
 Alpha  occ. eigenvalues --   -0.78041  -0.76220  -0.74759  -0.74348  -0.72630
 Alpha  occ. eigenvalues --   -0.72158  -0.70653  -0.69445  -0.68055  -0.67378
 Alpha  occ. eigenvalues --   -0.66894  -0.66499  -0.66269  -0.66019  -0.65851
 Alpha  occ. eigenvalues --   -0.65277  -0.64787  -0.64518  -0.63947  -0.63889
 Alpha  occ. eigenvalues --   -0.62468  -0.61773  -0.61009  -0.60228  -0.59403
 Alpha  occ. eigenvalues --   -0.59271  -0.57403  -0.56905  -0.56881  -0.56700
 Alpha  occ. eigenvalues --   -0.56519  -0.56421  -0.55950  -0.55848  -0.55578
 Alpha  occ. eigenvalues --   -0.53860  -0.53404  -0.52859  -0.51673  -0.51357
 Alpha  occ. eigenvalues --   -0.50734  -0.48824  -0.48149  -0.48007  -0.47288
 Alpha  occ. eigenvalues --   -0.46494  -0.46457  -0.46015  -0.45639  -0.45126
 Alpha  occ. eigenvalues --   -0.43089  -0.41972  -0.41433  -0.38133  -0.35427
 Alpha  occ. eigenvalues --   -0.33798  -0.33494  -0.33179  -0.25347
 Alpha virt. eigenvalues --   -0.01822   0.03009   0.03234   0.03521   0.04051
 Alpha virt. eigenvalues --    0.04104   0.04615   0.04800   0.05263   0.05506
 Alpha virt. eigenvalues --    0.05692   0.05867   0.06115   0.06161   0.06549

 Mulliken charges:
               1
     1  C    0.032764
     2  C    0.881972
     3  C   -0.580327
     4  C    1.689595
     5  C   -0.000183
     6  C    0.590409
     7  C   -0.478849
     8  C    1.098944
     9  C    1.268273
    10  C   -0.369803
    11  C   -0.050555
    12  C    1.506803
    13  C    0.341129
    14  C    0.277002
    15  H   -0.634923
    16  H   -0.670337
    17  H   -0.768610
    18  N   -0.977744
    19  N   -0.952261
    20  O   -0.861488
    21  O   -0.896547
    22  O   -0.905557
    23  O   -0.768232
    24  C    0.701141
    25  H   -0.025422
    26  H   -0.046468
    27  H   -0.223428
    28  C    0.669307
    29  H   -0.022238
    30  H   -0.016486
    31  H   -0.231065
    32  C    1.066135
    33  C    0.633780
    34  S    0.308042
    35  C   -0.517002
    36  H   -0.797226
    37  C   -0.108014
    38  O   -1.074139
    39  C    1.171002
    40  C    0.996595
    41  C   -0.161955
    42  S    0.367474
    43  H   -0.344437
    44  H   -0.028622
    45  H   -0.105653
    46  C    1.021087
    47  O   -1.137146
    48  C   -0.259905
    49  H   -0.638541
    50  C    0.907443
    51  H   -0.427548
    52  H   -0.059100
    53  H   -0.330807
    54  H   -0.058281
 Sum of Mulliken charges =  -0.00000

 Dipole moment (field-independent basis, Debye):
    X=              1.8320    Y=             -0.2240    Z=             -0.1100  Tot=              1.8489
 Quadrupole moment (field-independent basis, Debye-Ang):
   XX=           -220.5673   YY=           -222.3050   ZZ=           -213.6175
   XY=             -4.6265   XZ=             -8.2658   YZ=             17.3481

 Normal termination of Gaussian 16 at Tue Dec 15 11:33:08 2020.
