 Gaussian 16, Revision C.01,
 Gaussian 16:  ES64L-G16RevC.01  3-Jul-2019

 -------------------------------
 # mp2/aug-cc-pvdz MaxDisk=400GB
 -------------------------------

 ------------------
 NDI_-110_b3lyp.pdb
 ------------------
 Symbolic Z-matrix:
 Charge =  0 Multiplicity = 1

                         Standard orientation:
 ---------------------------------------------------------------------
 Center     Atomic      Atomic             Coordinates (Angstroms)
 Number     Number       Type             X           Y           Z
 ---------------------------------------------------------------------
      1          6           0       -3.474008   -2.750056    0.336030
      2          6           0       -2.743016   -1.479052    0.090030
      3          6           0       -3.433024   -0.246056    0.109030
      4          6           0       -4.820025   -0.200065    0.372030
      5          6           0       -5.579017   -1.453070    0.634030
      6          6           0       -1.385016   -1.502043   -0.135970
      7          6           0       -2.714032    0.952949   -0.147970
      8          6           0       -1.317032    0.906958   -0.415970
      9          6           0       -0.639024   -0.318038   -0.363970
     10          6           0       -0.633040    2.169962   -0.822970
     11          6           0       -2.721049    3.462948   -0.383970
     12          6           0       -3.422040    2.178944   -0.124970
     13          6           0       -4.780041    2.202935    0.142030
     14          6           0       -5.483033    1.014930    0.389030
     15          1           0       -6.546033    1.028923    0.595030
     16          1           0       -5.286047    3.159932    0.155030
     17          1           0       -0.868010   -2.453039   -0.113970
     18          7           0       -1.364048    3.366957   -0.704970
     19          7           0       -4.847009   -2.651066    0.595030
     20          8           0       -2.927001   -3.837053    0.317030
     21          8           0       -6.773017   -1.448078    0.867030
     22          8           0       -3.292056    4.536945   -0.333970
     23          8           0        0.498959    2.209970   -1.258970
     24          6           0       -0.640056    4.600962   -1.045970
     25          1           0        0.305943    4.622968   -0.506970
     26          1           0       -0.428057    4.628964   -2.115970
     27          1           0       -1.266062    5.441958   -0.766970
     28          6           0       -5.555000   -3.916070    0.842030
     29          1           0       -5.462996   -4.565070   -0.028970
     30          1           0       -5.110997   -4.424067    1.698030
     31          1           0       -6.597002   -3.683077    1.035030
     32          6           0        0.818977   -0.484028   -0.522970
     33          6           0        1.481981   -1.055024   -1.576970
     34         16           0        1.918974    0.032979    0.722030
     35          6           0        2.890981   -1.059015   -1.396970
     36          1           0        0.976983   -1.424027   -2.457970
     37          6           0        3.314977   -0.512012   -0.193970
     38          8           0        3.812984   -1.546008   -2.272970
     39          6           0        4.662977   -0.407003    0.306030
     40          6           0        3.345988   -2.096012   -3.498970
     41          6           0        5.082973    0.139000    1.510030
     42         16           0        6.061980   -0.981994   -0.590970
     43          1           0        4.233990   -2.418006   -4.039970
     44          1           0        2.694993   -2.959016   -3.323970
     45          1           0        2.812983   -1.345015   -4.090970
     46          6           0        6.491973    0.100009    1.710030
     47          8           0        4.158970    0.644994    2.374030
     48          6           0        7.142977   -0.476987    0.656030
     49          1           0        6.996971    0.480013    2.586030
     50          6           0        4.624966    1.234997    3.582030
     51          1           0        8.203978   -0.633980    0.541030
     52          1           0        5.281960    2.086001    3.379030
     53          1           0        3.735963    1.580991    4.108030
     54          1           0        5.150971    0.502000    4.203030
 ---------------------------------------------------------------------

 SCF Done:  E(RHF) =  -2348.40830345     A.U. after   19 cycles
 E2 =    -0.5318326518D+01 EUMP2 =    -0.23537266299631D+04

 The electronic state is 1-A.
 Alpha  occ. eigenvalues --  -91.98380 -91.98100 -20.59883 -20.59842 -20.57072
 Alpha  occ. eigenvalues --  -20.57070 -20.56685 -20.56657 -15.64171 -15.63725
 Alpha  occ. eigenvalues --  -11.40253 -11.40004 -11.39811 -11.39762 -11.30965
 Alpha  occ. eigenvalues --  -11.30623 -11.30546 -11.30334 -11.30205 -11.30062
 Alpha  occ. eigenvalues --  -11.29781 -11.29717 -11.29553 -11.29498 -11.29491
 Alpha  occ. eigenvalues --  -11.28947 -11.28874 -11.28785 -11.28461 -11.27544
 Alpha  occ. eigenvalues --  -11.27184 -11.27135 -11.27049 -11.26823 -11.24973
 Alpha  occ. eigenvalues --  -11.24524  -8.98451  -8.98192  -6.66609  -6.66512
 Alpha  occ. eigenvalues --   -6.66350  -6.66317  -6.66256  -6.66067  -1.43690
 Alpha  occ. eigenvalues --   -1.43444  -1.41768  -1.41745  -1.41673  -1.41479
 Alpha  occ. eigenvalues --   -1.27791  -1.27285  -1.23504  -1.18957  -1.17114
 Alpha  occ. eigenvalues --   -1.15411  -1.13096  -1.07834  -1.06142  -1.03556
 Alpha  occ. eigenvalues --   -1.00527  -1.00309  -0.99001  -0.97355  -0.97130
 Alpha  occ. eigenvalues --   -0.96192  -0.93672  -0.92181  -0.90126  -0.89093
 Alpha  occ. eigenvalues --   -0.88501  -0.86925  -0.81346  -0.79716  -0.78799
 Alpha  occ. eigenvalues --   -0.78095  -0.76337  -0.74509  -0.73991  -0.72912
 Alpha  occ. eigenvalues --   -0.72082  -0.70801  -0.69551  -0.68098  -0.67439
 Alpha  occ. eigenvalues --   -0.66903  -0.66371  -0.66155  -0.66030  -0.65801
 Alpha  occ. eigenvalues --   -0.65488  -0.64734  -0.64514  -0.64128  -0.63911
 Alpha  occ. eigenvalues --   -0.62409  -0.61792  -0.60940  -0.60378  -0.59668
 Alpha  occ. eigenvalues --   -0.59329  -0.57518  -0.57009  -0.56915  -0.56692
 Alpha  occ. eigenvalues --   -0.56431  -0.56229  -0.56004  -0.55869  -0.55473
 Alpha  occ. eigenvalues --   -0.53959  -0.53453  -0.52668  -0.51576  -0.51184
 Alpha  occ. eigenvalues --   -0.50567  -0.48902  -0.48136  -0.47794  -0.47503
 Alpha  occ. eigenvalues --   -0.46426  -0.46319  -0.45851  -0.45587  -0.45040
 Alpha  occ. eigenvalues --   -0.43196  -0.42034  -0.41426  -0.37575  -0.35812
 Alpha  occ. eigenvalues --   -0.33852  -0.33385  -0.33131  -0.25435
 Alpha virt. eigenvalues --   -0.01791   0.02963   0.03268   0.03525   0.03906
 Alpha virt. eigenvalues --    0.04124   0.04658   0.04856   0.05225   0.05472
 Alpha virt. eigenvalues --    0.05582   0.05814   0.06257   0.06346   0.06568

 Mulliken charges:
               1
     1  C    0.033037
     2  C    1.065233
     3  C   -0.545470
     4  C    1.524899
     5  C    0.076406
     6  C   -0.057113
     7  C   -0.199853
     8  C    1.253732
     9  C    1.373405
    10  C   -0.436957
    11  C    0.004568
    12  C    1.373323
    13  C    0.327175
    14  C    0.322054
    15  H   -0.624684
    16  H   -0.642904
    17  H   -0.798478
    18  N   -0.927618
    19  N   -0.965641
    20  O   -0.866138
    21  O   -0.895241
    22  O   -0.901190
    23  O   -0.850155
    24  C    0.718333
    25  H   -0.050264
    26  H   -0.029429
    27  H   -0.217873
    28  C    0.672962
    29  H   -0.019167
    30  H   -0.019826
    31  H   -0.229107
    32  C    1.970593
    33  C   -0.090803
    34  S   -0.014604
    35  C    0.155039
    36  H   -0.849962
    37  C   -0.523389
    38  O   -1.086195
    39  C    1.187240
    40  C    0.987072
    41  C   -0.071841
    42  S    0.332312
    43  H   -0.341955
    44  H   -0.051864
    45  H   -0.068662
    46  C    0.996647
    47  O   -1.130365
    48  C   -0.254708
    49  H   -0.639763
    50  C    0.917843
    51  H   -0.426923
    52  H   -0.065772
    53  H   -0.326111
    54  H   -0.071846
 Sum of Mulliken charges =  -0.00000

 Dipole moment (field-independent basis, Debye):
    X=              1.2092    Y=              0.1567    Z=              0.1986  Tot=              1.2354
 Quadrupole moment (field-independent basis, Debye-Ang):
   XX=           -219.7316   YY=           -234.4731   ZZ=           -203.6102
   XY=              5.3647   XZ=             11.7165   YZ=             11.8003

 Normal termination of Gaussian 16 at Thu Dec 10 13:10:44 2020.
