 Gaussian 16, Revision C.01,
 Gaussian 16:  ES64L-G16RevC.01  3-Jul-2019

 -------------------------------
 # mp2/aug-cc-pvdz MaxDisk=400GB
 -------------------------------

 -----------------
 NDI_-35_b3lyp.pdb
 -----------------
 Symbolic Z-matrix:
 Charge =  0 Multiplicity = 1

                         Standard orientation:
 ---------------------------------------------------------------------
 Center     Atomic      Atomic             Coordinates (Angstroms)
 Number     Number       Type             X           Y           Z
 ---------------------------------------------------------------------
      1          6           0        2.612968   -2.996054    0.362970
      2          6           0        2.281014   -1.558043    0.188970
      3          6           0        3.309044   -0.593076    0.078970
      4          6           0        4.663032   -0.979119    0.141970
      5          6           0        5.030987   -2.408131    0.329970
      6          6           0        0.968026   -1.168001    0.166970
      7          6           0        2.948088    0.770936   -0.109030
      8          6           0        1.576101    1.163980   -0.162030
      9          6           0        0.561070    0.193012    0.030970
     10          6           0        1.283146    2.572989   -0.541030
     11          6           0        3.713164    3.143911   -0.473030
     12          6           0        4.001118    1.710902   -0.240030
     13          6           0        5.328105    1.311860   -0.166030
     14          6           0        5.666062   -0.030151    0.025970
     15          1           0        6.700052   -0.347184    0.078970
     16          1           0        6.095130    2.069835   -0.266030
     17          1           0        0.219002   -1.935977    0.305970
     18          7           0        2.366174    3.468954   -0.635030
     19          7           0        3.971957   -3.327097    0.423970
     20          8           0        1.763940   -3.863026    0.452970
     21          8           0        6.189975   -2.774168    0.396970
     22          8           0        4.590191    3.987883   -0.542030
     23          8           0        0.169159    2.998024   -0.793030
     24          6           0        2.022219    4.856965   -0.974030
     25          1           0        1.534220    4.890981   -1.948030
     26          1           0        1.333231    5.259987   -0.231030
     27          1           0        2.943237    5.430936   -0.988030
     28          6           0        4.288912   -4.751107    0.600970
     29          1           0        3.842900   -5.115093    1.526970
     30          1           0        3.875893   -5.326094   -0.228030
     31          1           0        5.368908   -4.851142    0.632970
     32          6           0       -0.870923    0.436058    0.169970
     33          6           0       -1.546889    1.480079    0.766970
     34         16           0       -2.005962   -0.789906   -0.378030
     35          6           0       -2.941895    1.304124    0.785970
     36          1           0       -1.049862    2.343063    1.174970
     37          6           0       -3.383933    0.121138    0.187970
     38          8           0       -3.856868    2.159153    1.311970
     39          6           0       -4.737947   -0.320819    0.012970
     40          6           0       -3.393827    3.417138    1.797970
     41          6           0       -5.173985   -1.510805   -0.562030
     42         16           0       -6.131917    0.626226    0.519970
     43          1           0       -4.283810    3.963167    2.105970
     44          1           0       -2.731832    3.285117    2.659970
     45          1           0       -2.872810    3.972122    1.011970
     46          6           0       -6.587990   -1.657760   -0.595030
     47          8           0       -4.259013   -2.398834   -1.028030
     48          6           0       -7.225955   -0.579739   -0.046030
     49          1           0       -7.106017   -2.512743   -1.002030
     50          6           0       -4.729052   -3.619819   -1.592030
     51          1           0       -8.288950   -0.428705    0.060970
     52          1           0       -5.350046   -3.432799   -2.474030
     53          1           0       -3.839070   -4.173848   -1.885030
     54          1           0       -5.294071   -4.200801   -0.856030
 ---------------------------------------------------------------------

 SCF Done:  E(RHF) =  -2348.40427788     A.U. after   19 cycles
 E2 =    -0.5325039854D+01 EUMP2 =    -0.23537293177372D+04

 The electronic state is 1-A.
 Alpha  occ. eigenvalues --  -91.98988 -91.98763 -20.60535 -20.60102 -20.56850
 Alpha  occ. eigenvalues --  -20.56827 -20.56256 -20.56223 -15.63923 -15.63543
 Alpha  occ. eigenvalues --  -11.39983 -11.39749 -11.39705 -11.39366 -11.31493
 Alpha  occ. eigenvalues --  -11.31475 -11.30879 -11.30175 -11.30103 -11.29844
 Alpha  occ. eigenvalues --  -11.29499 -11.29456 -11.29221 -11.29194 -11.28841
 Alpha  occ. eigenvalues --  -11.28417 -11.28393 -11.28361 -11.28288 -11.28168
 Alpha  occ. eigenvalues --  -11.27837 -11.27352 -11.27350 -11.27128 -11.25576
 Alpha  occ. eigenvalues --  -11.25068  -8.99076  -8.98848  -6.67229  -6.67137
 Alpha  occ. eigenvalues --   -6.67004  -6.66945  -6.66909  -6.66721  -1.43453
 Alpha  occ. eigenvalues --   -1.43115  -1.42484  -1.42071  -1.41499  -1.41056
 Alpha  occ. eigenvalues --   -1.27525  -1.27027  -1.23030  -1.19262  -1.17399
 Alpha  occ. eigenvalues --   -1.15433  -1.12691  -1.07819  -1.05805  -1.03974
 Alpha  occ. eigenvalues --   -1.00915  -1.00116  -0.99653  -0.97619  -0.96894
 Alpha  occ. eigenvalues --   -0.96513  -0.93892  -0.92416  -0.89884  -0.88771
 Alpha  occ. eigenvalues --   -0.88397  -0.86580  -0.81849  -0.79879  -0.78786
 Alpha  occ. eigenvalues --   -0.77900  -0.76330  -0.74850  -0.74570  -0.72829
 Alpha  occ. eigenvalues --   -0.72093  -0.70527  -0.69292  -0.67940  -0.67378
 Alpha  occ. eigenvalues --   -0.66951  -0.66578  -0.66426  -0.66125  -0.65842
 Alpha  occ. eigenvalues --   -0.65297  -0.64933  -0.64304  -0.63878  -0.63661
 Alpha  occ. eigenvalues --   -0.62603  -0.61697  -0.61243  -0.59934  -0.59357
 Alpha  occ. eigenvalues --   -0.59139  -0.57382  -0.57008  -0.56839  -0.56711
 Alpha  occ. eigenvalues --   -0.56480  -0.56453  -0.56126  -0.55684  -0.55583
 Alpha  occ. eigenvalues --   -0.53840  -0.53271  -0.53122  -0.52063  -0.51456
 Alpha  occ. eigenvalues --   -0.51066  -0.49422  -0.48360  -0.48115  -0.47138
 Alpha  occ. eigenvalues --   -0.46594  -0.46340  -0.45932  -0.45673  -0.44962
 Alpha  occ. eigenvalues --   -0.42921  -0.41839  -0.41259  -0.38892  -0.35085
 Alpha  occ. eigenvalues --   -0.34004  -0.33725  -0.33013  -0.25220
 Alpha virt. eigenvalues --   -0.01955   0.02953   0.03201   0.03530   0.04103
 Alpha virt. eigenvalues --    0.04181   0.04439   0.04871   0.05193   0.05326
 Alpha virt. eigenvalues --    0.05593   0.05719   0.06042   0.06357   0.06623

 Mulliken charges:
               1
     1  C    0.112238
     2  C    0.624773
     3  C   -0.484723
     4  C    1.672985
     5  C    0.030859
     6  C    0.799936
     7  C   -0.360932
     8  C    1.170720
     9  C    1.046915
    10  C   -0.019564
    11  C   -0.108007
    12  C    1.390561
    13  C    0.336241
    14  C    0.241298
    15  H   -0.634896
    16  H   -0.682737
    17  H   -0.728359
    18  N   -0.970223
    19  N   -0.965115
    20  O   -0.858731
    21  O   -0.891501
    22  O   -0.903403
    23  O   -0.810827
    24  C    0.669773
    25  H   -0.031312
    26  H   -0.037877
    27  H   -0.234799
    28  C    0.664136
    29  H   -0.017362
    30  H   -0.017480
    31  H   -0.224706
    32  C    0.874324
    33  C    0.463863
    34  S    0.351595
    35  C   -0.307373
    36  H   -0.764275
    37  C   -0.124086
    38  O   -1.095476
    39  C    1.173991
    40  C    0.943940
    41  C   -0.270263
    42  S    0.378903
    43  H   -0.347940
    44  H   -0.087794
    45  H   -0.027310
    46  C    1.053952
    47  O   -1.128739
    48  C   -0.260171
    49  H   -0.640357
    50  C    0.910922
    51  H   -0.430015
    52  H   -0.056987
    53  H   -0.330030
    54  H   -0.058552
 Sum of Mulliken charges =  -0.00000

 Dipole moment (field-independent basis, Debye):
    X=             -2.9919    Y=             -0.4351    Z=              0.2454  Tot=              3.0333
 Quadrupole moment (field-independent basis, Debye-Ang):
   XX=           -217.8320   YY=           -215.2236   ZZ=           -221.5327
   XY=              6.1334   XZ=              3.2685   YZ=             13.4863

 Normal termination of Gaussian 16 at Thu Dec 10 17:52:10 2020.
