 Gaussian 16, Revision C.01,
 Gaussian 16:  ES64L-G16RevC.01  3-Jul-2019

 -------------------------------
 # mp2/aug-cc-pvdz MaxDisk=400GB
 -------------------------------

 ------------------
 NDI_-125_b3lyp.pdb
 ------------------
 Symbolic Z-matrix:
 Charge =  0 Multiplicity = 1

                         Standard orientation:
 ---------------------------------------------------------------------
 Center     Atomic      Atomic             Coordinates (Angstroms)
 Number     Number       Type             X           Y           Z
 ---------------------------------------------------------------------
      1          6           0       -3.525064   -2.700968    0.448022
      2          6           0       -2.770050   -1.456976    0.143022
      3          6           0       -3.432036   -0.208969    0.123022
      4          6           0       -4.812035   -0.118953    0.407022
      5          6           0       -5.594049   -1.341945    0.731022
      6          6           0       -1.416051   -1.520992   -0.087978
      7          6           0       -2.690023    0.960023   -0.197978
      8          6           0       -1.299024    0.871007   -0.483978
      9          6           0       -0.641038   -0.363000   -0.366978
     10          6           0       -0.617010    2.083999   -1.019978
     11          6           0       -2.644995    3.455022   -0.548978
     12          6           0       -3.370009    2.203030   -0.216978
     13          6           0       -4.722008    2.270046    0.074022
     14          6           0       -5.448021    1.111054    0.384022
     15          1           0       -6.506021    1.159066    0.607022
     16          1           0       -5.204997    3.239051    0.056022
     17          1           0       -0.921061   -2.480997   -0.016978
     18          7           0       -1.305996    3.307007   -0.919978
     19          7           0       -4.891062   -2.558953    0.725022
     20          8           0       -3.005076   -3.800974    0.462022
     21          8           0       -6.783048   -1.300931    0.986022
     22          8           0       -3.183983    4.547028   -0.521978
     23          8           0        0.474990    2.060987   -1.552978
     24          6           0       -0.573983    4.500999   -1.367978
     25          1           0        0.422017    4.495988   -0.929978
     26          1           0       -0.472983    4.496998   -2.454978
     27          1           0       -1.134973    5.375005   -1.051978
     28          6           0       -5.624076   -3.795944    1.032022
     29          1           0       -5.558084   -4.480945    0.187022
     30          1           0       -5.181082   -4.278949    1.903022
     31          1           0       -6.658073   -3.530933    1.228022
     32          6           0        0.808960   -0.567017   -0.475978
     33          6           0        1.458950   -1.429024   -1.325978
     34         16           0        1.927969    0.234971    0.590022
     35          6           0        2.862950   -1.423040   -1.145978
     36          1           0        0.941944   -2.015018   -2.072978
     37          6           0        3.303960   -0.580045   -0.130978
     38          8           0        3.771942   -2.149050   -1.850978
     39          6           0        4.653962   -0.384060    0.329022
     40          6           0        3.287932   -3.022044   -2.865978
     41          6           0        5.091972    0.454935    1.346022
     42         16           0        6.033953   -1.222075   -0.367978
     43          1           0        4.167927   -3.503054   -3.290978
     44          1           0        2.622924   -3.785037   -2.446978
     45          1           0        2.764939   -2.464039   -3.648978
     46          6           0        6.497971    0.429920    1.559022
     47          8           0        4.184980    1.200946    2.034022
     48          6           0        7.128962   -0.431088    0.705022
     49          1           0        7.015978    1.015914    2.304022
     50          6           0        4.668990    2.090940    3.033022
     51          1           0        8.184959   -0.645099    0.644022
     52          1           0        5.347998    2.834932    2.604022
     53          1           0        3.790996    2.592950    3.437022
     54          1           0        5.176984    1.545934    3.835022
 ---------------------------------------------------------------------

 SCF Done:  E(RHF) =  -2348.40692082     A.U. after   31 cycles
 E2 =    -0.5320881848D+01 EUMP2 =    -0.23537278026632D+04

 The electronic state is 1-A.
 Alpha  occ. eigenvalues --  -91.98502 -91.98288 -20.60071 -20.59985 -20.57053
 Alpha  occ. eigenvalues --  -20.57015 -20.56525 -20.56523 -15.64110 -15.63602
 Alpha  occ. eigenvalues --  -11.40188 -11.39972 -11.39674 -11.39645 -11.30998
 Alpha  occ. eigenvalues --  -11.30795 -11.30732 -11.30229 -11.29962 -11.29920
 Alpha  occ. eigenvalues --  -11.29908 -11.29858 -11.29468 -11.29431 -11.29340
 Alpha  occ. eigenvalues --  -11.28835 -11.28810 -11.28679 -11.28510 -11.27498
 Alpha  occ. eigenvalues --  -11.27476 -11.27254 -11.27115 -11.26974 -11.25268
 Alpha  occ. eigenvalues --  -11.24669  -8.98578  -8.98379  -6.66733  -6.66639
 Alpha  occ. eigenvalues --   -6.66537  -6.66444  -6.66442  -6.66253  -1.43645
 Alpha  occ. eigenvalues --   -1.43250  -1.41986  -1.41876  -1.41709  -1.41266
 Alpha  occ. eigenvalues --   -1.27712  -1.27183  -1.23403  -1.19078  -1.17205
 Alpha  occ. eigenvalues --   -1.15460  -1.13010  -1.07868  -1.06077  -1.03659
 Alpha  occ. eigenvalues --   -1.00664  -1.00246  -0.99207  -0.97495  -0.97098
 Alpha  occ. eigenvalues --   -0.96169  -0.93837  -0.92277  -0.90034  -0.88999
 Alpha  occ. eigenvalues --   -0.88451  -0.86869  -0.81437  -0.79783  -0.78794
 Alpha  occ. eigenvalues --   -0.78091  -0.76439  -0.74509  -0.74005  -0.72939
 Alpha  occ. eigenvalues --   -0.72209  -0.70752  -0.69489  -0.68021  -0.67381
 Alpha  occ. eigenvalues --   -0.66845  -0.66394  -0.66321  -0.66105  -0.65952
 Alpha  occ. eigenvalues --   -0.65480  -0.64673  -0.64607  -0.63997  -0.63822
 Alpha  occ. eigenvalues --   -0.62436  -0.61796  -0.61045  -0.60437  -0.59638
 Alpha  occ. eigenvalues --   -0.59236  -0.57525  -0.56937  -0.56804  -0.56631
 Alpha  occ. eigenvalues --   -0.56480  -0.56362  -0.55955  -0.55869  -0.55547
 Alpha  occ. eigenvalues --   -0.53907  -0.53362  -0.52848  -0.51662  -0.51352
 Alpha  occ. eigenvalues --   -0.50788  -0.49111  -0.48187  -0.47959  -0.47389
 Alpha  occ. eigenvalues --   -0.46474  -0.46287  -0.45827  -0.45701  -0.44975
 Alpha  occ. eigenvalues --   -0.43099  -0.41970  -0.41317  -0.38114  -0.35513
 Alpha  occ. eigenvalues --   -0.33783  -0.33505  -0.33172  -0.25365
 Alpha virt. eigenvalues --   -0.01806   0.02981   0.03276   0.03498   0.03931
 Alpha virt. eigenvalues --    0.04171   0.04663   0.04868   0.05203   0.05542
 Alpha virt. eigenvalues --    0.05598   0.05770   0.06041   0.06299   0.06547

 Mulliken charges:
               1
     1  C   -0.024204
     2  C    0.999272
     3  C   -0.431312
     4  C    1.450055
     5  C    0.084967
     6  C    0.144249
     7  C   -0.421249
     8  C    1.350833
     9  C    1.226710
    10  C   -0.243796
    11  C    0.077044
    12  C    1.267426
    13  C    0.357370
    14  C    0.321319
    15  H   -0.624948
    16  H   -0.647882
    17  H   -0.778766
    18  N   -0.940301
    19  N   -0.975989
    20  O   -0.865865
    21  O   -0.901204
    22  O   -0.899464
    23  O   -0.834023
    24  C    0.712328
    25  H   -0.071830
    26  H   -0.037128
    27  H   -0.197521
    28  C    0.671862
    29  H   -0.020183
    30  H   -0.020351
    31  H   -0.225847
    32  C    1.731487
    33  C   -0.005585
    34  S    0.016870
    35  C    0.099406
    36  H   -0.803557
    37  C   -0.336355
    38  O   -1.082555
    39  C    1.112116
    40  C    0.968583
    41  C   -0.075464
    42  S    0.340004
    43  H   -0.336227
    44  H   -0.048405
    45  H   -0.068296
    46  C    0.990300
    47  O   -1.133518
    48  C   -0.256400
    49  H   -0.639121
    50  C    0.913634
    51  H   -0.427013
    52  H   -0.058016
    53  H   -0.330735
    54  H   -0.072726
 Sum of Mulliken charges =  -0.00000

 Dipole moment (field-independent basis, Debye):
    X=              1.6915    Y=              0.0080    Z=              0.3637  Tot=              1.7302
 Quadrupole moment (field-independent basis, Debye-Ang):
   XX=           -218.0699   YY=           -227.6737   ZZ=           -211.4934
   XY=              7.4371   XZ=             11.5440   YZ=             15.4368

 Normal termination of Gaussian 16 at Thu Dec 10 01:22:27 2020.
