 Gaussian 16, Revision C.01,
 Gaussian 16:  ES64L-G16RevC.01  3-Jul-2019

 -------------------------------
 # mp2/aug-cc-pvdz MaxDisk=400GB
 -------------------------------

 ------------------
 NDI_-120_b3lyp.pdb
 ------------------
 Symbolic Z-matrix:
 Charge =  0 Multiplicity = 1

                         Standard orientation:
 ---------------------------------------------------------------------
 Center     Atomic      Atomic             Coordinates (Angstroms)
 Number     Number       Type             X           Y           Z
 ---------------------------------------------------------------------
      1          6           0       -3.517923   -2.709951    0.435925
      2          6           0       -2.765914   -1.462957    0.139925
      3          6           0       -3.433905   -0.216952    0.120925
      4          6           0       -4.815904   -0.134942    0.396925
      5          6           0       -5.593913   -1.362936    0.711925
      6          6           0       -1.409914   -1.518967   -0.088075
      7          6           0       -2.694896    0.957043   -0.190075
      8          6           0       -1.302896    0.875032   -0.470075
      9          6           0       -0.641906   -0.356973   -0.360075
     10          6           0       -0.615887    2.098027   -0.979075
     11          6           0       -2.657877    3.454042   -0.527075
     12          6           0       -3.379887    2.197048   -0.208075
     13          6           0       -4.734886    2.256058    0.074925
     14          6           0       -5.456895    1.092063    0.375925
     15          1           0       -6.515895    1.134071    0.592925
     16          1           0       -5.221879    3.223061    0.058925
     17          1           0       -0.910922   -2.477971   -0.024075
     18          7           0       -1.313878    3.316032   -0.881075
     19          7           0       -4.884922   -2.575941    0.705925
     20          8           0       -2.991931   -3.807955    0.449925
     21          8           0       -6.784913   -1.327927    0.959925
     22          8           0       -3.204869    4.543046   -0.502075
     23          8           0        0.488113    2.087019   -1.485075
     24          6           0       -0.580869    4.517027   -1.308075
     25          1           0        0.403131    4.520019   -0.844075
     26          1           0       -0.451869    4.517026   -2.392075
     27          1           0       -1.157863    5.385031   -1.004075
     28          6           0       -5.613932   -3.817936    1.004925
     29          1           0       -5.541937   -4.498936    0.156925
     30          1           0       -5.172935   -4.301939    1.875925
     31          1           0       -6.649930   -3.557928    1.196925
     32          6           0        0.811093   -0.552984   -0.483075
     33          6           0        1.466087   -1.334989   -1.402075
     34         16           0        1.922098    0.175008    0.640925
     35          6           0        2.872087   -1.326999   -1.223075
     36          1           0        0.954083   -1.862985   -2.193075
     37          6           0        3.307093   -0.563002   -0.146075
     38          8           0        3.786082   -1.986006   -1.985075
     39          6           0        4.655094   -0.389012    0.326925
     40          6           0        3.309076   -2.778002   -3.068075
     41          6           0        5.087100    0.372984    1.403925
     42         16           0        6.043088   -1.156023   -0.435075
     43          1           0        4.192073   -3.214009   -3.532075
     44          1           0        2.652070   -3.577997   -2.713075
     45          1           0        2.779081   -2.161998   -3.803075
     46          6           0        6.494100    0.345974    1.612925
     47          8           0        4.173105    1.053991    2.149925
     48          6           0        7.133094   -0.439031    0.693925
     49          1           0        7.007104    0.877970    2.400925
     50          6           0        4.651111    1.867988    3.214925
     51          1           0        8.191092   -0.636039    0.615925
     52          1           0        5.322117    2.649983    2.843925
     53          1           0        3.769114    2.327994    3.657925
     54          1           0        5.166106    1.266984    3.970925
 ---------------------------------------------------------------------

 SCF Done:  E(RHF) =  -2348.40729276     A.U. after   19 cycles
 E2 =    -0.5320304975D+01 EUMP2 =    -0.23537275977389D+04

 The electronic state is 1-A.
 Alpha  occ. eigenvalues --  -91.98458 -91.98218 -20.59994 -20.59936 -20.57043
 Alpha  occ. eigenvalues --  -20.57036 -20.56601 -20.56557 -15.64148 -15.63663
 Alpha  occ. eigenvalues --  -11.40223 -11.39971 -11.39727 -11.39697 -11.30980
 Alpha  occ. eigenvalues --  -11.30706 -11.30696 -11.30266 -11.30053 -11.29975
 Alpha  occ. eigenvalues --  -11.29866 -11.29823 -11.29502 -11.29464 -11.29408
 Alpha  occ. eigenvalues --  -11.28865 -11.28857 -11.28734 -11.28505 -11.27525
 Alpha  occ. eigenvalues --  -11.27342 -11.27181 -11.27144 -11.26920 -11.25160
 Alpha  occ. eigenvalues --  -11.24620  -8.98533  -8.98308  -6.66689  -6.66593
 Alpha  occ. eigenvalues --   -6.66466  -6.66398  -6.66371  -6.66183  -1.43639
 Alpha  occ. eigenvalues --   -1.43311  -1.41886  -1.41790  -1.41685  -1.41311
 Alpha  occ. eigenvalues --   -1.27756  -1.27248  -1.23443  -1.19031  -1.17167
 Alpha  occ. eigenvalues --   -1.15435  -1.13049  -1.07860  -1.06097  -1.03632
 Alpha  occ. eigenvalues --   -1.00614  -1.00281  -0.99127  -0.97434  -0.97133
 Alpha  occ. eigenvalues --   -0.96188  -0.93788  -0.92246  -0.90090  -0.89042
 Alpha  occ. eigenvalues --   -0.88466  -0.86908  -0.81416  -0.79763  -0.78805
 Alpha  occ. eigenvalues --   -0.78101  -0.76413  -0.74489  -0.74000  -0.72932
 Alpha  occ. eigenvalues --   -0.72164  -0.70759  -0.69515  -0.68042  -0.67414
 Alpha  occ. eigenvalues --   -0.66880  -0.66362  -0.66261  -0.66084  -0.65889
 Alpha  occ. eigenvalues --   -0.65472  -0.64676  -0.64588  -0.64039  -0.63851
 Alpha  occ. eigenvalues --   -0.62423  -0.61801  -0.61001  -0.60416  -0.59645
 Alpha  occ. eigenvalues --   -0.59274  -0.57524  -0.56950  -0.56831  -0.56649
 Alpha  occ. eigenvalues --   -0.56466  -0.56341  -0.55981  -0.55860  -0.55526
 Alpha  occ. eigenvalues --   -0.53926  -0.53389  -0.52781  -0.51633  -0.51285
 Alpha  occ. eigenvalues --   -0.50718  -0.49028  -0.48178  -0.47891  -0.47422
 Alpha  occ. eigenvalues --   -0.46438  -0.46315  -0.45836  -0.45646  -0.45007
 Alpha  occ. eigenvalues --   -0.43131  -0.42003  -0.41366  -0.37942  -0.35609
 Alpha  occ. eigenvalues --   -0.33791  -0.33456  -0.33171  -0.25381
 Alpha virt. eigenvalues --   -0.01820   0.02979   0.03271   0.03506   0.03922
 Alpha virt. eigenvalues --    0.04157   0.04663   0.04867   0.05217   0.05535
 Alpha virt. eigenvalues --    0.05576   0.05776   0.06126   0.06305   0.06533

 Mulliken charges:
               1
     1  C   -0.017321
     2  C    1.030627
     3  C   -0.452666
     4  C    1.444622
     5  C    0.093804
     6  C    0.052602
     7  C   -0.307235
     8  C    1.340431
     9  C    1.249960
    10  C   -0.330905
    11  C    0.060902
    12  C    1.286035
    13  C    0.339964
    14  C    0.336784
    15  H   -0.625725
    16  H   -0.645238
    17  H   -0.781892
    18  N   -0.931097
    19  N   -0.974991
    20  O   -0.867518
    21  O   -0.900468
    22  O   -0.901074
    23  O   -0.840620
    24  C    0.716986
    25  H   -0.068276
    26  H   -0.035425
    27  H   -0.200939
    28  C    0.673354
    29  H   -0.019445
    30  H   -0.020860
    31  H   -0.226758
    32  C    1.845950
    33  C   -0.085584
    34  S   -0.005788
    35  C    0.165034
    36  H   -0.813236
    37  C   -0.412022
    38  O   -1.081805
    39  C    1.122776
    40  C    0.975813
    41  C   -0.055424
    42  S    0.336039
    43  H   -0.339292
    44  H   -0.051233
    45  H   -0.064846
    46  C    0.986940
    47  O   -1.133684
    48  C   -0.253719
    49  H   -0.639299
    50  C    0.914518
    51  H   -0.426725
    52  H   -0.058482
    53  H   -0.329945
    54  H   -0.073604
 Sum of Mulliken charges =  -0.00000

 Dipole moment (field-independent basis, Debye):
    X=              1.5188    Y=              0.0529    Z=              0.2938  Tot=              1.5478
 Quadrupole moment (field-independent basis, Debye-Ang):
   XX=           -218.6402   YY=           -229.7612   ZZ=           -209.0918
   XY=              6.9137   XZ=             11.5440   YZ=             14.9228

 Normal termination of Gaussian 16 at Thu Dec 10 01:26:00 2020.
