 Gaussian 16, Revision C.01,
 Gaussian 16:  ES64L-G16RevC.01  3-Jul-2019

 -------------------------------
 # mp2/aug-cc-pvdz MaxDisk=400GB
 -------------------------------

 ------------------
 NDI_-130_b3lyp.pdb
 ------------------
 Symbolic Z-matrix:
 Charge =  0 Multiplicity = 1

                         Standard orientation:
 ---------------------------------------------------------------------
 Center     Atomic      Atomic             Coordinates (Angstroms)
 Number     Number       Type             X           Y           Z
 ---------------------------------------------------------------------
      1          6           0       -3.525002   -2.696018    0.443974
      2          6           0       -2.769987   -1.454027    0.137974
      3          6           0       -3.429973   -0.203019    0.123974
      4          6           0       -4.807971   -0.112003    0.415974
      5          6           0       -5.589986   -1.334993    0.741974
      6          6           0       -1.416988   -1.519043   -0.098026
      7          6           0       -2.686959    0.963972   -0.199026
      8          6           0       -1.297960    0.872956   -0.494026
      9          6           0       -0.639974   -0.363052   -0.378026
     10          6           0       -0.621945    2.081948   -1.045026
     11          6           0       -2.640929    3.458972   -0.549026
     12          6           0       -3.364944    2.207980   -0.213026
     13          6           0       -4.715943    2.276996    0.086974
     14          6           0       -5.441957    1.120005    0.399974
     15          1           0       -6.497956    1.169017    0.629974
     16          1           0       -5.196932    3.247002    0.072974
     17          1           0       -0.924000   -2.480049   -0.027026
     18          7           0       -1.305931    3.307956   -0.935026
     19          7           0       -4.889000   -2.553002    0.728974
     20          8           0       -3.007015   -3.797024    0.452974
     21          8           0       -6.776985   -1.291979    1.004974
     22          8           0       -3.176916    4.551978   -0.514026
     23          8           0        0.459054    2.054935   -1.599026
     24          6           0       -0.578917    4.498947   -1.396026
     25          1           0        0.426083    4.488935   -0.978026
     26          1           0       -0.498917    4.496946   -2.485026
     27          1           0       -1.129906    5.374954   -1.067026
     28          6           0       -5.623015   -3.788993    1.036974
     29          1           0       -5.562023   -4.472994    0.190974
     30          1           0       -5.177021   -4.274998    1.904974
     31          1           0       -6.655012   -3.522981    1.237974
     32          6           0        0.809023   -0.571069   -0.477026
     33          6           0        1.452012   -1.501077   -1.262026
     34         16           0        1.935033    0.288917    0.533974
     35          6           0        2.854012   -1.499094   -1.077026
     36          1           0        0.930005   -2.133071   -1.966026
     37          6           0        3.302023   -0.593099   -0.120026
     38          8           0        3.757003   -2.283104   -1.727026
     39          6           0        4.652025   -0.381115    0.327974
     40          6           0        3.265992   -3.222098   -2.677026
     41          6           0        5.098036    0.520880    1.287974
     42         16           0        6.025015   -1.279131   -0.307026
     43          1           0        4.140985   -3.741109   -3.064026
     44          1           0        2.592983   -3.946090   -2.205026
     45          1           0        2.747998   -2.718092   -3.499026
     46          6           0        6.503036    0.493863    1.505974
     47          8           0        4.198046    1.319890    1.920974
     48          6           0        7.126025   -0.429144    0.712974
     49          1           0        7.026043    1.123857    2.209974
     50          6           0        4.689057    2.271885    2.857974
     51          1           0        8.180022   -0.658157    0.670974
     52          1           0        5.377065    2.977876    2.379974
     53          1           0        3.816063    2.808895    3.224974
     54          1           0        5.190051    1.777879    3.696974
 ---------------------------------------------------------------------

 SCF Done:  E(RHF) =  -2348.40631200     A.U. after   31 cycles
 E2 =    -0.5321696596D+01 EUMP2 =    -0.23537280085987D+04

 The electronic state is 1-A.
 Alpha  occ. eigenvalues --  -91.98560 -91.98357 -20.60158 -20.60016 -20.57034
 Alpha  occ. eigenvalues --  -20.56998 -20.56483 -20.56482 -15.64096 -15.63544
 Alpha  occ. eigenvalues --  -11.40167 -11.39951 -11.39622 -11.39608 -11.31022
 Alpha  occ. eigenvalues --  -11.30902 -11.30770 -11.30188 -11.29991 -11.29884
 Alpha  occ. eigenvalues --  -11.29874 -11.29856 -11.29440 -11.29415 -11.29280
 Alpha  occ. eigenvalues --  -11.28815 -11.28744 -11.28624 -11.28536 -11.27606
 Alpha  occ. eigenvalues --  -11.27481 -11.27334 -11.27086 -11.27031 -11.25374
 Alpha  occ. eigenvalues --  -11.24721  -8.98640  -8.98446  -6.66794  -6.66701
 Alpha  occ. eigenvalues --   -6.66604  -6.66509  -6.66506  -6.66321  -1.43640
 Alpha  occ. eigenvalues --   -1.43220  -1.42089  -1.41909  -1.41703  -1.41246
 Alpha  occ. eigenvalues --   -1.27698  -1.27135  -1.23359  -1.19125  -1.17227
 Alpha  occ. eigenvalues --   -1.15469  -1.12962  -1.07883  -1.06034  -1.03702
 Alpha  occ. eigenvalues --   -1.00718  -1.00229  -0.99283  -0.97555  -0.97073
 Alpha  occ. eigenvalues --   -0.96160  -0.93895  -0.92302  -0.89984  -0.88975
 Alpha  occ. eigenvalues --   -0.88415  -0.86850  -0.81483  -0.79818  -0.78791
 Alpha  occ. eigenvalues --   -0.78075  -0.76457  -0.74542  -0.73984  -0.72954
 Alpha  occ. eigenvalues --   -0.72252  -0.70730  -0.69485  -0.68000  -0.67362
 Alpha  occ. eigenvalues --   -0.66820  -0.66436  -0.66362  -0.66123  -0.65990
 Alpha  occ. eigenvalues --   -0.65478  -0.64730  -0.64582  -0.63948  -0.63802
 Alpha  occ. eigenvalues --   -0.62456  -0.61796  -0.61088  -0.60444  -0.59616
 Alpha  occ. eigenvalues --   -0.59201  -0.57536  -0.56930  -0.56773  -0.56632
 Alpha  occ. eigenvalues --   -0.56511  -0.56426  -0.55956  -0.55883  -0.55557
 Alpha  occ. eigenvalues --   -0.53890  -0.53303  -0.52897  -0.51687  -0.51417
 Alpha  occ. eigenvalues --   -0.50867  -0.49196  -0.48188  -0.48023  -0.47364
 Alpha  occ. eigenvalues --   -0.46508  -0.46264  -0.45828  -0.45734  -0.44955
 Alpha  occ. eigenvalues --   -0.43056  -0.41952  -0.41271  -0.38286  -0.35448
 Alpha  occ. eigenvalues --   -0.33761  -0.33552  -0.33158  -0.25334
 Alpha virt. eigenvalues --   -0.01832   0.02978   0.03283   0.03490   0.03937
 Alpha virt. eigenvalues --    0.04185   0.04657   0.04865   0.05187   0.05519
 Alpha virt. eigenvalues --    0.05646   0.05770   0.05958   0.06294   0.06568

 Mulliken charges:
               1
     1  C   -0.019388
     2  C    0.966429
     3  C   -0.465349
     4  C    1.485412
     5  C    0.071885
     6  C    0.238943
     7  C   -0.532288
     8  C    1.356124
     9  C    1.218238
    10  C   -0.149407
    11  C    0.069307
    12  C    1.266120
    13  C    0.382547
    14  C    0.307123
    15  H   -0.626218
    16  H   -0.652151
    17  H   -0.774679
    18  N   -0.948906
    19  N   -0.967890
    20  O   -0.865065
    21  O   -0.900620
    22  O   -0.898402
    23  O   -0.823423
    24  C    0.704767
    25  H   -0.074458
    26  H   -0.038007
    27  H   -0.193857
    28  C    0.674584
    29  H   -0.020390
    30  H   -0.019758
    31  H   -0.227692
    32  C    1.587751
    33  C    0.125694
    34  S    0.051292
    35  C   -0.011590
    36  H   -0.806865
    37  C   -0.255634
    38  O   -1.086667
    39  C    1.116682
    40  C    0.968919
    41  C   -0.114774
    42  S    0.348203
    43  H   -0.338369
    44  H   -0.049035
    45  H   -0.069442
    46  C    1.001238
    47  O   -1.132653
    48  C   -0.263612
    49  H   -0.639620
    50  C    0.909911
    51  H   -0.426128
    52  H   -0.053732
    53  H   -0.333688
    54  H   -0.071410
 Sum of Mulliken charges =  -0.00000

 Dipole moment (field-independent basis, Debye):
    X=              1.8626    Y=             -0.0387    Z=              0.4325  Tot=              1.9125
 Quadrupole moment (field-independent basis, Debye-Ang):
   XX=           -217.5017   YY=           -225.9074   ZZ=           -213.6067
   XY=              8.0045   XZ=             11.5998   YZ=             15.5435

 Normal termination of Gaussian 16 at Wed Dec  9 23:46:16 2020.
