 Gaussian 16, Revision C.01,
 Gaussian 16:  ES64L-G16RevC.01  3-Jul-2019

 -------------------------------
 # mp2/aug-cc-pvdz MaxDisk=400GB
 -------------------------------

 -----------------
 NDI_-85_b3lyp.pdb
 -----------------
 Symbolic Z-matrix:
 Charge =  0 Multiplicity = 1

                         Standard orientation:
 ---------------------------------------------------------------------
 Center     Atomic      Atomic             Coordinates (Angstroms)
 Number     Number       Type             X           Y           Z
 ---------------------------------------------------------------------
      1          6           0        3.105049   -2.864020    0.458955
      2          6           0        2.543058   -1.495016    0.305955
      3          6           0        3.392065   -0.405021    0.014955
      4          6           0        4.784063   -0.597030   -0.140045
      5          6           0        5.378055   -1.954034    0.007955
      6          6           0        1.189059   -1.291008    0.454955
      7          6           0        2.829073    0.891982   -0.129045
      8          6           0        1.428074    1.085991    0.028955
      9          6           0        0.606067   -0.004004    0.340955
     10          6           0        0.871083    2.459994   -0.164045
     11          6           0        3.162088    3.344980   -0.611045
     12          6           0        3.695080    1.969977   -0.435045
     13          6           0        5.055078    1.759968   -0.582045
     14          6           0        5.604070    0.476965   -0.433045
     15          1           0        6.667069    0.308958   -0.548045
     16          1           0        5.685084    2.608964   -0.816045
     17          1           0        0.555054   -2.138004    0.681955
     18          7           0        1.780089    3.488989   -0.475045
     19          7           0        4.490048   -3.001028    0.297955
     20          8           0        2.415043   -3.833015    0.712955
     21          8           0        6.572054   -2.151042   -0.115045
     22          8           0        3.884094    4.291975   -0.865045
     23          8           0       -0.309916    2.726002   -0.074045
     24          6           0        1.193098    4.824992   -0.662045
     25          1           0        0.453098    4.791997   -1.462045
     26          1           0        0.695100    5.141996    0.253955
     27          1           0        1.998102    5.508987   -0.912045
     28          6           0        5.030040   -4.360032    0.451955
     29          1           0        4.805037   -4.735030    1.449955
     30          1           0        4.567035   -5.025029   -0.278045
     31          1           0        6.103040   -4.313039    0.295955
     32          6           0       -0.857932    0.076005    0.551955
     33          6           0       -1.524930    0.392010    1.703955
     34         16           0       -1.948936   -0.455988   -0.694045
     35          6           0       -2.931931    0.242019    1.578955
     36          1           0       -1.023928    0.734006    2.597955
     37          6           0       -3.351934   -0.207979    0.336955
     38          8           0       -3.855930    0.487024    2.549955
     39          6           0       -4.700936   -0.437970   -0.118045
     40          6           0       -3.410926    1.097022    3.755955
     41          6           0       -5.112939   -0.914968   -1.354045
     42         16           0       -6.111934   -0.118961    0.881955
     43          1           0       -4.303925    1.258027    4.356955
     44          1           0       -2.721930    0.443017    4.300955
     45          1           0       -2.925920    2.059019    3.555955
     46          6           0       -6.524939   -1.020959   -1.499045
     47          8           0       -4.177941   -1.230974   -2.294045
     48          6           0       -7.186937   -0.624954   -0.371045
     49          1           0       -7.024942   -1.373956   -2.389045
     50          6           0       -4.632944   -1.720971   -3.550045
     51          1           0       -8.251937   -0.605948   -0.202045
     52          1           0       -5.255939   -0.979967   -4.062045
     53          1           0       -3.736945   -1.908976   -4.140045
     54          1           0       -5.191950   -2.654967   -3.432045
 ---------------------------------------------------------------------

 SCF Done:  E(RHF) =  -2348.40874915     A.U. after   21 cycles
 E2 =    -0.5316869362D+01 EUMP2 =    -0.23537256185076D+04

 The electronic state is 1-A.
 Alpha  occ. eigenvalues --  -91.98467 -91.98031 -20.59802 -20.59776 -20.57074
 Alpha  occ. eigenvalues --  -20.57065 -20.56822 -20.56736 -15.64179 -15.63903
 Alpha  occ. eigenvalues --  -11.40255 -11.39998 -11.39952 -11.39913 -11.31031
 Alpha  occ. eigenvalues --  -11.30553 -11.30454 -11.30401 -11.30301 -11.30110
 Alpha  occ. eigenvalues --  -11.29695 -11.29656 -11.29589 -11.29543 -11.29517
 Alpha  occ. eigenvalues --  -11.28988 -11.28865 -11.28842 -11.28454 -11.27547
 Alpha  occ. eigenvalues --  -11.27316 -11.27000 -11.26970 -11.26777 -11.24760
 Alpha  occ. eigenvalues --  -11.24464  -8.98525  -8.98123  -6.66684  -6.66586
 Alpha  occ. eigenvalues --   -6.66392  -6.66281  -6.66186  -6.65998  -1.43715
 Alpha  occ. eigenvalues --   -1.43577  -1.41769  -1.41668  -1.41596  -1.41571
 Alpha  occ. eigenvalues --   -1.27832  -1.27419  -1.23554  -1.18922  -1.17065
 Alpha  occ. eigenvalues --   -1.15390  -1.13137  -1.07808  -1.06167  -1.03512
 Alpha  occ. eigenvalues --   -1.00471  -1.00360  -0.98942  -0.97349  -0.97022
 Alpha  occ. eigenvalues --   -0.96311  -0.93538  -0.92130  -0.90233  -0.89143
 Alpha  occ. eigenvalues --   -0.88583  -0.86926  -0.81363  -0.79669  -0.78796
 Alpha  occ. eigenvalues --   -0.78115  -0.76188  -0.74720  -0.74018  -0.72786
 Alpha  occ. eigenvalues --   -0.72017  -0.70814  -0.69575  -0.68156  -0.67490
 Alpha  occ. eigenvalues --   -0.66981  -0.66419  -0.66033  -0.65957  -0.65704
 Alpha  occ. eigenvalues --   -0.65482  -0.64836  -0.64462  -0.64188  -0.63940
 Alpha  occ. eigenvalues --   -0.62420  -0.61800  -0.60850  -0.60316  -0.59599
 Alpha  occ. eigenvalues --   -0.59428  -0.57441  -0.57084  -0.57026  -0.56704
 Alpha  occ. eigenvalues --   -0.56454  -0.56232  -0.55989  -0.55921  -0.55438
 Alpha  occ. eigenvalues --   -0.54003  -0.53515  -0.52609  -0.51565  -0.51121
 Alpha  occ. eigenvalues --   -0.50459  -0.48792  -0.47978  -0.47722  -0.47626
 Alpha  occ. eigenvalues --   -0.46506  -0.46308  -0.45948  -0.45543  -0.45146
 Alpha  occ. eigenvalues --   -0.43260  -0.42078  -0.41556  -0.37301  -0.35951
 Alpha  occ. eigenvalues --   -0.33915  -0.33385  -0.33109  -0.25434
 Alpha virt. eigenvalues --   -0.01764   0.02928   0.03279   0.03515   0.03925
 Alpha virt. eigenvalues --    0.04084   0.04611   0.04807   0.05202   0.05553
 Alpha virt. eigenvalues --    0.05577   0.05942   0.06272   0.06385   0.06581

 Mulliken charges:
               1
     1  C    0.051513
     2  C    1.063823
     3  C   -0.612704
     4  C    1.697324
     5  C    0.002765
     6  C   -0.028716
     7  C   -0.245828
     8  C    1.052307
     9  C    1.406463
    10  C   -0.455004
    11  C   -0.019188
    12  C    1.455976
    13  C    0.363758
    14  C    0.279468
    15  H   -0.634340
    16  H   -0.651625
    17  H   -0.795904
    18  N   -0.954501
    19  N   -0.953322
    20  O   -0.861734
    21  O   -0.888954
    22  O   -0.904192
    23  O   -0.837098
    24  C    0.685079
    25  H   -0.013468
    26  H   -0.017224
    27  H   -0.249182
    28  C    0.677185
    29  H   -0.023551
    30  H   -0.017337
    31  H   -0.234238
    32  C    2.115813
    33  C   -0.081361
    34  S    0.062590
    35  C    0.269182
    36  H   -0.829286
    37  C   -0.811862
    38  O   -1.103485
    39  C    1.351073
    40  C    0.978112
    41  C   -0.165898
    42  S    0.339480
    43  H   -0.345519
    44  H   -0.095633
    45  H   -0.041058
    46  C    1.012153
    47  O   -1.127594
    48  C   -0.254304
    49  H   -0.637434
    50  C    0.918394
    51  H   -0.427852
    52  H   -0.062900
    53  H   -0.327004
    54  H   -0.073158
 Sum of Mulliken charges =  -0.00000

 Dipole moment (field-independent basis, Debye):
    X=             -0.9530    Y=              0.1758    Z=             -0.0545  Tot=              0.9706
 Quadrupole moment (field-independent basis, Debye-Ang):
   XX=           -221.5070   YY=           -234.4371   ZZ=           -201.7711
   XY=              1.4993   XZ=             10.4010   YZ=             12.3750

 Normal termination of Gaussian 16 at Thu Dec 10 14:12:55 2020.
