 Gaussian 16, Revision C.01,
 Gaussian 16:  ES64L-G16RevC.01  3-Jul-2019

 -------------------------------
 # mp2/aug-cc-pvdz MaxDisk=400GB
 -------------------------------

 ----------------
 NDI_15_b3lyp.pdb
 ----------------
 Symbolic Z-matrix:
 Charge =  0 Multiplicity = 1

                         Standard orientation:
 ---------------------------------------------------------------------
 Center     Atomic      Atomic             Coordinates (Angstroms)
 Number     Number       Type             X           Y           Z
 ---------------------------------------------------------------------
      1          6           0        2.499047   -3.032905   -0.122011
      2          6           0        2.223005   -1.573913   -0.034011
      3          6           0        3.283978   -0.639882   -0.057011
      4          6           0        4.616990   -1.075843   -0.182011
      5          6           0        4.930032   -2.525834   -0.286011
      6          6           0        0.926992   -1.139951    0.025989
      7          6           0        2.971937    0.742109    0.059989
      8          6           0        1.616924    1.184069    0.181989
      9          6           0        0.554952    0.239039    0.097989
     10          6           0        1.411883    2.612063    0.537989
     11          6           0        3.828868    3.108134    0.172989
     12          6           0        4.057911    1.654141    0.039989
     13          6           0        5.364924    1.208179   -0.101011
     14          6           0        5.652963   -0.153813   -0.209011
     15          1           0        6.670974   -0.507783   -0.311011
     16          1           0        6.154902    1.948202   -0.120011
     17          1           0        0.161014   -1.902973   -0.022011
     18          7           0        2.509857    3.486095    0.431989
     19          7           0        3.840058   -3.412866   -0.241011
     20          8           0        1.619072   -3.873930   -0.096011
     21          8           0        6.069044   -2.935801   -0.400011
     22          8           0        4.726845    3.929160    0.089989
     23          8           0        0.355869    3.075033    0.938989
     24          6           0        2.237816    4.901088    0.717989
     25          1           0        1.430806    5.257064    0.077989
     26          1           0        1.929813    5.021079    1.757989
     27          1           0        3.149800    5.458114    0.526989
     28          6           0        4.103100   -4.855858   -0.332011
     29          1           0        3.717115   -5.355869    0.556989
     30          1           0        3.598112   -5.268873   -1.206011
     31          1           0        5.176104   -4.994827   -0.412011
     32          6           0       -0.871056    0.501997   -0.051011
     33          6           0       -1.563089    1.642977   -0.416011
     34         16           0       -2.014018   -0.808036    0.259989
     35          6           0       -2.954084    1.468936   -0.470011
     36          1           0       -1.079116    2.576991   -0.635011
     37          6           0       -3.393047    0.188924   -0.119011
     38          8           0       -3.873111    2.407910   -0.812011
     39          6           0       -4.743033   -0.288116   -0.052011
     40          6           0       -3.409150    3.729923   -1.083011
     41          6           0       -5.175995   -1.567128    0.287989
     42         16           0       -6.139062    0.724844   -0.407011
     43          1           0       -4.301167    4.321897   -1.282011
     44          1           0       -2.875162    4.141939   -0.222011
     45          1           0       -2.759150    3.742942   -1.964011
     46          6           0       -6.587991   -1.728169    0.264989
     47          8           0       -4.259968   -2.516102    0.601989
     48          6           0       -7.228024   -0.573188   -0.093011
     49          1           0       -7.104964   -2.648184    0.498989
     50          6           0       -4.724930   -3.822115    0.936989
     51          1           0       -8.291029   -0.414219   -0.191011
     52          1           0       -5.271917   -4.270131    0.100989
     53          1           0       -3.832913   -4.410089    1.143989
     54          1           0       -5.360931   -3.796134    1.826989
 ---------------------------------------------------------------------

 SCF Done:  E(RHF) =  -2348.40082751     A.U. after   21 cycles
 E2 =    -0.5327129227D+01 EUMP2 =    -0.23537279567402D+04

 The electronic state is 1-A.
 Alpha  occ. eigenvalues --  -91.99101 -91.99017 -20.60784 -20.60226 -20.56774
 Alpha  occ. eigenvalues --  -20.56768 -20.56206 -20.56100 -15.63843 -15.63450
 Alpha  occ. eigenvalues --  -11.39895 -11.39679 -11.39648 -11.39225 -11.31865
 Alpha  occ. eigenvalues --  -11.31707 -11.30978 -11.30332 -11.29983 -11.29911
 Alpha  occ. eigenvalues --  -11.29258 -11.29211 -11.29075 -11.29029 -11.28870
 Alpha  occ. eigenvalues --  -11.28620 -11.28479 -11.28329 -11.28178 -11.28162
 Alpha  occ. eigenvalues --  -11.27941 -11.27558 -11.27301 -11.27130 -11.25664
 Alpha  occ. eigenvalues --  -11.25304  -8.99205  -8.99098  -6.67356  -6.67263
 Alpha  occ. eigenvalues --   -6.67254  -6.67158  -6.67071  -6.66970  -1.43404
 Alpha  occ. eigenvalues --   -1.43014  -1.42747  -1.42202  -1.41454  -1.40925
 Alpha  occ. eigenvalues --   -1.27459  -1.26947  -1.22876  -1.19388  -1.17513
 Alpha  occ. eigenvalues --   -1.15414  -1.12537  -1.07822  -1.05682  -1.04132
 Alpha  occ. eigenvalues --   -1.01066  -1.00051  -0.99830  -0.97777  -0.96845
 Alpha  occ. eigenvalues --   -0.96509  -0.94036  -0.92482  -0.89811  -0.88668
 Alpha  occ. eigenvalues --   -0.88367  -0.86478  -0.81997  -0.80019  -0.78765
 Alpha  occ. eigenvalues --   -0.77831  -0.76409  -0.75038  -0.74542  -0.73052
 Alpha  occ. eigenvalues --   -0.71943  -0.70457  -0.69271  -0.67974  -0.67442
 Alpha  occ. eigenvalues --   -0.66953  -0.66760  -0.66345  -0.66238  -0.65785
 Alpha  occ. eigenvalues --   -0.65316  -0.65005  -0.64167  -0.63898  -0.63601
 Alpha  occ. eigenvalues --   -0.62577  -0.61736  -0.61306  -0.59693  -0.59425
 Alpha  occ. eigenvalues --   -0.59042  -0.57386  -0.57208  -0.56918  -0.56634
 Alpha  occ. eigenvalues --   -0.56438  -0.56423  -0.56298  -0.55569  -0.55477
 Alpha  occ. eigenvalues --   -0.53878  -0.53238  -0.53119  -0.52322  -0.51361
 Alpha  occ. eigenvalues --   -0.51229  -0.49809  -0.48580  -0.48048  -0.47109
 Alpha  occ. eigenvalues --   -0.46650  -0.46219  -0.45821  -0.45649  -0.44878
 Alpha  occ. eigenvalues --   -0.42836  -0.41778  -0.41187  -0.39245  -0.35040
 Alpha  occ. eigenvalues --   -0.34251  -0.33780  -0.32928  -0.25206
 Alpha virt. eigenvalues --   -0.01963   0.02884   0.03237   0.03550   0.04102
 Alpha virt. eigenvalues --    0.04164   0.04250   0.04940   0.05118   0.05317
 Alpha virt. eigenvalues --    0.05521   0.05710   0.05999   0.06494   0.06733

 Mulliken charges:
               1
     1  C    0.090473
     2  C    0.675738
     3  C   -0.658612
     4  C    1.687791
     5  C    0.118681
     6  C    0.850168
     7  C   -0.179443
     8  C    1.007640
     9  C    0.788428
    10  C    0.195116
    11  C   -0.161707
    12  C    1.322721
    13  C    0.301759
    14  C    0.226973
    15  H   -0.631967
    16  H   -0.689783
    17  H   -0.665853
    18  N   -0.965423
    19  N   -0.963610
    20  O   -0.862842
    21  O   -0.888445
    22  O   -0.896985
    23  O   -0.848194
    24  C    0.662935
    25  H   -0.053007
    26  H   -0.026232
    27  H   -0.231908
    28  C    0.664407
    29  H   -0.016029
    30  H   -0.015345
    31  H   -0.226337
    32  C    0.681955
    33  C    0.707298
    34  S    0.498750
    35  C   -0.393454
    36  H   -0.765270
    37  C    0.061200
    38  O   -1.109129
    39  C    1.073594
    40  C    0.932485
    41  C   -0.253022
    42  S    0.350621
    43  H   -0.354232
    44  H   -0.038533
    45  H   -0.063761
    46  C    1.036583
    47  O   -1.127079
    48  C   -0.247205
    49  H   -0.637816
    50  C    0.910828
    51  H   -0.431600
    52  H   -0.055673
    53  H   -0.329981
    54  H   -0.057666
 Sum of Mulliken charges =  -0.00000

 Dipole moment (field-independent basis, Debye):
    X=             -3.6907    Y=             -0.5889    Z=             -0.3883  Tot=              3.7575
 Quadrupole moment (field-independent basis, Debye-Ang):
   XX=           -215.8973   YY=           -211.6484   ZZ=           -225.6701
   XY=              6.7512   XZ=              0.3150   YZ=             -8.5666

 Normal termination of Gaussian 16 at Tue Dec 15 01:59:42 2020.
