 Gaussian 16, Revision C.01,
 Gaussian 16:  ES64L-G16RevC.01  3-Jul-2019

 -------------------------------
 # mp2/aug-cc-pvdz MaxDisk=400GB
 -------------------------------

 -----------------
 NDI_-10_b3lyp.pdb
 -----------------
 Symbolic Z-matrix:
 Charge =  0 Multiplicity = 1

                         Standard orientation:
 ---------------------------------------------------------------------
 Center     Atomic      Atomic             Coordinates (Angstroms)
 Number     Number       Type             X           Y           Z
 ---------------------------------------------------------------------
      1          6           0       -2.461135   -3.037901   -0.045004
      2          6           0       -2.204120   -1.574903    0.013996
      3          6           0       -3.274111   -0.653893   -0.048004
      4          6           0       -4.600115   -1.106880   -0.188004
      5          6           0       -4.894130   -2.562877   -0.265004
      6          6           0       -0.915116   -1.123916    0.085996
      7          6           0       -2.978097    0.734104    0.044996
      8          6           0       -1.630093    1.194091    0.185996
      9          6           0       -0.555102    0.260080    0.135996
     10          6           0       -1.454078    2.630089    0.519996
     11          6           0       -3.864074    3.092113    0.078996
     12          6           0       -4.074088    1.633115   -0.020004
     13          6           0       -5.373093    1.169128   -0.177004
     14          6           0       -5.645106   -0.198869   -0.257004
     15          1           0       -6.657110   -0.564859   -0.370004
     16          1           0       -6.170086    1.899136   -0.231004
     17          1           0       -0.143123   -1.882924    0.070996
     18          7           0       -2.556070    3.490100    0.358996
     19          7           0       -3.795139   -3.435888   -0.180004
     20          8           0       -1.573143   -3.867910    0.015996
     21          8           0       -6.027134   -2.987865   -0.390004
     22          8           0       -4.768066    3.900122   -0.045004
     23          8           0       -0.418074    3.113079    0.948996
     24          6           0       -2.306056    4.915098    0.616996
     25          1           0       -2.045054    5.066095    1.664996
     26          1           0       -1.475052    5.259089    0.002996
     27          1           0       -3.213050    5.458107    0.371996
     28          6           0       -4.040153   -4.883885   -0.242004
     29          1           0       -3.511157   -5.310890   -1.095004
     30          1           0       -3.670158   -5.358889    0.665996
     31          1           0       -5.110155   -5.036875   -0.343004
     32          6           0        0.870901    0.530066   -0.004004
     33          6           0        1.571912    1.686059   -0.303004
     34         16           0        2.012888   -0.800945    0.229996
     35          6           0        2.961911    1.508045   -0.371004
     36          1           0        1.094922    2.635064   -0.461004
     37          6           0        3.394898    0.207041   -0.097004
     38          8           0        3.884920    2.461036   -0.658004
     39          6           0        4.742893   -0.279973   -0.064004
     40          6           0        3.425933    3.796041   -0.866004
     41          6           0        5.169880   -1.577977    0.204996
     42         16           0        6.141903    0.743014   -0.373004
     43          1           0        4.318939    4.394032   -1.034004
     44          1           0        2.775934    3.854047   -1.745004
     45          1           0        2.891937    4.169046    0.013996
     46          6           0        6.580878   -1.745991    0.163996
     47          8           0        4.250870   -2.536968    0.473996
     48          6           0        7.224890   -0.576997   -0.136004
     49          1           0        7.092869   -2.678996    0.345996
     50          6           0        4.708857   -3.860972    0.735996
     51          1           0        8.287891   -0.418008   -0.232004
     52          1           0        5.349857   -3.885979    1.621996
     53          1           0        3.814851   -4.454963    0.915996
     54          1           0        5.248853   -4.266978   -0.126004
 ---------------------------------------------------------------------

 SCF Done:  E(RHF) =  -2348.40006983     A.U. after   21 cycles
 E2 =    -0.5327165626D+01 EUMP2 =    -0.23537272354587D+04

 The electronic state is 1-A.
 Alpha  occ. eigenvalues --  -91.99105 -91.99068 -20.60827 -20.60247 -20.56758
 Alpha  occ. eigenvalues --  -20.56749 -20.56247 -20.56065 -15.63831 -15.63433
 Alpha  occ. eigenvalues --  -11.39878 -11.39662 -11.39656 -11.39172 -11.31942
 Alpha  occ. eigenvalues --  -11.31781 -11.30985 -11.30349 -11.29974 -11.29909
 Alpha  occ. eigenvalues --  -11.29234 -11.29164 -11.29032 -11.28982 -11.28948
 Alpha  occ. eigenvalues --  -11.28572 -11.28561 -11.28322 -11.28227 -11.28141
 Alpha  occ. eigenvalues --  -11.27886 -11.27596 -11.27293 -11.27124 -11.25629
 Alpha  occ. eigenvalues --  -11.25340  -8.99214  -8.99148  -6.67365  -6.67304
 Alpha  occ. eigenvalues --   -6.67271  -6.67208  -6.67079  -6.67020  -1.43384
 Alpha  occ. eigenvalues --   -1.43059  -1.42838  -1.42231  -1.41435  -1.40965
 Alpha  occ. eigenvalues --   -1.27445  -1.26957  -1.22834  -1.19398  -1.17530
 Alpha  occ. eigenvalues --   -1.15404  -1.12514  -1.07817  -1.05661  -1.04159
 Alpha  occ. eigenvalues --   -1.01096  -1.00042  -0.99851  -0.97825  -0.96850
 Alpha  occ. eigenvalues --   -0.96511  -0.94051  -0.92482  -0.89820  -0.88655
 Alpha  occ. eigenvalues --   -0.88369  -0.86461  -0.82021  -0.80050  -0.78769
 Alpha  occ. eigenvalues --   -0.77836  -0.76435  -0.75090  -0.74550  -0.73116
 Alpha  occ. eigenvalues --   -0.71908  -0.70448  -0.69298  -0.68017  -0.67453
 Alpha  occ. eigenvalues --   -0.66954  -0.66810  -0.66348  -0.66245  -0.65795
 Alpha  occ. eigenvalues --   -0.65328  -0.65024  -0.64130  -0.63917  -0.63612
 Alpha  occ. eigenvalues --   -0.62573  -0.61752  -0.61314  -0.59656  -0.59425
 Alpha  occ. eigenvalues --   -0.59024  -0.57387  -0.57235  -0.56950  -0.56635
 Alpha  occ. eigenvalues --   -0.56448  -0.56421  -0.56310  -0.55583  -0.55460
 Alpha  occ. eigenvalues --   -0.53886  -0.53240  -0.53105  -0.52372  -0.51319
 Alpha  occ. eigenvalues --   -0.51248  -0.49878  -0.48611  -0.48042  -0.47097
 Alpha  occ. eigenvalues --   -0.46667  -0.46184  -0.45765  -0.45645  -0.44865
 Alpha  occ. eigenvalues --   -0.42834  -0.41777  -0.41197  -0.39304  -0.35036
 Alpha  occ. eigenvalues --   -0.34310  -0.33766  -0.32928  -0.25213
 Alpha virt. eigenvalues --   -0.01943   0.02870   0.03250   0.03552   0.04088
 Alpha virt. eigenvalues --    0.04131   0.04243   0.04952   0.05141   0.05312
 Alpha virt. eigenvalues --    0.05515   0.05705   0.05995   0.06516   0.06772

 Mulliken charges:
               1
     1  C    0.054882
     2  C    0.743572
     3  C   -0.736569
     4  C    1.744484
     5  C    0.112290
     6  C    0.830637
     7  C   -0.134645
     8  C    0.979855
     9  C    0.649661
    10  C    0.194983
    11  C   -0.182355
    12  C    1.325930
    13  C    0.303089
    14  C    0.212912
    15  H   -0.637898
    16  H   -0.697130
    17  H   -0.638413
    18  N   -0.970655
    19  N   -0.954119
    20  O   -0.862403
    21  O   -0.889086
    22  O   -0.896512
    23  O   -0.855756
    24  C    0.672044
    25  H   -0.029781
    26  H   -0.057126
    27  H   -0.229645
    28  C    0.666965
    29  H   -0.014434
    30  H   -0.019112
    31  H   -0.226613
    32  C    0.676630
    33  C    0.691413
    34  S    0.577613
    35  C   -0.325039
    36  H   -0.761824
    37  C    0.092807
    38  O   -1.105750
    39  C    1.056123
    40  C    0.939421
    41  C   -0.233020
    42  S    0.334526
    43  H   -0.362133
    44  H   -0.055500
    45  H   -0.038930
    46  C    1.027372
    47  O   -1.126700
    48  C   -0.240287
    49  H   -0.640130
    50  C    0.910054
    51  H   -0.432465
    52  H   -0.059258
    53  H   -0.330104
    54  H   -0.053872
 Sum of Mulliken charges =  -0.00000

 Dipole moment (field-independent basis, Debye):
    X=              3.8314    Y=             -0.6091    Z=             -0.4200  Tot=              3.9022
 Quadrupole moment (field-independent basis, Debye-Ang):
   XX=           -215.6881   YY=           -210.7622   ZZ=           -226.5848
   XY=             -6.8996   XZ=             -1.3754   YZ=             -6.8537

 Normal termination of Gaussian 16 at Tue Dec 15 00:42:41 2020.
