 Gaussian 16, Revision C.01,
 Gaussian 16:  ES64L-G16RevC.01  3-Jul-2019

 -------------------------------
 # mp2/aug-cc-pvdz MaxDisk=400GB
 -------------------------------

 -----------------
 NDI_-90_b3lyp.pdb
 -----------------
 Symbolic Z-matrix:
 Charge =  0 Multiplicity = 1

                         Standard orientation:
 ---------------------------------------------------------------------
 Center     Atomic      Atomic             Coordinates (Angstroms)
 Number     Number       Type             X           Y           Z
 ---------------------------------------------------------------------
      1          6           0        3.194980   -2.856015    0.318996
      2          6           0        2.591975   -1.499017    0.239996
      3          6           0        3.404971   -0.373014   -0.016004
      4          6           0        4.797972   -0.517009   -0.205004
      5          6           0        5.432977   -1.862007   -0.135004
      6          6           0        1.235975   -1.341022    0.417996
      7          6           0        2.803967    0.912984   -0.085004
      8          6           0        1.400966    1.058979    0.107996
      9          6           0        0.613970   -0.068024    0.365996
     10          6           0        0.807962    2.429977    0.024996
     11          6           0        3.060958    3.396985   -0.444004
     12          6           0        3.633963    2.029987   -0.351004
     13          6           0        4.995964    1.864991   -0.534004
     14          6           0        5.581968    0.592994   -0.461004
     15          1           0        6.646969    0.459997   -0.603004
     16          1           0        5.597960    2.741994   -0.736004
     17          1           0        0.627978   -2.215024    0.610996
     18          7           0        1.679958    3.496980   -0.258004
     19          7           0        4.579981   -2.947010    0.123996
     20          8           0        2.537984   -3.855017    0.542996
     21          8           0        6.627977   -2.020003   -0.292004
     22          8           0        3.750955    4.374987   -0.670004
     23          8           0       -0.372039    2.661973    0.185996
     24          6           0        1.056953    4.826978   -0.345004
     25          1           0        0.278953    4.817975   -1.108004
     26          1           0        0.597952    5.083976    0.610996
     27          1           0        1.832951    5.541980   -0.597004
     28          6           0        5.159985   -4.296008    0.202996
     29          1           0        4.965987   -4.722009    1.187996
     30          1           0        4.699988   -4.938010   -0.548004
     31          1           0        6.227985   -4.210004    0.028996
     32          6           0       -0.852030   -0.042029    0.586996
     33          6           0       -1.518030    0.101969    1.771996
     34         16           0       -1.942029   -0.370033   -0.727004
     35          6           0       -2.927030   -0.021036    1.622996
     36          1           0       -1.018031    0.305970    2.706996
     37          6           0       -3.346029   -0.277038    0.327996
     38          8           0       -3.851030    0.080960    2.619996
     39          6           0       -4.694028   -0.445043   -0.156004
     40          6           0       -3.402032    0.473962    3.910996
     41          6           0       -5.106027   -0.721044   -1.451004
     42         16           0       -6.105029   -0.306048    0.884996
     43          1           0       -4.294032    0.539959    4.530996
     44          1           0       -2.721029   -0.270036    4.337996
     45          1           0       -2.908035    1.449964    3.876996
     46          6           0       -6.517027   -0.819049   -1.608004
     47          8           0       -4.171027   -0.874041   -2.432004
     48          6           0       -7.180028   -0.616051   -0.430004
     49          1           0       -7.017026   -1.028051   -2.543004
     50          6           0       -4.626026   -1.146042   -3.752004
     51          1           0       -8.245028   -0.634055   -0.259004
     52          1           0       -5.256029   -0.334045   -4.129004
     53          1           0       -3.731026   -1.225039   -4.367004
     54          1           0       -5.179022   -2.091044   -3.793004
 ---------------------------------------------------------------------

 SCF Done:  E(RHF) =  -2348.40909496     A.U. after   21 cycles
 E2 =    -0.5316287966D+01 EUMP2 =    -0.23537253829246D+04

 The electronic state is 1-A.
 Alpha  occ. eigenvalues --  -91.98401 -91.98007 -20.59764 -20.59750 -20.57094
 Alpha  occ. eigenvalues --  -20.57069 -20.56821 -20.56766 -15.64167 -15.63907
 Alpha  occ. eigenvalues --  -11.40268 -11.39996 -11.39947 -11.39931 -11.31012
 Alpha  occ. eigenvalues --  -11.30541 -11.30431 -11.30414 -11.30331 -11.30136
 Alpha  occ. eigenvalues --  -11.29670 -11.29630 -11.29605 -11.29582 -11.29517
 Alpha  occ. eigenvalues --  -11.29005 -11.28890 -11.28848 -11.28457 -11.27556
 Alpha  occ. eigenvalues --  -11.27311 -11.26949 -11.26945 -11.26758 -11.24730
 Alpha  occ. eigenvalues --  -11.24448  -8.98465  -8.98099  -6.66623  -6.66526
 Alpha  occ. eigenvalues --   -6.66331  -6.66257  -6.66163  -6.65974  -1.43736
 Alpha  occ. eigenvalues --   -1.43590  -1.41801  -1.41629  -1.41601  -1.41530
 Alpha  occ. eigenvalues --   -1.27809  -1.27414  -1.23573  -1.18919  -1.17067
 Alpha  occ. eigenvalues --   -1.15399  -1.13150  -1.07814  -1.06189  -1.03509
 Alpha  occ. eigenvalues --   -1.00463  -1.00351  -0.98906  -0.97337  -0.97041
 Alpha  occ. eigenvalues --   -0.96270  -0.93534  -0.92112  -0.90226  -0.89155
 Alpha  occ. eigenvalues --   -0.88588  -0.86937  -0.81333  -0.79679  -0.78796
 Alpha  occ. eigenvalues --   -0.78114  -0.76205  -0.74683  -0.73975  -0.72832
 Alpha  occ. eigenvalues --   -0.72003  -0.70819  -0.69588  -0.68162  -0.67484
 Alpha  occ. eigenvalues --   -0.66972  -0.66431  -0.66012  -0.65948  -0.65690
 Alpha  occ. eigenvalues --   -0.65498  -0.64829  -0.64449  -0.64217  -0.63950
 Alpha  occ. eigenvalues --   -0.62412  -0.61793  -0.60848  -0.60327  -0.59623
 Alpha  occ. eigenvalues --   -0.59430  -0.57477  -0.57102  -0.57027  -0.56705
 Alpha  occ. eigenvalues --   -0.56436  -0.56211  -0.55994  -0.55928  -0.55433
 Alpha  occ. eigenvalues --   -0.54010  -0.53519  -0.52577  -0.51549  -0.51091
 Alpha  occ. eigenvalues --   -0.50423  -0.48806  -0.47973  -0.47686  -0.47661
 Alpha  occ. eigenvalues --   -0.46508  -0.46287  -0.45912  -0.45520  -0.45134
 Alpha  occ. eigenvalues --   -0.43272  -0.42073  -0.41557  -0.37184  -0.36064
 Alpha  occ. eigenvalues --   -0.33949  -0.33358  -0.33098  -0.25462
 Alpha virt. eigenvalues --   -0.01755   0.02924   0.03283   0.03524   0.03904
 Alpha virt. eigenvalues --    0.04083   0.04618   0.04817   0.05192   0.05526
 Alpha virt. eigenvalues --    0.05562   0.05926   0.06294   0.06390   0.06599

 Mulliken charges:
               1
     1  C    0.053612
     2  C    1.123848
     3  C   -0.621564
     4  C    1.735003
     5  C   -0.025449
     6  C   -0.092641
     7  C   -0.264665
     8  C    1.009932
     9  C    1.485592
    10  C   -0.473297
    11  C   -0.015534
    12  C    1.474149
    13  C    0.356196
    14  C    0.266367
    15  H   -0.634899
    16  H   -0.647939
    17  H   -0.806880
    18  N   -0.946106
    19  N   -0.956600
    20  O   -0.863786
    21  O   -0.887465
    22  O   -0.905082
    23  O   -0.850830
    24  C    0.687474
    25  H   -0.013944
    26  H   -0.010790
    27  H   -0.255527
    28  C    0.673166
    29  H   -0.019577
    30  H   -0.018687
    31  H   -0.233240
    32  C    2.281533
    33  C   -0.185024
    34  S    0.017066
    35  C    0.298796
    36  H   -0.845447
    37  C   -0.822496
    38  O   -1.104654
    39  C    1.362990
    40  C    0.976912
    41  C   -0.173114
    42  S    0.339114
    43  H   -0.346040
    44  H   -0.084866
    45  H   -0.049797
    46  C    1.008400
    47  O   -1.130459
    48  C   -0.254798
    49  H   -0.637845
    50  C    0.919222
    51  H   -0.426869
    52  H   -0.064326
    53  H   -0.328513
    54  H   -0.070623
 Sum of Mulliken charges =  -0.00000

 Dipole moment (field-independent basis, Debye):
    X=             -0.8893    Y=              0.2308    Z=             -0.0726  Tot=              0.9216
 Quadrupole moment (field-independent basis, Debye-Ang):
   XX=           -221.4013   YY=           -237.3848   ZZ=           -199.1485
   XY=              0.1652   XZ=             11.0339   YZ=              7.9931

 Normal termination of Gaussian 16 at Thu Dec 10 17:54:06 2020.
