 Gaussian 16, Revision C.01,
 Gaussian 16:  ES64L-G16RevC.01  3-Jul-2019

 -------------------------------
 # mp2/aug-cc-pvdz MaxDisk=400GB
 -------------------------------

 -----------------
 NDI_-15_b3lyp.pdb
 -----------------
 Symbolic Z-matrix:
 Charge =  0 Multiplicity = 1

                         Standard orientation:
 ---------------------------------------------------------------------
 Center     Atomic      Atomic             Coordinates (Angstroms)
 Number     Number       Type             X           Y           Z
 ---------------------------------------------------------------------
      1          6           0       -2.499094   -3.032823   -0.121974
      2          6           0       -2.223026   -1.573836   -0.033974
      3          6           0       -3.283982   -0.639786   -0.056974
      4          6           0       -4.617002   -1.075723   -0.181974
      5          6           0       -4.930071   -2.525708   -0.284974
      6          6           0       -0.927005   -1.139897    0.026026
      7          6           0       -2.970917    0.742200    0.060026
      8          6           0       -1.616896    1.184136    0.182026
      9          6           0       -0.554940    0.239086    0.098026
     10          6           0       -1.411828    2.612126    0.538026
     11          6           0       -3.827805    3.108240    0.172026
     12          6           0       -4.056874    1.654251    0.040026
     13          6           0       -5.364895    1.208312   -0.100974
     14          6           0       -5.652959   -0.153674   -0.208974
     15          1           0       -6.670975   -0.507626   -0.310974
     16          1           0       -6.154860    1.948350   -0.120974
     17          1           0       -0.161041   -1.902933   -0.020974
     18          7           0       -2.509787    3.486178    0.432026
     19          7           0       -3.840112   -3.412759   -0.241974
     20          8           0       -1.620134   -3.873864   -0.094974
     21          8           0       -6.070090   -2.935654   -0.399974
     22          8           0       -4.726766    3.929282    0.089026
     23          8           0       -0.355807    3.075076    0.940026
     24          6           0       -2.237721    4.901165    0.718026
     25          1           0       -1.931715    5.021151    1.757026
     26          1           0       -1.429704    5.256127    0.079026
     27          1           0       -3.149694    5.458208    0.525026
     28          6           0       -4.103180   -4.855747   -0.331974
     29          1           0       -3.594200   -5.268771   -1.202974
     30          1           0       -3.722204   -5.355765    0.559026
     31          1           0       -5.176187   -4.994696   -0.416974
     32          6           0        0.871072    0.502019   -0.050974
     33          6           0        1.563126    1.642986   -0.415974
     34         16           0        2.014010   -0.808035    0.261026
     35          6           0        2.954118    1.468921   -0.468974
     36          1           0        1.079170    2.577009   -0.634974
     37          6           0        3.393057    0.188900   -0.118974
     38          8           0        3.873162    2.407877   -0.810974
     39          6           0        4.743035   -0.288164   -0.051974
     40          6           0        3.409224    3.729899   -1.082974
     41          6           0        5.175975   -1.567184    0.288026
     42         16           0        6.139083    0.724770   -0.406974
     43          1           0        4.300252    4.321857   -1.280974
     44          1           0        2.759225    3.742930   -1.962974
     45          1           0        2.875244    4.141924   -0.220974
     46          6           0        6.587967   -1.728251    0.264026
     47          8           0        4.259930   -2.516141    0.602026
     48          6           0        7.228022   -0.573281   -0.092974
     49          1           0        7.104924   -2.648275    0.499026
     50          6           0        4.724868   -3.823163    0.933026
     51          1           0        8.291029   -0.414331   -0.190974
     52          1           0        5.360870   -3.799193    1.823026
     53          1           0        3.832841   -4.411121    1.140026
     54          1           0        5.270847   -4.269189    0.097026
 ---------------------------------------------------------------------

 SCF Done:  E(RHF) =  -2348.40075667     A.U. after   21 cycles
 E2 =    -0.5327216808D+01 EUMP2 =    -0.23537279734793D+04

 The electronic state is 1-A.
 Alpha  occ. eigenvalues --  -91.99104 -91.99016 -20.60786 -20.60226 -20.56778
 Alpha  occ. eigenvalues --  -20.56764 -20.56215 -20.56083 -15.63846 -15.63462
 Alpha  occ. eigenvalues --  -11.39903 -11.39676 -11.39662 -11.39221 -11.31866
 Alpha  occ. eigenvalues --  -11.31712 -11.30979 -11.30318 -11.29982 -11.29905
 Alpha  occ. eigenvalues --  -11.29257 -11.29216 -11.29079 -11.29033 -11.28872
 Alpha  occ. eigenvalues --  -11.28628 -11.28484 -11.28331 -11.28188 -11.28160
 Alpha  occ. eigenvalues --  -11.27941 -11.27560 -11.27298 -11.27121 -11.25669
 Alpha  occ. eigenvalues --  -11.25306  -8.99207  -8.99098  -6.67358  -6.67265
 Alpha  occ. eigenvalues --   -6.67254  -6.67158  -6.67073  -6.66970  -1.43394
 Alpha  occ. eigenvalues --   -1.42994  -1.42750  -1.42198  -1.41443  -1.40883
 Alpha  occ. eigenvalues --   -1.27459  -1.26962  -1.22881  -1.19389  -1.17515
 Alpha  occ. eigenvalues --   -1.15413  -1.12547  -1.07828  -1.05678  -1.04136
 Alpha  occ. eigenvalues --   -1.01072  -1.00061  -0.99834  -0.97781  -0.96858
 Alpha  occ. eigenvalues --   -0.96519  -0.94047  -0.92491  -0.89818  -0.88673
 Alpha  occ. eigenvalues --   -0.88370  -0.86488  -0.82000  -0.80024  -0.78768
 Alpha  occ. eigenvalues --   -0.77835  -0.76408  -0.75043  -0.74546  -0.73055
 Alpha  occ. eigenvalues --   -0.71944  -0.70453  -0.69269  -0.67970  -0.67446
 Alpha  occ. eigenvalues --   -0.66955  -0.66771  -0.66350  -0.66241  -0.65774
 Alpha  occ. eigenvalues --   -0.65319  -0.65007  -0.64175  -0.63888  -0.63595
 Alpha  occ. eigenvalues --   -0.62583  -0.61740  -0.61310  -0.59691  -0.59430
 Alpha  occ. eigenvalues --   -0.59050  -0.57376  -0.57220  -0.56911  -0.56625
 Alpha  occ. eigenvalues --   -0.56442  -0.56420  -0.56308  -0.55575  -0.55474
 Alpha  occ. eigenvalues --   -0.53886  -0.53241  -0.53121  -0.52328  -0.51359
 Alpha  occ. eigenvalues --   -0.51233  -0.49810  -0.48586  -0.48047  -0.47107
 Alpha  occ. eigenvalues --   -0.46651  -0.46217  -0.45819  -0.45652  -0.44879
 Alpha  occ. eigenvalues --   -0.42839  -0.41779  -0.41192  -0.39251  -0.35041
 Alpha  occ. eigenvalues --   -0.34252  -0.33782  -0.32926  -0.25210
 Alpha virt. eigenvalues --   -0.01974   0.02883   0.03235   0.03550   0.04101
 Alpha virt. eigenvalues --    0.04161   0.04249   0.04940   0.05115   0.05315
 Alpha virt. eigenvalues --    0.05518   0.05709   0.05998   0.06496   0.06735

 Mulliken charges:
               1
     1  C    0.087450
     2  C    0.673224
     3  C   -0.653853
     4  C    1.688017
     5  C    0.124743
     6  C    0.853842
     7  C   -0.182680
     8  C    1.016109
     9  C    0.781364
    10  C    0.195122
    11  C   -0.158778
    12  C    1.313112
    13  C    0.301163
    14  C    0.226587
    15  H   -0.631940
    16  H   -0.689804
    17  H   -0.665973
    18  N   -0.964671
    19  N   -0.963825
    20  O   -0.861977
    21  O   -0.889709
    22  O   -0.897993
    23  O   -0.848495
    24  C    0.667037
    25  H   -0.030924
    26  H   -0.053332
    27  H   -0.229447
    28  C    0.665464
    29  H   -0.017691
    30  H   -0.015833
    31  H   -0.224961
    32  C    0.687146
    33  C    0.701677
    34  S    0.497493
    35  C   -0.392247
    36  H   -0.764828
    37  C    0.060585
    38  O   -1.109012
    39  C    1.074449
    40  C    0.935507
    41  C   -0.254347
    42  S    0.350683
    43  H   -0.357623
    44  H   -0.065848
    45  H   -0.035811
    46  C    1.035729
    47  O   -1.126684
    48  C   -0.247342
    49  H   -0.637113
    50  C    0.914983
    51  H   -0.431540
    52  H   -0.058683
    53  H   -0.329427
    54  H   -0.059094
 Sum of Mulliken charges =  -0.00000

 Dipole moment (field-independent basis, Debye):
    X=              3.7136    Y=             -0.5923    Z=             -0.3934  Tot=              3.7810
 Quadrupole moment (field-independent basis, Debye-Ang):
   XX=           -216.0421   YY=           -211.6180   ZZ=           -225.6787
   XY=             -6.7618   XZ=             -0.3544   YZ=             -8.5595

 Normal termination of Gaussian 16 at Tue Dec 15 01:03:00 2020.
