 Gaussian 16, Revision C.01,
 Gaussian 16:  ES64L-G16RevC.01  3-Jul-2019

 -------------------------------
 # mp2/aug-cc-pvdz MaxDisk=400GB
 -------------------------------

 ----------------
 NDI_90_b3lyp.pdb
 ----------------
 Symbolic Z-matrix:
 Charge =  0 Multiplicity = 1

                         Standard orientation:
 ---------------------------------------------------------------------
 Center     Atomic      Atomic             Coordinates (Angstroms)
 Number     Number       Type             X           Y           Z
 ---------------------------------------------------------------------
      1          6           0       -3.195991   -2.855979    0.318052
      2          6           0       -2.593004   -1.498973    0.239052
      3          6           0       -3.405015   -0.372981   -0.015948
      4          6           0       -4.798014   -0.516995   -0.205948
      5          6           0       -5.433000   -1.862001   -0.134948
      6          6           0       -1.236006   -1.340960    0.418052
      7          6           0       -2.804028    0.914025   -0.083948
      8          6           0       -1.401029    1.059039    0.109052
      9          6           0       -0.614018   -0.067954    0.366052
     10          6           0       -0.807042    2.429044    0.027052
     11          6           0       -3.060052    3.397022   -0.442948
     12          6           0       -3.634038    2.030017   -0.349948
     13          6           0       -4.996037    1.866003   -0.532948
     14          6           0       -5.582024    0.593998   -0.459948
     15          1           0       -6.647023    0.461987   -0.602948
     16          1           0       -5.597045    2.742998   -0.734948
     17          1           0       -0.627997   -2.215954    0.610052
     18          7           0       -1.680053    3.497036   -0.255948
     19          7           0       -4.579990   -2.946992    0.121052
     20          8           0       -2.538981   -3.854973    0.542052
     21          8           0       -6.628999   -2.018012   -0.291948
     22          8           0       -3.749061    4.375016   -0.668948
     23          8           0        0.372955    2.661056    0.187052
     24          6           0       -1.056066    4.827042   -0.340948
     25          1           0       -0.593068    5.080046    0.614052
     26          1           0       -0.281066    4.820049   -1.106948
     27          1           0       -1.833073    5.543034   -0.586948
     28          6           0       -5.160977   -4.294998    0.199052
     29          1           0       -4.691970   -4.939994   -0.543948
     30          1           0       -4.977973   -4.717996    1.187052
     31          1           0       -6.226978   -4.211009    0.014052
     32          6           0        0.851982   -0.043939    0.587052
     33          6           0        1.517980    0.099067    1.772052
     34         16           0        1.941985   -0.369929   -0.727948
     35          6           0        2.926982   -0.022919    1.624052
     36          1           0        1.017978    0.303062    2.708052
     37          6           0        3.345984   -0.277915    0.328052
     38          8           0        3.850981    0.077090    2.620052
     39          6           0        4.693986   -0.444902   -0.155948
     40          6           0        3.401977    0.471085    3.911052
     41          6           0        5.105988   -0.719898   -1.451948
     42         16           0        6.104984   -0.308888    0.885052
     43          1           0        4.294976    0.537094    4.531052
     44          1           0        2.908967    1.447081    3.877052
     45          1           0        2.720984   -0.272921    4.338052
     46          6           0        6.516989   -0.816884   -1.608948
     47          8           0        4.170990   -0.869907   -2.432948
     48          6           0        7.178987   -0.615878   -0.430948
     49          1           0        7.016991   -1.024879   -2.543948
     50          6           0        4.626992   -1.139903   -3.752948
     51          1           0        8.244988   -0.635867   -0.258948
     52          1           0        5.179002   -2.083897   -3.796948
     53          1           0        3.731993   -1.216911   -4.368948
     54          1           0        5.256985   -0.326896   -4.128948
 ---------------------------------------------------------------------

 SCF Done:  E(RHF) =  -2348.40904075     A.U. after   21 cycles
 E2 =    -0.5316421105D+01 EUMP2 =    -0.23537254618519D+04

 The electronic state is 1-A.
 Alpha  occ. eigenvalues --  -91.98404 -91.98006 -20.59777 -20.59769 -20.57086
 Alpha  occ. eigenvalues --  -20.57072 -20.56842 -20.56738 -15.64187 -15.63887
 Alpha  occ. eigenvalues --  -11.40272 -11.40002 -11.39938 -11.39915 -11.31007
 Alpha  occ. eigenvalues --  -11.30543 -11.30429 -11.30417 -11.30329 -11.30136
 Alpha  occ. eigenvalues --  -11.29666 -11.29647 -11.29601 -11.29571 -11.29521
 Alpha  occ. eigenvalues --  -11.29003 -11.28908 -11.28836 -11.28457 -11.27552
 Alpha  occ. eigenvalues --  -11.27304 -11.26948 -11.26944 -11.26756 -11.24739
 Alpha  occ. eigenvalues --  -11.24436  -8.98466  -8.98099  -6.66624  -6.66527
 Alpha  occ. eigenvalues --   -6.66332  -6.66257  -6.66163  -6.65974  -1.43724
 Alpha  occ. eigenvalues --   -1.43599  -1.41778  -1.41662  -1.41622  -1.41560
 Alpha  occ. eigenvalues --   -1.27840  -1.27406  -1.23567  -1.18907  -1.17067
 Alpha  occ. eigenvalues --   -1.15391  -1.13156  -1.07808  -1.06176  -1.03508
 Alpha  occ. eigenvalues --   -1.00465  -1.00351  -0.98910  -0.97337  -0.97048
 Alpha  occ. eigenvalues --   -0.96277  -0.93542  -0.92112  -0.90224  -0.89151
 Alpha  occ. eigenvalues --   -0.88587  -0.86941  -0.81339  -0.79669  -0.78788
 Alpha  occ. eigenvalues --   -0.78113  -0.76209  -0.74683  -0.73984  -0.72829
 Alpha  occ. eigenvalues --   -0.72002  -0.70824  -0.69587  -0.68158  -0.67492
 Alpha  occ. eigenvalues --   -0.66973  -0.66423  -0.66029  -0.65943  -0.65709
 Alpha  occ. eigenvalues --   -0.65498  -0.64832  -0.64449  -0.64215  -0.63951
 Alpha  occ. eigenvalues --   -0.62407  -0.61785  -0.60851  -0.60323  -0.59625
 Alpha  occ. eigenvalues --   -0.59426  -0.57467  -0.57084  -0.57026  -0.56716
 Alpha  occ. eigenvalues --   -0.56428  -0.56196  -0.55985  -0.55934  -0.55435
 Alpha  occ. eigenvalues --   -0.54006  -0.53522  -0.52590  -0.51549  -0.51093
 Alpha  occ. eigenvalues --   -0.50432  -0.48812  -0.47976  -0.47698  -0.47659
 Alpha  occ. eigenvalues --   -0.46497  -0.46291  -0.45918  -0.45522  -0.45132
 Alpha  occ. eigenvalues --   -0.43277  -0.42078  -0.41554  -0.37185  -0.36053
 Alpha  occ. eigenvalues --   -0.33939  -0.33360  -0.33100  -0.25441
 Alpha virt. eigenvalues --   -0.01762   0.02924   0.03282   0.03523   0.03904
 Alpha virt. eigenvalues --    0.04083   0.04618   0.04815   0.05192   0.05526
 Alpha virt. eigenvalues --    0.05563   0.05929   0.06298   0.06396   0.06601

 Mulliken charges:
               1
     1  C    0.050535
     2  C    1.128515
     3  C   -0.629530
     4  C    1.727632
     5  C   -0.026197
     6  C   -0.101887
     7  C   -0.249103
     8  C    1.014757
     9  C    1.487742
    10  C   -0.472763
    11  C   -0.017580
    12  C    1.474962
    13  C    0.353151
    14  C    0.274596
    15  H   -0.634341
    16  H   -0.649259
    17  H   -0.806031
    18  N   -0.948283
    19  N   -0.952443
    20  O   -0.863566
    21  O   -0.888141
    22  O   -0.905222
    23  O   -0.851016
    24  C    0.687491
    25  H   -0.011225
    26  H   -0.013426
    27  H   -0.255764
    28  C    0.675207
    29  H   -0.020080
    30  H   -0.020167
    31  H   -0.234055
    32  C    2.282785
    33  C   -0.192613
    34  S    0.015560
    35  C    0.303262
    36  H   -0.842638
    37  C   -0.826414
    38  O   -1.104047
    39  C    1.362759
    40  C    0.974773
    41  C   -0.174851
    42  S    0.338096
    43  H   -0.342910
    44  H   -0.051125
    45  H   -0.084810
    46  C    1.014446
    47  O   -1.129390
    48  C   -0.259893
    49  H   -0.637901
    50  C    0.921060
    51  H   -0.425052
    52  H   -0.075179
    53  H   -0.327335
    54  H   -0.063094
 Sum of Mulliken charges =  -0.00000

 Dipole moment (field-independent basis, Debye):
    X=              0.9051    Y=              0.2250    Z=             -0.0635  Tot=              0.9348
 Quadrupole moment (field-independent basis, Debye-Ang):
   XX=           -221.4538   YY=           -237.3832   ZZ=           -199.1136
   XY=             -0.1297   XZ=            -11.0248   YZ=              8.0154

 Normal termination of Gaussian 16 at Tue Dec 15 12:18:02 2020.
