 Gaussian 16, Revision C.01,
 Gaussian 16:  ES64L-G16RevC.01  3-Jul-2019

 -------------------------------
 # mp2/aug-cc-pvdz MaxDisk=400GB
 -------------------------------

 ------------------
 NDI_-155_b3lyp.pdb
 ------------------
 Symbolic Z-matrix:
 Charge =  0 Multiplicity = 1

                         Standard orientation:
 ---------------------------------------------------------------------
 Center     Atomic      Atomic             Coordinates (Angstroms)
 Number     Number       Type             X           Y           Z
 ---------------------------------------------------------------------
      1          6           0        3.421994   -2.687972   -0.432034
      2          6           0        2.736993   -1.387972   -0.206034
      3          6           0        3.484993   -0.194972   -0.090034
      4          6           0        4.890993   -0.219971   -0.159034
      5          6           0        5.609993   -1.502971   -0.376034
      6          6           0        1.372993   -1.356973   -0.113034
      7          6           0        2.780992    1.026028    0.089966
      8          6           0        1.350992    1.052027    0.133966
      9          6           0        0.608993   -0.159974    0.089966
     10          6           0        0.711991    2.377027    0.235966
     11          6           0        2.908990    3.512028    0.487966
     12          6           0        3.554991    2.204028    0.241966
     13          6           0        4.941991    2.159029    0.186966
     14          6           0        5.615992    0.954029   -0.023034
     15          1           0        6.696992    0.916030   -0.075034
     16          1           0        5.485991    3.087029    0.315966
     17          1           0        0.859994   -2.296973   -0.246034
     18          7           0        1.514990    3.498027    0.503966
     19          7           0        4.817994   -2.657971   -0.505034
     20          8           0        2.819995   -3.740972   -0.545034
     21          8           0        6.822993   -1.561970   -0.444034
     22          8           0        3.541990    4.540028    0.658966
     23          8           0       -0.488009    2.553026    0.094966
     24          6           0        0.807990    4.774027    0.680966
     25          1           0        0.359990    5.093026   -0.262034
     26          1           0        0.013990    4.648026    1.414966
     27          1           0        1.533989    5.509027    1.015966
     28          6           0        5.486995   -3.947971   -0.726034
     29          1           0        5.242995   -4.633971    0.085966
     30          1           0        5.140995   -4.385971   -1.662034
     31          1           0        6.556995   -3.767970   -0.762034
     32          6           0       -0.828007   -0.409974    0.240966
     33          6           0       -1.316007   -1.644975    0.670966
     34         16           0       -2.177008    0.617025   -0.226034
     35          6           0       -2.709006   -1.764975    0.615966
     36          1           0       -0.679006   -2.426974    1.052966
     37          6           0       -3.350007   -0.632976    0.107966
     38          8           0       -3.450006   -2.835976    1.005966
     39          6           0       -4.762007   -0.449977   -0.087034
     40          6           0       -2.762005   -4.001975    1.447966
     41          6           0       -5.412008    0.673023   -0.592034
     42         16           0       -5.955006   -1.686977    0.298966
     43          1           0       -3.533005   -4.734976    1.678966
     44          1           0       -2.107005   -4.394975    0.663966
     45          1           0       -2.176005   -3.794975    2.349966
     46          6           0       -6.826008    0.544022   -0.665034
     47          8           0       -4.682008    1.754023   -0.962034
     48          6           0       -7.251007   -0.676978   -0.219034
     49          1           0       -7.494008    1.311022   -1.030034
     50          6           0       -5.371009    2.908023   -1.433034
     51          1           0       -8.266007   -1.040979   -0.165034
     52          1           0       -6.048009    3.302023   -0.669034
     53          1           0       -4.600010    3.644023   -1.651034
     54          1           0       -5.932009    2.685023   -2.347034
 ---------------------------------------------------------------------

 SCF Done:  E(RHF) =  -2348.39812268     A.U. after   21 cycles
 E2 =    -0.5328913200D+01 EUMP2 =    -0.23537270358797D+04

 The electronic state is 1-A.
 Alpha  occ. eigenvalues --  -91.98721 -91.98674 -20.60327 -20.60071 -20.56961
 Alpha  occ. eigenvalues --  -20.56906 -20.56330 -20.56069 -15.64021 -15.63434
 Alpha  occ. eigenvalues --  -11.40029 -11.39880 -11.39386 -11.39209 -11.31834
 Alpha  occ. eigenvalues --  -11.31473 -11.30511 -11.30026 -11.29988 -11.29978
 Alpha  occ. eigenvalues --  -11.29371 -11.29313 -11.29141 -11.29076 -11.28766
 Alpha  occ. eigenvalues --  -11.28649 -11.28451 -11.28251 -11.28087 -11.28004
 Alpha  occ. eigenvalues --  -11.27836 -11.27449 -11.27161 -11.27016 -11.25779
 Alpha  occ. eigenvalues --  -11.24988  -8.98760  -8.98652  -6.66917  -6.66821
 Alpha  occ. eigenvalues --   -6.66762  -6.66669  -6.66633  -6.66480  -1.43545
 Alpha  occ. eigenvalues --   -1.43098  -1.42353  -1.42036  -1.41592  -1.40974
 Alpha  occ. eigenvalues --   -1.27622  -1.27056  -1.22974  -1.19030  -1.17303
 Alpha  occ. eigenvalues --   -1.15310  -1.12662  -1.07861  -1.05758  -1.03693
 Alpha  occ. eigenvalues --   -1.00862  -1.00154  -0.99501  -0.97780  -0.96981
 Alpha  occ. eigenvalues --   -0.96054  -0.93979  -0.92330  -0.89820  -0.88807
 Alpha  occ. eigenvalues --   -0.88274  -0.86869  -0.81485  -0.79873  -0.78903
 Alpha  occ. eigenvalues --   -0.77975  -0.76443  -0.74618  -0.73757  -0.73202
 Alpha  occ. eigenvalues --   -0.72140  -0.70488  -0.69578  -0.67965  -0.67272
 Alpha  occ. eigenvalues --   -0.66758  -0.66576  -0.66458  -0.66131  -0.65906
 Alpha  occ. eigenvalues --   -0.65377  -0.64891  -0.64361  -0.63850  -0.63558
 Alpha  occ. eigenvalues --   -0.62690  -0.61589  -0.60938  -0.59930  -0.59336
 Alpha  occ. eigenvalues --   -0.59126  -0.57307  -0.57108  -0.56685  -0.56653
 Alpha  occ. eigenvalues --   -0.56500  -0.56372  -0.56211  -0.55746  -0.55498
 Alpha  occ. eigenvalues --   -0.53664  -0.53090  -0.52808  -0.52181  -0.51360
 Alpha  occ. eigenvalues --   -0.50965  -0.49327  -0.48260  -0.48209  -0.46934
 Alpha  occ. eigenvalues --   -0.46599  -0.46301  -0.46011  -0.45590  -0.43507
 Alpha  occ. eigenvalues --   -0.42949  -0.41907  -0.41258  -0.39015  -0.34992
 Alpha  occ. eigenvalues --   -0.33897  -0.33348  -0.33020  -0.25092
 Alpha virt. eigenvalues --   -0.01741   0.02971   0.03309   0.03557   0.04009
 Alpha virt. eigenvalues --    0.04239   0.04338   0.04842   0.05136   0.05444
 Alpha virt. eigenvalues --    0.05648   0.05850   0.06124   0.06249   0.06748

 Mulliken charges:
               1
     1  C    0.024741
     2  C    0.761723
     3  C   -0.536228
     4  C    1.555466
     5  C    0.020450
     6  C    0.659181
     7  C    0.152805
     8  C    1.296088
     9  C    1.007407
    10  C   -0.177578
    11  C   -0.152929
    12  C    1.433662
    13  C    0.229905
    14  C    0.283574
    15  H   -0.639927
    16  H   -0.695781
    17  H   -0.725472
    18  N   -0.989569
    19  N   -0.965101
    20  O   -0.856310
    21  O   -0.889713
    22  O   -0.898511
    23  O   -0.725736
    24  C    0.694171
    25  H   -0.021856
    26  H   -0.051548
    27  H   -0.202462
    28  C    0.655873
    29  H   -0.013051
    30  H   -0.022155
    31  H   -0.228832
    32  C    0.723457
    33  C    0.132035
    34  S    0.580782
    35  C   -0.095528
    36  H   -0.741095
    37  C   -0.313619
    38  O   -1.099387
    39  C    1.174111
    40  C    0.955040
    41  C   -0.208771
    42  S    0.371779
    43  H   -0.354022
    44  H   -0.039280
    45  H   -0.071990
    46  C    0.987777
    47  O   -1.129907
    48  C   -0.247760
    49  H   -0.633830
    50  C    0.913189
    51  H   -0.426987
    52  H   -0.052655
    53  H   -0.338046
    54  H   -0.067579
 Sum of Mulliken charges =  -0.00000

 Dipole moment (field-independent basis, Debye):
    X=             -3.0993    Y=             -0.2905    Z=              0.0767  Tot=              3.1138
 Quadrupole moment (field-independent basis, Debye-Ang):
   XX=           -213.3803   YY=           -218.6288   ZZ=           -222.5940
   XY=            -12.6694   XZ=              5.0223   YZ=            -10.6079

 Normal termination of Gaussian 16 at Wed Dec  9 21:03:27 2020.
