 Gaussian 16, Revision C.01,
 Gaussian 16:  ES64L-G16RevC.01  3-Jul-2019

 -------------------------------
 # mp2/aug-cc-pvdz MaxDisk=400GB
 -------------------------------

 ------------------
 NDI_-160_b3lyp.pdb
 ------------------
 Symbolic Z-matrix:
 Charge =  0 Multiplicity = 1

                         Standard orientation:
 ---------------------------------------------------------------------
 Center     Atomic      Atomic             Coordinates (Angstroms)
 Number     Number       Type             X           Y           Z
 ---------------------------------------------------------------------
      1          6           0       -3.423957   -2.695116    0.363041
      2          6           0       -2.739009   -1.392089    0.154041
      3          6           0       -3.485056   -0.193119    0.083041
      4          6           0       -4.889055   -0.216174    0.185041
      5          6           0       -5.607004   -1.502202    0.386041
      6          6           0       -1.378010   -1.364036    0.039041
      7          6           0       -2.779104    1.026909   -0.085959
      8          6           0       -1.349105    1.048965   -0.164959
      9          6           0       -0.609057   -0.167005   -0.150959
     10          6           0       -0.710157    2.371991   -0.288959
     11          6           0       -2.911202    3.523904   -0.413959
     12          6           0       -3.553151    2.211879   -0.186959
     13          6           0       -4.938149    2.169824   -0.096959
     14          6           0       -5.613101    0.963797    0.097041
     15          1           0       -6.692100    0.927755    0.175041
     16          1           0       -5.481186    3.102803   -0.185959
     17          1           0       -0.871972   -2.310016    0.147041
     18          7           0       -1.518202    3.503959   -0.483959
     19          7           0       -4.816958   -2.663171    0.467041
     20          8           0       -2.822916   -3.753093    0.437041
     21          8           0       -6.819002   -1.559250    0.479041
     22          8           0       -3.545243    4.558879   -0.531959
     23          8           0        0.498836    2.540038   -0.230959
     24          6           0       -0.812252    4.778987   -0.667959
     25          1           0       -0.284263    5.054007    0.246041
     26          1           0       -0.082248    4.677015   -1.469959
     27          1           0       -1.553281    5.533957   -0.912959
     28          6           0       -5.486908   -3.956198    0.670041
     29          1           0       -5.261881   -4.622189   -0.163959
     30          1           0       -5.122889   -4.418183    1.588041
     31          1           0       -6.553915   -3.773240    0.733041
     32          6           0        0.828953   -0.419949   -0.288959
     33          6           0        1.327003   -1.673929   -0.653959
     34         16           0        2.172912    0.626104    0.153041
     35          6           0        2.717007   -1.791874   -0.570959
     36          1           0        0.700034   -2.474954   -1.012959
     37          6           0        3.350962   -0.637849   -0.102959
     38          8           0        3.464050   -2.879845   -0.898959
     39          6           0        4.758954   -0.445794    0.104041
     40          6           0        2.783097   -4.060872   -1.310959
     41          6           0        5.402909    0.699232    0.566041
     42         16           0        5.957004   -1.699747   -0.205959
     43          1           0        3.557126   -4.802841   -1.495959
     44          1           0        2.111111   -4.422898   -0.525959
     45          1           0        2.216090   -3.887894   -2.231959
     46          6           0        6.814914    0.573287    0.667041
     47          8           0        4.668866    1.796203    0.874041
     48          6           0        7.245963   -0.666696    0.284041
     49          1           0        7.477883    1.356313    1.006041
     50          6           0        5.350820    2.969230    1.307041
     51          1           0        8.260977   -1.032656    0.263041
     52          1           0        6.040805    3.329257    0.537041
     53          1           0        4.576790    3.715199    1.479041
     54          1           0        5.895827    2.787251    2.238041
 ---------------------------------------------------------------------

 SCF Done:  E(RHF) =  -2348.39711647     A.U. after   19 cycles
 E2 =    -0.5329622424D+01 EUMP2 =    -0.23537267388902D+04

 The electronic state is 1-A.
 Alpha  occ. eigenvalues --  -91.98744 -91.98734 -20.60393 -20.60098 -20.56932
 Alpha  occ. eigenvalues --  -20.56892 -20.56196 -20.56018 -15.64022 -15.63395
 Alpha  occ. eigenvalues --  -11.40020 -11.39866 -11.39328 -11.39155 -11.31913
 Alpha  occ. eigenvalues --  -11.31572 -11.30530 -11.30037 -11.29999 -11.29986
 Alpha  occ. eigenvalues --  -11.29295 -11.29251 -11.29108 -11.29041 -11.28691
 Alpha  occ. eigenvalues --  -11.28688 -11.28412 -11.28171 -11.28120 -11.28006
 Alpha  occ. eigenvalues --  -11.27921 -11.27445 -11.27209 -11.26947 -11.25858
 Alpha  occ. eigenvalues --  -11.25039  -8.98819  -8.98670  -6.66975  -6.66879
 Alpha  occ. eigenvalues --   -6.66779  -6.66692  -6.66685  -6.66496  -1.43495
 Alpha  occ. eigenvalues --   -1.43007  -1.42431  -1.42051  -1.41528  -1.40889
 Alpha  occ. eigenvalues --   -1.27602  -1.26982  -1.22917  -1.19047  -1.17329
 Alpha  occ. eigenvalues --   -1.15307  -1.12589  -1.07848  -1.05724  -1.03732
 Alpha  occ. eigenvalues --   -1.00904  -1.00134  -0.99555  -0.97801  -0.96953
 Alpha  occ. eigenvalues --   -0.96056  -0.94024  -0.92352  -0.89786  -0.88785
 Alpha  occ. eigenvalues --   -0.88246  -0.86852  -0.81512  -0.79917  -0.78883
 Alpha  occ. eigenvalues --   -0.77948  -0.76460  -0.74665  -0.73727  -0.73236
 Alpha  occ. eigenvalues --   -0.72140  -0.70445  -0.69553  -0.67932  -0.67240
 Alpha  occ. eigenvalues --   -0.66710  -0.66574  -0.66499  -0.66165  -0.65909
 Alpha  occ. eigenvalues --   -0.65352  -0.64946  -0.64322  -0.63806  -0.63518
 Alpha  occ. eigenvalues --   -0.62651  -0.61616  -0.60944  -0.59925  -0.59322
 Alpha  occ. eigenvalues --   -0.59077  -0.57302  -0.57095  -0.56663  -0.56646
 Alpha  occ. eigenvalues --   -0.56508  -0.56370  -0.56208  -0.55738  -0.55455
 Alpha  occ. eigenvalues --   -0.53636  -0.53122  -0.52723  -0.52227  -0.51352
 Alpha  occ. eigenvalues --   -0.50994  -0.49412  -0.48266  -0.48233  -0.46931
 Alpha  occ. eigenvalues --   -0.46600  -0.46290  -0.45985  -0.45567  -0.43396
 Alpha  occ. eigenvalues --   -0.42868  -0.41885  -0.41239  -0.39076  -0.34985
 Alpha  occ. eigenvalues --   -0.33904  -0.33394  -0.33023  -0.25069
 Alpha virt. eigenvalues --   -0.01750   0.02951   0.03329   0.03550   0.04013
 Alpha virt. eigenvalues --    0.04242   0.04279   0.04858   0.05147   0.05431
 Alpha virt. eigenvalues --    0.05631   0.05870   0.06172   0.06265   0.06751

 Mulliken charges:
               1
     1  C    0.051618
     2  C    0.696337
     3  C   -0.548301
     4  C    1.598181
     5  C   -0.007702
     6  C    0.764234
     7  C    0.046833
     8  C    1.379443
     9  C    0.919405
    10  C   -0.157995
    11  C   -0.163405
    12  C    1.490444
    13  C    0.219224
    14  C    0.289178
    15  H   -0.646373
    16  H   -0.701219
    17  H   -0.721882
    18  N   -0.998990
    19  N   -0.963905
    20  O   -0.857573
    21  O   -0.889427
    22  O   -0.901447
    23  O   -0.724145
    24  C    0.690476
    25  H   -0.021676
    26  H   -0.040638
    27  H   -0.212424
    28  C    0.660238
    29  H   -0.010791
    30  H   -0.018886
    31  H   -0.232318
    32  C    0.726803
    33  C    0.170373
    34  S    0.603073
    35  C   -0.130368
    36  H   -0.739952
    37  C   -0.321672
    38  O   -1.101335
    39  C    1.149452
    40  C    0.952813
    41  C   -0.219095
    42  S    0.372608
    43  H   -0.358713
    44  H   -0.035888
    45  H   -0.065854
    46  C    0.993399
    47  O   -1.132635
    48  C   -0.240376
    49  H   -0.635506
    50  C    0.912322
    51  H   -0.428008
    52  H   -0.050081
    53  H   -0.338403
    54  H   -0.069469
 Sum of Mulliken charges =  -0.00000

 Dipole moment (field-independent basis, Debye):
    X=              3.2692    Y=             -0.3334    Z=              0.0164  Tot=              3.2862
 Quadrupole moment (field-independent basis, Debye-Ang):
   XX=           -213.0482   YY=           -218.1308   ZZ=           -223.0137
   XY=             12.9180   XZ=              5.4742   YZ=              9.6790

 Normal termination of Gaussian 16 at Wed Dec  9 19:50:21 2020.
