 Gaussian 16, Revision C.01,
 Gaussian 16:  ES64L-G16RevC.01  3-Jul-2019

 -------------------------------
 # mp2/aug-cc-pvdz MaxDisk=400GB
 -------------------------------

 ------------------
 NDI_-165_b3lyp.pdb
 ------------------
 Symbolic Z-matrix:
 Charge =  0 Multiplicity = 1

                         Standard orientation:
 ---------------------------------------------------------------------
 Center     Atomic      Atomic             Coordinates (Angstroms)
 Number     Number       Type             X           Y           Z
 ---------------------------------------------------------------------
      1          6           0        3.514925   -2.687077   -0.198989
      2          6           0        2.769924   -1.419078    0.018011
      3          6           0        3.429922   -0.174077   -0.097989
      4          6           0        4.796922   -0.112075   -0.433989
      5          6           0        5.569924   -1.361074   -0.664989
      6          6           0        1.427924   -1.465080    0.285011
      7          6           0        2.682920    1.011922    0.137011
      8          6           0        1.297920    0.947920    0.473011
      9          6           0        0.627922   -0.300081    0.490011
     10          6           0        0.658919    2.203919    0.938011
     11          6           0        2.657917    3.527922    0.263011
     12          6           0        3.363918    2.249923    0.018011
     13          6           0        4.707918    2.290925   -0.325989
     14          6           0        5.429920    1.114926   -0.550989
     15          1           0        6.479920    1.142927   -0.813989
     16          1           0        5.181917    3.260925   -0.413989
     17          1           0        0.962925   -2.440081    0.286011
     18          7           0        1.342917    3.412920    0.715011
     19          7           0        4.870925   -2.573075   -0.523989
     20          8           0        2.993927   -3.784078   -0.102989
     21          8           0        6.749924   -1.347073   -0.958989
     22          8           0        3.190915    4.613922    0.108011
     23          8           0       -0.410082    2.239917    1.522011
     24          6           0        0.632915    4.638919    1.108011
     25          1           0       -0.366085    4.632917    0.675011
     26          1           0        0.535915    4.686919    2.194011
     27          1           0        1.207914    5.484920    0.746011
     28          6           0        5.597927   -3.833074   -0.736989
     29          1           0        5.543928   -4.445074    0.164011
     30          1           0        5.141928   -4.388075   -1.557989
     31          1           0        6.628927   -3.588073   -0.969989
     32          6           0       -0.811078   -0.551083    0.568011
     33          6           0       -1.383076   -1.781084    0.877011
     34         16           0       -2.034079    0.532915   -0.048989
     35          6           0       -2.765076   -1.840086    0.640011
     36          1           0       -0.822075   -2.604083    1.292011
     37          6           0       -3.295077   -0.669087    0.094011
     38          8           0       -3.590074   -2.893087    0.884011
     39          6           0       -4.659078   -0.417089   -0.275989
     40          6           0       -3.015073   -4.085086    1.411011
     41          6           0       -5.191079    0.746911   -0.824989
     42         16           0       -5.940076   -1.609091   -0.083989
     43          1           0       -3.838072   -4.789088    1.523011
     44          1           0       -2.270072   -4.500085    0.725011
     45          1           0       -2.557073   -3.902086    2.389011
     46          6           0       -6.588079    0.682909   -1.080989
     47          8           0       -4.374081    1.801912   -1.067989
     48          6           0       -7.117078   -0.528092   -0.729989
     49          1           0       -7.171080    1.487908   -1.502989
     50          6           0       -4.954083    2.999911   -1.577989
     51          1           0       -8.144077   -0.847094   -0.816989
     52          1           0       -5.701083    3.399910   -0.885989
     53          1           0       -4.133084    3.707912   -1.676989
     54          1           0       -5.409082    2.829910   -2.558989
 ---------------------------------------------------------------------

 SCF Done:  E(RHF) =  -2348.39945800     A.U. after   21 cycles
 E2 =    -0.5327596078D+01 EUMP2 =    -0.23537270540791D+04

 The electronic state is 1-A.
 Alpha  occ. eigenvalues --  -91.98846 -91.98759 -20.60632 -20.60244 -20.56927
 Alpha  occ. eigenvalues --  -20.56845 -20.56061 -20.56056 -15.63970 -15.63286
 Alpha  occ. eigenvalues --  -11.39979 -11.39846 -11.39292 -11.39207 -11.31655
 Alpha  occ. eigenvalues --  -11.31467 -11.30818 -11.30302 -11.30103 -11.29926
 Alpha  occ. eigenvalues --  -11.29323 -11.29206 -11.29127 -11.29096 -11.28751
 Alpha  occ. eigenvalues --  -11.28657 -11.28538 -11.28515 -11.28270 -11.28107
 Alpha  occ. eigenvalues --  -11.27971 -11.27414 -11.27404 -11.26921 -11.26093
 Alpha  occ. eigenvalues --  -11.25153  -8.98932  -8.98825  -6.67089  -6.66993
 Alpha  occ. eigenvalues --   -6.66961  -6.66871  -6.66805  -6.66682  -1.43499
 Alpha  occ. eigenvalues --   -1.42859  -1.42604  -1.42189  -1.41551  -1.40809
 Alpha  occ. eigenvalues --   -1.27548  -1.26873  -1.22981  -1.19319  -1.17461
 Alpha  occ. eigenvalues --   -1.15446  -1.12617  -1.07893  -1.05738  -1.03903
 Alpha  occ. eigenvalues --   -1.01039  -1.00056  -0.99699  -0.97899  -0.96916
 Alpha  occ. eigenvalues --   -0.96078  -0.94231  -0.92487  -0.89769  -0.88731
 Alpha  occ. eigenvalues --   -0.88261  -0.86751  -0.81637  -0.80047  -0.78771
 Alpha  occ. eigenvalues --   -0.77927  -0.76581  -0.74855  -0.73761  -0.73190
 Alpha  occ. eigenvalues --   -0.72333  -0.70504  -0.69354  -0.67823  -0.67201
 Alpha  occ. eigenvalues --   -0.66757  -0.66685  -0.66601  -0.66320  -0.65969
 Alpha  occ. eigenvalues --   -0.65380  -0.65014  -0.64283  -0.63678  -0.63513
 Alpha  occ. eigenvalues --   -0.62519  -0.61702  -0.61242  -0.60360  -0.59399
 Alpha  occ. eigenvalues --   -0.58992  -0.57488  -0.56970  -0.56756  -0.56625
 Alpha  occ. eigenvalues --   -0.56512  -0.56378  -0.56244  -0.55781  -0.55476
 Alpha  occ. eigenvalues --   -0.53863  -0.53202  -0.52883  -0.52054  -0.51552
 Alpha  occ. eigenvalues --   -0.51203  -0.49871  -0.48460  -0.48043  -0.47222
 Alpha  occ. eigenvalues --   -0.46636  -0.45992  -0.45827  -0.45710  -0.44636
 Alpha  occ. eigenvalues --   -0.42788  -0.41789  -0.41091  -0.39136  -0.35063
 Alpha  occ. eigenvalues --   -0.33981  -0.33621  -0.32913  -0.25197
 Alpha virt. eigenvalues --   -0.01878   0.02883   0.03360   0.03471   0.03991
 Alpha virt. eigenvalues --    0.04238   0.04309   0.04872   0.05172   0.05352
 Alpha virt. eigenvalues --    0.05644   0.05908   0.06105   0.06306   0.06716

 Mulliken charges:
               1
     1  C    0.101997
     2  C    0.760845
     3  C   -0.750147
     4  C    1.686541
     5  C    0.033581
     6  C    0.591103
     7  C   -0.312087
     8  C    1.094015
     9  C    1.069389
    10  C    0.394085
    11  C   -0.177249
    12  C    1.420651
    13  C    0.295022
    14  C    0.359806
    15  H   -0.647241
    16  H   -0.687972
    17  H   -0.758536
    18  N   -0.963936
    19  N   -0.980412
    20  O   -0.857584
    21  O   -0.890760
    22  O   -0.895774
    23  O   -0.782605
    24  C    0.683782
    25  H   -0.066840
    26  H   -0.036588
    27  H   -0.212042
    28  C    0.670101
    29  H   -0.014285
    30  H   -0.013907
    31  H   -0.225329
    32  C    0.550029
    33  C    0.409555
    34  S    0.578941
    35  C   -0.188899
    36  H   -0.750187
    37  C   -0.154689
    38  O   -1.128169
    39  C    1.028226
    40  C    0.984268
    41  C   -0.117368
    42  S    0.367412
    43  H   -0.353884
    44  H   -0.046807
    45  H   -0.056155
    46  C    0.970202
    47  O   -1.128849
    48  C   -0.239995
    49  H   -0.636094
    50  C    0.911313
    51  H   -0.426290
    52  H   -0.046609
    53  H   -0.344232
    54  H   -0.069345
 Sum of Mulliken charges =  -0.00000

 Dipole moment (field-independent basis, Debye):
    X=             -3.2573    Y=             -0.3951    Z=             -0.6605  Tot=              3.3470
 Quadrupole moment (field-independent basis, Debye-Ang):
   XX=           -212.9190   YY=           -217.6062   ZZ=           -224.0692
   XY=            -11.1564   XZ=             11.1442   YZ=            -10.2086

 Normal termination of Gaussian 16 at Wed Dec  9 18:12:10 2020.
