 Gaussian 16, Revision C.01,
 Gaussian 16:  ES64L-G16RevC.01  3-Jul-2019

 -------------------------------
 # mp2/aug-cc-pvdz MaxDisk=400GB
 -------------------------------

 ------------------
 NDI_-135_b3lyp.pdb
 ------------------
 Symbolic Z-matrix:
 Charge =  0 Multiplicity = 1

                         Standard orientation:
 ---------------------------------------------------------------------
 Center     Atomic      Atomic             Coordinates (Angstroms)
 Number     Number       Type             X           Y           Z
 ---------------------------------------------------------------------
      1          6           0       -3.521995   -2.695037    0.427896
      2          6           0       -2.768004   -1.451032    0.124896
      3          6           0       -3.428013   -0.200037    0.123896
      4          6           0       -4.803014   -0.109047    0.424896
      5          6           0       -5.584005   -1.334053    0.748896
      6          6           0       -1.417004   -1.515022   -0.117104
      7          6           0       -2.685022    0.968969   -0.197104
      8          6           0       -1.298021    0.878979   -0.501104
      9          6           0       -0.638012   -0.358016   -0.394104
     10          6           0       -0.630030    2.087984   -1.060104
     11          6           0       -2.641041    3.464969   -0.534104
     12          6           0       -3.363031    2.212964   -0.200104
     13          6           0       -4.712032    2.280954    0.110896
     14          6           0       -5.436023    1.122948    0.420896
     15          1           0       -6.491024    1.170941    0.658896
     16          1           0       -5.191039    3.251950    0.105896
     17          1           0       -0.925997   -2.478018   -0.051104
     18          7           0       -1.311040    3.313979   -0.936104
     19          7           0       -4.883996   -2.552047    0.722896
     20          8           0       -3.003987   -3.797033    0.425896
     21          8           0       -6.769005   -1.293061    1.018896
     22          8           0       -3.174049    4.558965   -0.487104
     23          8           0        0.441970    2.061992   -1.631104
     24          6           0       -0.588048    4.505984   -1.403104
     25          1           0        0.421952    4.492992   -0.999104
     26          1           0       -0.524048    4.507985   -2.493104
     27          1           0       -1.134055    5.380980   -1.063104
     28          6           0       -5.615987   -3.790053    1.026896
     29          1           0       -5.560982   -4.469052    0.175896
     30          1           0       -5.164983   -4.282050    1.888896
     31          1           0       -6.647989   -3.525061    1.235896
     32          6           0        0.808989   -0.570005   -0.486104
     33          6           0        1.444997   -1.560000   -1.204104
     34         16           0        1.942983    0.337003    0.473896
     35          6           0        2.844997   -1.563990   -1.013104
     36          1           0        0.919002   -2.231004   -1.867104
     37          6           0        3.300990   -0.603987   -0.113104
     38          8           0        3.741003   -2.397983   -1.606104
     39          6           0        4.650988   -0.378977    0.325896
     40          6           0        3.242010   -3.391987   -2.495104
     41          6           0        5.104981    0.574027    1.229896
     42         16           0        6.015995   -1.330967   -0.248104
     43          1           0        4.112014   -3.944981   -2.844104
     44          1           0        2.559015   -4.075992   -1.980104
     45          1           0        2.733007   -2.935991   -3.351104
     46          6           0        6.508981    0.546037    1.452896
     47          8           0        4.211975    1.421020    1.809896
     48          6           0        7.122988   -0.431958    0.720896
     49          1           0        7.036976    1.212041    2.119896
     50          6           0        4.710967    2.423024    2.688896
     51          1           0        8.173990   -0.674950    0.696896
     52          1           0        5.406962    3.091029    2.170896
     53          1           0        3.841963    2.990017    3.018896
     54          1           0        5.203970    1.976027    3.557896
 ---------------------------------------------------------------------

 SCF Done:  E(RHF) =  -2348.40568394     A.U. after   31 cycles
 E2 =    -0.5322409400D+01 EUMP2 =    -0.23537280933392D+04

 The electronic state is 1-A.
 Alpha  occ. eigenvalues --  -91.98596 -91.98423 -20.60207 -20.60071 -20.57034
 Alpha  occ. eigenvalues --  -20.56987 -20.56428 -20.56416 -15.64090 -15.63484
 Alpha  occ. eigenvalues --  -11.40148 -11.39960 -11.39562 -11.39547 -11.31056
 Alpha  occ. eigenvalues --  -11.30986 -11.30807 -11.30157 -11.30015 -11.29932
 Alpha  occ. eigenvalues --  -11.29803 -11.29779 -11.29401 -11.29383 -11.29212
 Alpha  occ. eigenvalues --  -11.28798 -11.28676 -11.28563 -11.28561 -11.27732
 Alpha  occ. eigenvalues --  -11.27484 -11.27411 -11.27087 -11.27057 -11.25478
 Alpha  occ. eigenvalues --  -11.24786  -8.98678  -8.98512  -6.66831  -6.66738
 Alpha  occ. eigenvalues --   -6.66669  -6.66574  -6.66544  -6.66386  -1.43620
 Alpha  occ. eigenvalues --   -1.43181  -1.42114  -1.41976  -1.41680  -1.41203
 Alpha  occ. eigenvalues --   -1.27688  -1.27089  -1.23313  -1.19164  -1.17272
 Alpha  occ. eigenvalues --   -1.15479  -1.12928  -1.07892  -1.06005  -1.03740
 Alpha  occ. eigenvalues --   -1.00769  -1.00189  -0.99344  -0.97602  -0.97045
 Alpha  occ. eigenvalues --   -0.96152  -0.93952  -0.92343  -0.89959  -0.88925
 Alpha  occ. eigenvalues --   -0.88405  -0.86837  -0.81512  -0.79849  -0.78790
 Alpha  occ. eigenvalues --   -0.78056  -0.76485  -0.74568  -0.73959  -0.72973
 Alpha  occ. eigenvalues --   -0.72289  -0.70707  -0.69460  -0.67974  -0.67344
 Alpha  occ. eigenvalues --   -0.66800  -0.66480  -0.66401  -0.66119  -0.66027
 Alpha  occ. eigenvalues --   -0.65468  -0.64758  -0.64532  -0.63914  -0.63771
 Alpha  occ. eigenvalues --   -0.62454  -0.61782  -0.61125  -0.60449  -0.59589
 Alpha  occ. eigenvalues --   -0.59173  -0.57529  -0.56920  -0.56747  -0.56612
 Alpha  occ. eigenvalues --   -0.56505  -0.56473  -0.55967  -0.55893  -0.55560
 Alpha  occ. eigenvalues --   -0.53880  -0.53263  -0.52955  -0.51726  -0.51466
 Alpha  occ. eigenvalues --   -0.50930  -0.49301  -0.48176  -0.48075  -0.47344
 Alpha  occ. eigenvalues --   -0.46534  -0.46225  -0.45825  -0.45757  -0.44923
 Alpha  occ. eigenvalues --   -0.43035  -0.41941  -0.41243  -0.38440  -0.35367
 Alpha  occ. eigenvalues --   -0.33771  -0.33582  -0.33151  -0.25326
 Alpha virt. eigenvalues --   -0.01838   0.02973   0.03292   0.03481   0.03944
 Alpha virt. eigenvalues --    0.04199   0.04644   0.04859   0.05170   0.05486
 Alpha virt. eigenvalues --    0.05695   0.05781   0.05893   0.06299   0.06591

 Mulliken charges:
               1
     1  C   -0.000289
     2  C    0.924270
     3  C   -0.499868
     4  C    1.532505
     5  C    0.063965
     6  C    0.302661
     7  C   -0.611038
     8  C    1.339983
     9  C    1.225371
    10  C   -0.044414
    11  C    0.044929
    12  C    1.274391
    13  C    0.404904
    14  C    0.288359
    15  H   -0.624635
    16  H   -0.656150
    17  H   -0.770906
    18  N   -0.955331
    19  N   -0.965326
    20  O   -0.864195
    21  O   -0.899330
    22  O   -0.897483
    23  O   -0.813309
    24  C    0.703202
    25  H   -0.077448
    26  H   -0.038700
    27  H   -0.192687
    28  C    0.669721
    29  H   -0.018740
    30  H   -0.019460
    31  H   -0.223288
    32  C    1.431760
    33  C    0.251827
    34  S    0.099449
    35  C   -0.119346
    36  H   -0.813822
    37  C   -0.196232
    38  O   -1.092829
    39  C    1.126842
    40  C    0.967760
    41  C   -0.147312
    42  S    0.356331
    43  H   -0.339542
    44  H   -0.049276
    45  H   -0.067191
    46  C    1.000338
    47  O   -1.132769
    48  C   -0.264311
    49  H   -0.637221
    50  C    0.911490
    51  H   -0.426760
    52  H   -0.053970
    53  H   -0.333474
    54  H   -0.073407
 Sum of Mulliken charges =  -0.00000

 Dipole moment (field-independent basis, Debye):
    X=              2.0379    Y=             -0.1048    Z=              0.4837  Tot=              2.0972
 Quadrupole moment (field-independent basis, Debye-Ang):
   XX=           -216.8884   YY=           -224.3361   ZZ=           -215.4866
   XY=              8.3868   XZ=             11.5705   YZ=             15.3523

 Normal termination of Gaussian 16 at Wed Dec  9 23:18:36 2020.
