 Gaussian 16, Revision C.01,
 Gaussian 16:  ES64L-G16RevC.01  3-Jul-2019

 -------------------------------
 # mp2/aug-cc-pvdz MaxDisk=400GB
 -------------------------------

 ------------------
 NDI_-175_b3lyp.pdb
 ------------------
 Symbolic Z-matrix:
 Charge =  0 Multiplicity = 1

                         Standard orientation:
 ---------------------------------------------------------------------
 Center     Atomic      Atomic             Coordinates (Angstroms)
 Number     Number       Type             X           Y           Z
 ---------------------------------------------------------------------
      1          6           0        3.536083   -2.670873   -0.073966
      2          6           0        2.791056   -1.392889    0.070034
      3          6           0        3.456029   -0.154875   -0.075966
      4          6           0        4.832028   -0.109845   -0.370966
      5          6           0        5.608055   -1.367829   -0.526966
      6          6           0        1.444056   -1.428917    0.304034
      7          6           0        2.700004    1.036109    0.088034
      8          6           0        1.302005    0.986080    0.382034
      9          6           0        0.624032   -0.262935    0.443034
     10          6           0        0.649978    2.268066    0.732034
     11          6           0        2.688951    3.556109    0.113034
     12          6           0        3.390978    2.266124   -0.058966
     13          6           0        4.745978    2.293153   -0.361966
     14          6           0        5.474003    1.111168   -0.517966
     15          1           0        6.531002    1.128191   -0.747966
     16          1           0        5.222957    3.259163   -0.471966
     17          1           0        1.000077   -2.410927    0.340034
     18          7           0        1.355953    3.463081    0.515034
     19          7           0        4.901081   -2.572844   -0.360966
     20          8           0        3.008106   -3.761884    0.047034
     21          8           0        6.797055   -1.367804   -0.783966
     22          8           0        3.233928    4.633121   -0.059966
     23          8           0       -0.466024    2.343042    1.221034
     24          6           0        0.629926    4.705066    0.817034
     25          1           0       -0.308074    4.723046    0.264034
     26          1           0        0.401925    4.755061    1.882034
     27          1           0        1.264909    5.537079    0.526034
     28          6           0        5.631107   -3.840828   -0.500966
     29          1           0        5.545120   -4.417830    0.420034
     30          1           0        5.202120   -4.425838   -1.314966
     31          1           0        6.670103   -3.606806   -0.707966
     32          6           0       -0.811962   -0.543965    0.515034
     33          6           0       -1.345935   -1.826976    0.673034
     34         16           0       -2.100986    0.568008    0.095034
     35          6           0       -2.723933   -1.909005    0.449034
     36          1           0       -0.761917   -2.683964    0.964034
     37          6           0       -3.307959   -0.696018    0.076034
     38          8           0       -3.504910   -3.017022    0.564034
     39          6           0       -4.688964   -0.451047   -0.223966
     40          6           0       -2.876884   -4.244009    0.924034
     41          6           0       -5.281990    0.756940   -0.586966
     42         16           0       -5.917938   -1.713073   -0.184966
     43          1           0       -3.670868   -4.988026    0.953034
     44          1           0       -2.129878   -4.537993    0.180034
     45          1           0       -2.408886   -4.171999    1.911034
     46          6           0       -6.679988    0.669911   -0.823966
     47          8           0       -4.516013    1.869957   -0.685966
     48          6           0       -7.150961   -0.601099   -0.643966
     49          1           0       -7.306006    1.501897   -1.112966
     50          6           0       -5.154040    3.102943   -1.006966
     51          1           0       -8.166954   -0.948121   -0.757966
     52          1           0       -5.902045    3.365927   -0.252966
     53          1           0       -4.365055    3.852960   -1.011966
     54          1           0       -5.622039    3.058933   -1.995966
 ---------------------------------------------------------------------

 SCF Done:  E(RHF) =  -2348.39628894     A.U. after   21 cycles
 E2 =    -0.5329678006D+01 EUMP2 =    -0.23537259669428D+04

 The electronic state is 1-A.
 Alpha  occ. eigenvalues --  -91.98955 -91.98789 -20.60702 -20.60246 -20.56895
 Alpha  occ. eigenvalues --  -20.56802 -20.55956 -20.55942 -15.63928 -15.63248
 Alpha  occ. eigenvalues --  -11.39924 -11.39802 -11.39208 -11.39074 -11.31866
 Alpha  occ. eigenvalues --  -11.31792 -11.30721 -11.30310 -11.30102 -11.29859
 Alpha  occ. eigenvalues --  -11.29131 -11.29048 -11.29011 -11.28957 -11.28780
 Alpha  occ. eigenvalues --  -11.28607 -11.28567 -11.28440 -11.28156 -11.28096
 Alpha  occ. eigenvalues --  -11.27906 -11.27451 -11.27372 -11.26880 -11.26239
 Alpha  occ. eigenvalues --  -11.25238  -8.99039  -8.98795  -6.67195  -6.67099
 Alpha  occ. eigenvalues --   -6.66917  -6.66911  -6.66825  -6.66636  -1.43464
 Alpha  occ. eigenvalues --   -1.42833  -1.42734  -1.42177  -1.41513  -1.40754
 Alpha  occ. eigenvalues --   -1.27511  -1.26823  -1.22839  -1.19259  -1.17468
 Alpha  occ. eigenvalues --   -1.15370  -1.12493  -1.07853  -1.05625  -1.03908
 Alpha  occ. eigenvalues --   -1.01089  -1.00028  -0.99763  -0.97918  -0.96871
 Alpha  occ. eigenvalues --   -0.96060  -0.94262  -0.92476  -0.89698  -0.88679
 Alpha  occ. eigenvalues --   -0.88216  -0.86754  -0.81631  -0.80110  -0.78782
 Alpha  occ. eigenvalues --   -0.77877  -0.76573  -0.74900  -0.73697  -0.73301
 Alpha  occ. eigenvalues --   -0.72252  -0.70432  -0.69377  -0.67826  -0.67159
 Alpha  occ. eigenvalues --   -0.66773  -0.66707  -0.66579  -0.66343  -0.65950
 Alpha  occ. eigenvalues --   -0.65322  -0.65102  -0.64219  -0.63613  -0.63486
 Alpha  occ. eigenvalues --   -0.62531  -0.61724  -0.61108  -0.60216  -0.59309
 Alpha  occ. eigenvalues --   -0.58988  -0.57436  -0.57017  -0.56784  -0.56614
 Alpha  occ. eigenvalues --   -0.56516  -0.56329  -0.56276  -0.55785  -0.55405
 Alpha  occ. eigenvalues --   -0.53832  -0.53220  -0.52708  -0.52203  -0.51456
 Alpha  occ. eigenvalues --   -0.51181  -0.49889  -0.48516  -0.48056  -0.47130
 Alpha  occ. eigenvalues --   -0.46613  -0.46010  -0.45888  -0.45584  -0.44211
 Alpha  occ. eigenvalues --   -0.42704  -0.41705  -0.41026  -0.39254  -0.35005
 Alpha  occ. eigenvalues --   -0.33992  -0.33577  -0.32934  -0.25107
 Alpha virt. eigenvalues --   -0.01838   0.02861   0.03369   0.03496   0.04013
 Alpha virt. eigenvalues --    0.04102   0.04286   0.04915   0.05230   0.05403
 Alpha virt. eigenvalues --    0.05574   0.06025   0.06244   0.06316   0.06748

 Mulliken charges:
               1
     1  C    0.104279
     2  C    0.700523
     3  C   -0.776420
     4  C    1.672568
     5  C    0.035247
     6  C    0.822843
     7  C   -0.128036
     8  C    1.195010
     9  C    0.775809
    10  C    0.196897
    11  C   -0.188959
    12  C    1.453142
    13  C    0.245787
    14  C    0.431503
    15  H   -0.676705
    16  H   -0.714235
    17  H   -0.752186
    18  N   -0.961929
    19  N   -0.985947
    20  O   -0.858001
    21  O   -0.889448
    22  O   -0.902065
    23  O   -0.791285
    24  C    0.697163
    25  H   -0.045835
    26  H   -0.035856
    27  H   -0.223643
    28  C    0.670241
    29  H   -0.015132
    30  H   -0.015202
    31  H   -0.225741
    32  C    0.262790
    33  C    0.635828
    34  S    0.704951
    35  C   -0.170053
    36  H   -0.711833
    37  C   -0.148459
    38  O   -1.126570
    39  C    0.947588
    40  C    0.958707
    41  C   -0.035511
    42  S    0.347653
    43  H   -0.362902
    44  H   -0.044490
    45  H   -0.042102
    46  C    0.935637
    47  O   -1.134604
    48  C   -0.219167
    49  H   -0.635955
    50  C    0.907631
    51  H   -0.424792
    52  H   -0.041837
    53  H   -0.356832
    54  H   -0.060063
 Sum of Mulliken charges =  -0.00000

 Dipole moment (field-independent basis, Debye):
    X=             -3.6843    Y=             -0.4548    Z=             -0.5213  Tot=              3.7487
 Quadrupole moment (field-independent basis, Debye-Ang):
   XX=           -211.4642   YY=           -216.2042   ZZ=           -226.0046
   XY=            -12.4845   XZ=              9.4113   YZ=             -6.3320

 Normal termination of Gaussian 16 at Wed Dec  9 14:13:24 2020.
