 Gaussian 16, Revision C.01,
 Gaussian 16:  ES64L-G16RevC.01  3-Jul-2019

 -------------------------------
 # mp2/aug-cc-pvdz MaxDisk=400GB
 -------------------------------

 -----------------
 NDI_-95_b3lyp.pdb
 -----------------
 Symbolic Z-matrix:
 Charge =  0 Multiplicity = 1

                         Standard orientation:
 ---------------------------------------------------------------------
 Center     Atomic      Atomic             Coordinates (Angstroms)
 Number     Number       Type             X           Y           Z
 ---------------------------------------------------------------------
      1          6           0        3.283953   -2.842083    0.131974
      2          6           0        2.640995   -1.501063    0.147974
      3          6           0        3.416031   -0.338087   -0.048026
      4          6           0        4.809028   -0.428130   -0.269026
      5          6           0        5.482987   -1.755151   -0.295026
      6          6           0        1.282998   -1.396021    0.349974
      7          6           0        2.777070    0.931933   -0.022026
      8          6           0        1.375073    1.023976    0.200974
      9          6           0        0.622037   -0.142001    0.378974
     10          6           0        0.748115    2.379995    0.256974
     11          6           0        2.958148    3.440927   -0.216026
     12          6           0        3.571106    2.086908   -0.226026
     13          6           0        4.933102    1.975866   -0.442026
     14          6           0        5.556063    0.718846   -0.463026
     15          1           0        6.622061    0.627813   -0.630026
     16          1           0        5.506130    2.881848   -0.596026
     17          1           0        0.701970   -2.299003    0.489974
     18          7           0        1.582149    3.488970    0.016974
     19          7           0        4.666952   -2.879126   -0.092026
     20          8           0        2.659921   -3.872064    0.303974
     21          8           0        6.679983   -1.867188   -0.482026
     22          8           0        3.614179    4.449907   -0.398026
     23          8           0       -0.424879    2.568032    0.498974
     24          6           0        0.924190    4.803990    0.054974
     25          1           0        0.099190    4.820016   -0.657026
     26          1           0        0.522196    4.990002    1.050974
     27          1           0        1.666213    5.553967   -0.200026
     28          6           0        5.286911   -4.212145   -0.108026
     29          1           0        5.128895   -4.704140    0.851974
     30          1           0        4.827892   -4.821131   -0.887026
     31          1           0        6.347914   -4.085178   -0.299026
     32          6           0       -0.843964   -0.176955    0.598974
     33          6           0       -1.509966   -0.229935    1.790974
     34         16           0       -1.934967   -0.264921   -0.752026
     35          6           0       -2.919969   -0.315891    1.623974
     36          1           0       -1.008965   -0.183950    2.747974
     37          6           0       -3.338970   -0.347878    0.303974
     38          8           0       -3.844971   -0.376862    2.622974
     39          6           0       -4.686973   -0.440836   -0.201026
     40          6           0       -3.389967   -0.249876    3.964974
     41          6           0       -5.098974   -0.486823   -1.525026
     42         16           0       -6.095975   -0.508792    0.848974
     43          1           0       -4.280968   -0.289849    4.587974
     44          1           0       -2.720992   -1.073897    4.236974
     45          1           0       -2.879937    0.707108    4.119974
     46          6           0       -6.509977   -0.571780   -1.696026
     47          8           0       -4.164973   -0.449852   -2.518026
     48          6           0       -7.169977   -0.591759   -0.500026
     49          1           0       -7.008978   -0.615764   -2.653026
     50          6           0       -4.621974   -0.483838   -3.865026
     51          1           0       -8.234979   -0.651726   -0.333026
     52          1           0       -5.259947    0.377182   -4.088026
     53          1           0       -3.727973   -0.440866   -4.485026
     54          1           0       -5.165003   -1.410821   -4.076026
 ---------------------------------------------------------------------

 SCF Done:  E(RHF) =  -2348.40914004     A.U. after   21 cycles
 E2 =    -0.5316365168D+01 EUMP2 =    -0.23537255052118D+04

 The electronic state is 1-A.
 Alpha  occ. eigenvalues --  -91.98351 -91.98005 -20.59771 -20.59758 -20.57089
 Alpha  occ. eigenvalues --  -20.57073 -20.56837 -20.56735 -15.64187 -15.63860
 Alpha  occ. eigenvalues --  -11.40270 -11.40013 -11.39907 -11.39905 -11.31000
 Alpha  occ. eigenvalues --  -11.30536 -11.30424 -11.30420 -11.30324 -11.30138
 Alpha  occ. eigenvalues --  -11.29671 -11.29657 -11.29591 -11.29571 -11.29515
 Alpha  occ. eigenvalues --  -11.29014 -11.28898 -11.28843 -11.28446 -11.27559
 Alpha  occ. eigenvalues --  -11.27272 -11.26942 -11.26939 -11.26752 -11.24755
 Alpha  occ. eigenvalues --  -11.24442  -8.98417  -8.98098  -6.66576  -6.66478
 Alpha  occ. eigenvalues --   -6.66283  -6.66256  -6.66161  -6.65972  -1.43712
 Alpha  occ. eigenvalues --   -1.43618  -1.41767  -1.41649  -1.41624  -1.41530
 Alpha  occ. eigenvalues --   -1.27824  -1.27399  -1.23574  -1.18897  -1.17059
 Alpha  occ. eigenvalues --   -1.15392  -1.13163  -1.07804  -1.06190  -1.03497
 Alpha  occ. eigenvalues --   -1.00454  -1.00338  -0.98890  -0.97327  -0.97070
 Alpha  occ. eigenvalues --   -0.96236  -0.93548  -0.92109  -0.90210  -0.89142
 Alpha  occ. eigenvalues --   -0.88576  -0.86942  -0.81307  -0.79671  -0.78793
 Alpha  occ. eigenvalues --   -0.78104  -0.76225  -0.74621  -0.73955  -0.72862
 Alpha  occ. eigenvalues --   -0.71994  -0.70815  -0.69598  -0.68154  -0.67482
 Alpha  occ. eigenvalues --   -0.66964  -0.66413  -0.66018  -0.65939  -0.65697
 Alpha  occ. eigenvalues --   -0.65502  -0.64829  -0.64437  -0.64218  -0.63958
 Alpha  occ. eigenvalues --   -0.62405  -0.61775  -0.60861  -0.60332  -0.59642
 Alpha  occ. eigenvalues --   -0.59413  -0.57483  -0.57070  -0.57015  -0.56694
 Alpha  occ. eigenvalues --   -0.56423  -0.56183  -0.55999  -0.55904  -0.55426
 Alpha  occ. eigenvalues --   -0.54010  -0.53524  -0.52571  -0.51531  -0.51093
 Alpha  occ. eigenvalues --   -0.50429  -0.48827  -0.48000  -0.47694  -0.47642
 Alpha  occ. eigenvalues --   -0.46479  -0.46280  -0.45885  -0.45519  -0.45121
 Alpha  occ. eigenvalues --   -0.43281  -0.42073  -0.41544  -0.37154  -0.36077
 Alpha  occ. eigenvalues --   -0.33948  -0.33344  -0.33092  -0.25453
 Alpha virt. eigenvalues --   -0.01751   0.02928   0.03280   0.03531   0.03892
 Alpha virt. eigenvalues --    0.04087   0.04629   0.04825   0.05191   0.05488
 Alpha virt. eigenvalues --    0.05563   0.05907   0.06316   0.06375   0.06623

 Mulliken charges:
               1
     1  C    0.057104
     2  C    1.129993
     3  C   -0.619395
     4  C    1.733101
     5  C   -0.011216
     6  C   -0.130157
     7  C   -0.239702
     8  C    1.032967
     9  C    1.519084
    10  C   -0.460892
    11  C   -0.020399
    12  C    1.452889
    13  C    0.338331
    14  C    0.273441
    15  H   -0.632689
    16  H   -0.644720
    17  H   -0.815130
    18  N   -0.942814
    19  N   -0.955489
    20  O   -0.864827
    21  O   -0.888782
    22  O   -0.905657
    23  O   -0.856421
    24  C    0.695915
    25  H   -0.017265
    26  H   -0.015580
    27  H   -0.251864
    28  C    0.674112
    29  H   -0.020798
    30  H   -0.019183
    31  H   -0.232989
    32  C    2.289242
    33  C   -0.201705
    34  S   -0.010754
    35  C    0.259992
    36  H   -0.865103
    37  C   -0.759438
    38  O   -1.101601
    39  C    1.342312
    40  C    0.972326
    41  C   -0.166968
    42  S    0.334086
    43  H   -0.347372
    44  H   -0.070197
    45  H   -0.052952
    46  C    1.015251
    47  O   -1.131944
    48  C   -0.258688
    49  H   -0.638926
    50  C    0.920948
    51  H   -0.425587
    52  H   -0.064575
    53  H   -0.328072
    54  H   -0.071249
 Sum of Mulliken charges =  -0.00000

 Dipole moment (field-independent basis, Debye):
    X=             -0.9177    Y=              0.2288    Z=             -0.0796  Tot=              0.9492
 Quadrupole moment (field-independent basis, Debye-Ang):
   XX=           -221.2912   YY=           -238.9746   ZZ=           -197.8007
   XY=             -1.2696   XZ=             11.5284   YZ=              2.2731

 Normal termination of Gaussian 16 at Thu Dec 10 17:44:16 2020.
