 Gaussian 16, Revision C.01,
 Gaussian 16:  ES64L-G16RevC.01  3-Jul-2019

 -------------------------------
 # mp2/aug-cc-pvdz MaxDisk=400GB
 -------------------------------

 -----------------
 NDI_-80_b3lyp.pdb
 -----------------
 Symbolic Z-matrix:
 Charge =  0 Multiplicity = 1

                         Standard orientation:
 ---------------------------------------------------------------------
 Center     Atomic      Atomic             Coordinates (Angstroms)
 Number     Number       Type             X           Y           Z
 ---------------------------------------------------------------------
      1          6           0        3.019902   -2.872980    0.542030
      2          6           0        2.496911   -1.494976    0.341030
      3          6           0        3.378919   -0.434983    0.039030
      4          6           0        4.767917   -0.664992   -0.080970
      5          6           0        5.324907   -2.030996    0.117030
      6          6           0        1.146913   -1.252967    0.460030
      7          6           0        2.850928    0.871021   -0.153970
      8          6           0        1.451929    1.104031   -0.028970
      9          6           0        0.597922    0.046037    0.308030
     10          6           0        0.931939    2.479035   -0.297970
     11          6           0        3.255945    3.298018   -0.707970
     12          6           0        3.749935    1.917015   -0.475970
     13          6           0        5.107933    1.669005   -0.587970
     14          6           0        5.620924    0.379002   -0.389970
     15          1           0        6.680923    0.180994   -0.476970
     16          1           0        5.762939    2.495001   -0.833970
     17          1           0        0.487907   -2.077962    0.702030
     18          7           0        1.872946    3.476028   -0.616970
     19          7           0        4.403900   -3.047990    0.415030
     20          8           0        2.300895   -3.816975    0.805030
     21          8           0        6.515906   -2.261004    0.026030
     22          8           0        4.005951    4.220013   -0.969970
     23          8           0       -0.245059    2.773043   -0.265970
     24          6           0        1.322955    4.816032   -0.873970
     25          1           0        0.615955    4.771037   -1.701970
     26          1           0        0.793958    5.174036    0.010030
     27          1           0        2.150960    5.475026   -1.112970
     28          6           0        4.906891   -4.414993    0.618030
     29          1           0        4.642888   -4.758991    1.618030
     30          1           0        4.449886   -5.086990   -0.108970
     31          1           0        5.984891   -4.396001    0.494030
     32          6           0       -0.862077    0.170047    0.504030
     33          6           0       -1.529074    0.627052    1.608030
     34         16           0       -1.955082   -0.523945   -0.659970
     35          6           0       -2.935075    0.457062    1.508030
     36          1           0       -1.028071    1.079048    2.452030
     37          6           0       -3.357079   -0.147936    0.333030
     38          8           0       -3.857073    0.819068    2.443030
     39          6           0       -4.706081   -0.426926   -0.088970
     40          6           0       -3.415067    1.591065    3.553030
     41          6           0       -5.120086   -1.059923   -1.252970
     42         16           0       -6.116078    0.030084    0.857030
     43          1           0       -4.308066    1.826071    4.130030
     44          1           0       -2.721071    1.021060    4.181030
     45          1           0       -2.937061    2.519062    3.223030
     46          6           0       -6.532087   -1.175913   -1.384970
     47          8           0       -4.186089   -1.501930   -2.140970
     48          6           0       -7.192083   -0.629909   -0.319970
     49          1           0       -7.033090   -1.638910   -2.221970
     50          6           0       -4.642093   -2.149927   -3.322970
     51          1           0       -8.258082   -0.582901   -0.156970
     52          1           0       -5.260089   -1.478922   -3.928970
     53          1           0       -3.746095   -2.417933   -3.881970
     54          1           0       -5.206100   -3.056923   -3.084970
 ---------------------------------------------------------------------

 SCF Done:  E(RHF) =  -2348.40845532     A.U. after   21 cycles
 E2 =    -0.5317267256D+01 EUMP2 =    -0.23537257225761D+04

 The electronic state is 1-A.
 Alpha  occ. eigenvalues --  -91.98533 -91.98086 -20.59854 -20.59806 -20.57058
 Alpha  occ. eigenvalues --  -20.57047 -20.56765 -20.56737 -15.64138 -15.63864
 Alpha  occ. eigenvalues --  -11.40240 -11.39956 -11.39919 -11.39894 -11.31045
 Alpha  occ. eigenvalues --  -11.30594 -11.30522 -11.30366 -11.30248 -11.30062
 Alpha  occ. eigenvalues --  -11.29726 -11.29672 -11.29558 -11.29508 -11.29481
 Alpha  occ. eigenvalues --  -11.28929 -11.28836 -11.28799 -11.28433 -11.27527
 Alpha  occ. eigenvalues --  -11.27298 -11.27097 -11.27032 -11.26810 -11.24826
 Alpha  occ. eigenvalues --  -11.24497  -8.98588  -8.98179  -6.66747  -6.66650
 Alpha  occ. eigenvalues --   -6.66455  -6.66337  -6.66243  -6.66054  -1.43715
 Alpha  occ. eigenvalues --   -1.43577  -1.41779  -1.41731  -1.41637  -1.41607
 Alpha  occ. eigenvalues --   -1.27796  -1.27375  -1.23513  -1.18953  -1.17097
 Alpha  occ. eigenvalues --   -1.15399  -1.13105  -1.07819  -1.06137  -1.03552
 Alpha  occ. eigenvalues --   -1.00499  -1.00341  -0.99005  -0.97341  -0.96998
 Alpha  occ. eigenvalues --   -0.96355  -0.93558  -0.92157  -0.90197  -0.89111
 Alpha  occ. eigenvalues --   -0.88571  -0.86884  -0.81416  -0.79673  -0.78797
 Alpha  occ. eigenvalues --   -0.78103  -0.76179  -0.74756  -0.74077  -0.72747
 Alpha  occ. eigenvalues --   -0.72053  -0.70799  -0.69553  -0.68145  -0.67468
 Alpha  occ. eigenvalues --   -0.66963  -0.66432  -0.66083  -0.65979  -0.65745
 Alpha  occ. eigenvalues --   -0.65470  -0.64798  -0.64491  -0.64155  -0.63938
 Alpha  occ. eigenvalues --   -0.62431  -0.61806  -0.60865  -0.60317  -0.59553
 Alpha  occ. eigenvalues --   -0.59417  -0.57431  -0.57079  -0.57022  -0.56695
 Alpha  occ. eigenvalues --   -0.56475  -0.56280  -0.55995  -0.55915  -0.55473
 Alpha  occ. eigenvalues --   -0.53987  -0.53501  -0.52665  -0.51590  -0.51171
 Alpha  occ. eigenvalues --   -0.50498  -0.48790  -0.48017  -0.47779  -0.47567
 Alpha  occ. eigenvalues --   -0.46507  -0.46338  -0.45971  -0.45568  -0.45146
 Alpha  occ. eigenvalues --   -0.43242  -0.42056  -0.41524  -0.37495  -0.35817
 Alpha  occ. eigenvalues --   -0.33874  -0.33418  -0.33138  -0.25411
 Alpha virt. eigenvalues --   -0.01771   0.02936   0.03269   0.03508   0.03953
 Alpha virt. eigenvalues --    0.04086   0.04609   0.04796   0.05218   0.05552
 Alpha virt. eigenvalues --    0.05624   0.05956   0.06244   0.06351   0.06551

 Mulliken charges:
               1
     1  C    0.084274
     2  C    0.967823
     3  C   -0.618488
     4  C    1.639069
     5  C    0.064335
     6  C    0.046659
     7  C   -0.226993
     8  C    1.056010
     9  C    1.400089
    10  C   -0.427704
    11  C   -0.019639
    12  C    1.407549
    13  C    0.385913
    14  C    0.302507
    15  H   -0.635189
    16  H   -0.652981
    17  H   -0.789040
    18  N   -0.957847
    19  N   -0.958529
    20  O   -0.859587
    21  O   -0.886852
    22  O   -0.903689
    23  O   -0.821489
    24  C    0.688661
    25  H   -0.018873
    26  H   -0.017934
    27  H   -0.247840
    28  C    0.677929
    29  H   -0.021823
    30  H   -0.016911
    31  H   -0.233203
    32  C    1.736175
    33  C    0.285669
    34  S    0.111685
    35  C    0.012381
    36  H   -0.842815
    37  C   -0.631347
    38  O   -1.100309
    39  C    1.315061
    40  C    0.986241
    41  C   -0.158145
    42  S    0.343444
    43  H   -0.343672
    44  H   -0.103239
    45  H   -0.042104
    46  C    1.023851
    47  O   -1.124335
    48  C   -0.266987
    49  H   -0.636260
    50  C    0.918269
    51  H   -0.425615
    52  H   -0.063078
    53  H   -0.324570
    54  H   -0.076505
 Sum of Mulliken charges =  -0.00000

 Dipole moment (field-independent basis, Debye):
    X=             -1.0793    Y=              0.1293    Z=             -0.0335  Tot=              1.0875
 Quadrupole moment (field-independent basis, Debye-Ang):
   XX=           -221.3362   YY=           -231.3583   ZZ=           -204.7201
   XY=              2.5170   XZ=              9.7069   YZ=             15.0443

 Normal termination of Gaussian 16 at Thu Dec 10 16:46:10 2020.
