 Gaussian 16, Revision C.01,
 Gaussian 16:  ES64L-G16RevC.01  3-Jul-2019

 -------------------------------
 # mp2/aug-cc-pvdz MaxDisk=400GB
 -------------------------------

 ------------------
 NDI_-145_b3lyp.pdb
 ------------------
 Symbolic Z-matrix:
 Charge =  0 Multiplicity = 1

                         Standard orientation:
 ---------------------------------------------------------------------
 Center     Atomic      Atomic             Coordinates (Angstroms)
 Number     Number       Type             X           Y           Z
 ---------------------------------------------------------------------
      1          6           0       -3.515155   -2.694897    0.372966
      2          6           0       -2.765104   -1.444928    0.085966
      3          6           0       -3.424053   -0.193901    0.118966
      4          6           0       -4.794049   -0.108845    0.439966
      5          6           0       -5.571100   -1.339813    0.745966
      6          6           0       -1.417106   -1.504983   -0.170034
      7          6           0       -2.682005    0.980069   -0.186034
      8          6           0       -1.298008    0.895012   -0.508034
      9          6           0       -0.635059   -0.345015   -0.433034
     10          6           0       -0.644958    2.112985   -1.062034
     11          6           0       -2.641902    3.482067   -0.473034
     12          6           0       -3.358954    2.223097   -0.154034
     13          6           0       -4.703951    2.286152    0.175966
     14          6           0       -5.426999    1.124181    0.471966
     15          1           0       -6.478997    1.168224    0.722966
     16          1           0       -5.181911    3.258171    0.198966
     17          1           0       -0.931146   -2.471003   -0.119034
     18          7           0       -1.321908    3.338013   -0.903034
     19          7           0       -4.873150   -2.557841    0.684966
     20          8           0       -2.997200   -3.796918    0.342966
     21          8           0       -6.753098   -1.303764    1.032966
     22          8           0       -3.172857    4.576089   -0.392034
     23          8           0        0.413041    2.097942   -1.661034
     24          6           0       -0.607859    4.536984   -1.366034
     25          1           0        0.410140    4.518942   -0.981034
     26          1           0       -0.563858    4.554982   -2.456034
     27          1           0       -1.146823    5.406006   -1.002034
     28          6           0       -5.603201   -3.801811    0.971966
     29          1           0       -5.555228   -4.463813    0.106966
     30          1           0       -5.145221   -4.309830    1.820966
     31          1           0       -6.632190   -3.540769    1.194966
     32          6           0        0.808932   -0.565074   -0.515034
     33          6           0        1.429887   -1.653100   -1.099034
     34         16           0        1.962972    0.417879    0.343966
     35          6           0        2.823887   -1.673157   -0.892034
     36          1           0        0.893857   -2.387078   -1.683034
     37          6           0        3.296930   -0.625176   -0.104034
     38          8           0        3.702849   -2.593193   -1.372034
     39          6           0        4.649939   -0.384232    0.316966
     40          6           0        3.186805   -3.673172   -2.143034
     41          6           0        5.120982    0.656749    1.110966
     42         16           0        5.994897   -1.425287   -0.134034
     43          1           0        4.044780   -4.284207   -2.414034
     44          1           0        2.481780   -4.274143   -1.558034
     45          1           0        2.696820   -3.309152   -3.052034
     46          6           0        6.521981    0.620692    1.347966
     47          8           0        4.246020    1.582785    1.583966
     48          6           0        7.116937   -0.447333    0.735966
     49          1           0        7.063010    1.345670    1.938966
     50          6           0        4.764065    2.669764    2.343966
     51          1           0        8.161926   -0.716375    0.748966
     52          1           0        5.477089    3.256735    1.755966
     53          1           0        3.907090    3.290799    2.598966
     54          1           0        5.243050    2.316744    3.261966
 ---------------------------------------------------------------------

 SCF Done:  E(RHF) =  -2348.40404260     A.U. after   26 cycles
 E2 =    -0.5324121264D+01 EUMP2 =    -0.23537281638624D+04

 The electronic state is 1-A.
 Alpha  occ. eigenvalues --  -91.98677 -91.98570 -20.60363 -20.60141 -20.57001
 Alpha  occ. eigenvalues --  -20.56930 -20.56316 -20.56293 -15.64062 -15.63415
 Alpha  occ. eigenvalues --  -11.40094 -11.39929 -11.39483 -11.39445 -11.31202
 Alpha  occ. eigenvalues --  -11.31134 -11.30841 -11.30119 -11.30075 -11.29994
 Alpha  occ. eigenvalues --  -11.29662 -11.29597 -11.29329 -11.29306 -11.29071
 Alpha  occ. eigenvalues --  -11.28748 -11.28593 -11.28556 -11.28442 -11.28016
 Alpha  occ. eigenvalues --  -11.27587 -11.27466 -11.27209 -11.27012 -11.25686
 Alpha  occ. eigenvalues --  -11.24907  -8.98761  -8.98659  -6.66910  -6.66818
 Alpha  occ. eigenvalues --   -6.66815  -6.66720  -6.66625  -6.66532  -1.43553
 Alpha  occ. eigenvalues --   -1.43058  -1.42295  -1.42076  -1.41602  -1.41052
 Alpha  occ. eigenvalues --   -1.27648  -1.27022  -1.23226  -1.19243  -1.17346
 Alpha  occ. eigenvalues --   -1.15487  -1.12850  -1.07905  -1.05920  -1.03801
 Alpha  occ. eigenvalues --   -1.00874  -1.00151  -0.99488  -0.97720  -0.97019
 Alpha  occ. eigenvalues --   -0.96132  -0.94062  -0.92410  -0.89899  -0.88864
 Alpha  occ. eigenvalues --   -0.88373  -0.86813  -0.81569  -0.79913  -0.78781
 Alpha  occ. eigenvalues --   -0.78025  -0.76524  -0.74670  -0.73900  -0.73020
 Alpha  occ. eigenvalues --   -0.72338  -0.70653  -0.69411  -0.67910  -0.67302
 Alpha  occ. eigenvalues --   -0.66766  -0.66570  -0.66502  -0.66174  -0.66022
 Alpha  occ. eigenvalues --   -0.65451  -0.64852  -0.64457  -0.63833  -0.63681
 Alpha  occ. eigenvalues --   -0.62480  -0.61744  -0.61209  -0.60449  -0.59536
 Alpha  occ. eigenvalues --   -0.59107  -0.57519  -0.56898  -0.56683  -0.56659
 Alpha  occ. eigenvalues --   -0.56525  -0.56486  -0.56058  -0.55867  -0.55537
 Alpha  occ. eigenvalues --   -0.53864  -0.53185  -0.53052  -0.51813  -0.51545
 Alpha  occ. eigenvalues --   -0.51056  -0.49509  -0.48225  -0.48125  -0.47308
 Alpha  occ. eigenvalues --   -0.46577  -0.46143  -0.45832  -0.45778  -0.44862
 Alpha  occ. eigenvalues --   -0.42964  -0.41904  -0.41196  -0.38715  -0.35237
 Alpha  occ. eigenvalues --   -0.33827  -0.33639  -0.33074  -0.25290
 Alpha virt. eigenvalues --   -0.01866   0.02948   0.03316   0.03468   0.03957
 Alpha virt. eigenvalues --    0.04222   0.04578   0.04843   0.05144   0.05412
 Alpha virt. eigenvalues --    0.05765   0.05784   0.05860   0.06304   0.06638

 Mulliken charges:
               1
     1  C    0.031417
     2  C    0.860308
     3  C   -0.586748
     4  C    1.585140
     5  C    0.062803
     6  C    0.405626
     7  C   -0.618398
     8  C    1.261683
     9  C    1.223039
    10  C    0.173657
    11  C   -0.045993
    12  C    1.329116
    13  C    0.400949
    14  C    0.280930
    15  H   -0.626591
    16  H   -0.662339
    17  H   -0.767187
    18  N   -0.960580
    19  N   -0.964800
    20  O   -0.861032
    21  O   -0.898337
    22  O   -0.895262
    23  O   -0.796560
    24  C    0.700819
    25  H   -0.077741
    26  H   -0.042116
    27  H   -0.195366
    28  C    0.673882
    29  H   -0.015814
    30  H   -0.017005
    31  H   -0.226247
    32  C    1.135751
    33  C    0.392518
    34  S    0.222289
    35  C   -0.245874
    36  H   -0.817989
    37  C   -0.122224
    38  O   -1.105763
    39  C    1.110462
    40  C    0.980566
    41  C   -0.182383
    42  S    0.367106
    43  H   -0.345019
    44  H   -0.047424
    45  H   -0.068924
    46  C    1.005579
    47  O   -1.128527
    48  C   -0.267731
    49  H   -0.636351
    50  C    0.913291
    51  H   -0.426410
    52  H   -0.051641
    53  H   -0.336202
    54  H   -0.076350
 Sum of Mulliken charges =  -0.00000

 Dipole moment (field-independent basis, Debye):
    X=              2.4366    Y=             -0.2090    Z=              0.5797  Tot=              2.5133
 Quadrupole moment (field-independent basis, Debye-Ang):
   XX=           -215.6890   YY=           -221.6150   ZZ=           -218.8484
   XY=              9.3242   XZ=             11.6233   YZ=             14.3459

 Normal termination of Gaussian 16 at Wed Dec  9 22:09:59 2020.
