 Gaussian 16, Revision C.01,
 Gaussian 16:  ES64L-G16RevC.01  3-Jul-2019

 -------------------------------
 # mp2/aug-cc-pvdz MaxDisk=400GB
 -------------------------------

 ---------------
 NDI_0_b3lyp.pdb
 ---------------
 Symbolic Z-matrix:
 Charge =  0 Multiplicity = 1

                         Standard orientation:
 ---------------------------------------------------------------------
 Center     Atomic      Atomic             Coordinates (Angstroms)
 Number     Number       Type             X           Y           Z
 ---------------------------------------------------------------------
      1          6           0       -2.389129   -3.034955    0.174933
      2          6           0       -2.165083   -1.564962    0.148933
      3          6           0       -3.251055   -0.675928   -0.020067
      4          6           0       -4.556070   -1.168887   -0.203067
      5          6           0       -4.815116   -2.633878   -0.202067
      6          6           0       -0.893068   -1.081002    0.256933
      7          6           0       -2.987011    0.721064    0.007933
      8          6           0       -1.656995    1.221022    0.197933
      9          6           0       -0.556024    0.311988    0.236933
     10          6           0       -1.540949    2.677019    0.452933
     11          6           0       -3.921938    3.053093   -0.171067
     12          6           0       -4.094984    1.586099   -0.177067
     13          6           0       -5.374000    1.083139   -0.377067
     14          6           0       -5.615043   -0.291853   -0.384067
     15          1           0       -6.612055   -0.688822   -0.528067
     16          1           0       -6.180977    1.790165   -0.525067
     17          1           0       -0.114091   -1.826026    0.349933
     18          7           0       -2.640924    3.500053    0.151933
     19          7           0       -3.705143   -3.472913   -0.005067
     20          8           0       -1.488154   -3.837983    0.336933
     21          8           0       -5.930131   -3.092843   -0.360067
     22          8           0       -4.833913    3.830122   -0.403067
     23          8           0       -0.553933    3.213988    0.934933
     24          6           0       -2.434878    4.945047    0.323933
     25          1           0       -2.272871    5.180042    1.376933
     26          1           0       -1.555868    5.258019   -0.238067
     27          1           0       -3.323862    5.449075   -0.042067
     28          6           0       -3.916189   -4.926907    0.013933
     29          1           0       -3.326203   -5.394925   -0.774067
     30          1           0       -3.595201   -5.332917    0.972933
     31          1           0       -4.974194   -5.112873   -0.142067
     32          6           0        0.874985    0.592943    0.150933
     33          6           0        1.601022    1.766920    0.010933
     34         16           0        1.997942   -0.780093    0.154933
     35          6           0        2.986016    1.573876   -0.102067
     36          1           0        1.140052    2.735934    0.019933
     37          6           0        3.395974    0.239863   -0.038067
     38          8           0        3.924046    2.544847   -0.248067
     39          6           0        4.732958   -0.271179   -0.103067
     40          6           0        3.485089    3.901861   -0.274067
     41          6           0        5.138916   -1.602191   -0.026067
     42         16           0        6.146990    0.759777   -0.300067
     43          1           0        4.387108    4.502832   -0.371067
     44          1           0        2.829095    4.084881   -1.131067
     45          1           0        2.964097    4.163877    0.651933
     46          6           0        6.544910   -1.787236   -0.121067
     47          8           0        4.204886   -2.572162    0.125933
     48          6           0        7.205948   -0.599256   -0.272067
     49          1           0        7.040880   -2.745251   -0.081067
     50          6           0        4.642843   -3.926176    0.213933
     51          1           0        8.270952   -0.448290   -0.368067
     52          1           0        5.295838   -4.072196    1.079933
     53          1           0        3.739824   -4.522147    0.334933
     54          1           0        5.161833   -4.231192   -0.700067
 ---------------------------------------------------------------------

 SCF Done:  E(RHF) =  -2348.39834148     A.U. after   21 cycles
 E2 =    -0.5327738556D+01 EUMP2 =    -0.23537260800335D+04

 The electronic state is 1-A.
 Alpha  occ. eigenvalues --  -91.99150 -91.99109 -20.60903 -20.60223 -20.56754
 Alpha  occ. eigenvalues --  -20.56734 -20.56409 -20.56013 -15.63831 -15.63468
 Alpha  occ. eigenvalues --  -11.39854 -11.39761 -11.39664 -11.39140 -11.32065
 Alpha  occ. eigenvalues --  -11.32016 -11.30948 -11.30386 -11.29969 -11.29855
 Alpha  occ. eigenvalues --  -11.29288 -11.29108 -11.29047 -11.28992 -11.28931
 Alpha  occ. eigenvalues --  -11.28763 -11.28520 -11.28331 -11.28312 -11.28082
 Alpha  occ. eigenvalues --  -11.27818 -11.27656 -11.27284 -11.27161 -11.25455
 Alpha  occ. eigenvalues --  -11.25403  -8.99228  -8.99223  -6.67384  -6.67374
 Alpha  occ. eigenvalues --   -6.67288  -6.67278  -6.67101  -6.67086  -1.43378
 Alpha  occ. eigenvalues --   -1.43091  -1.42899  -1.42208  -1.41419  -1.40908
 Alpha  occ. eigenvalues --   -1.27461  -1.26999  -1.22810  -1.19406  -1.17552
 Alpha  occ. eigenvalues --   -1.15392  -1.12495  -1.07814  -1.05647  -1.04195
 Alpha  occ. eigenvalues --   -1.01129  -1.00058  -0.99858  -0.97868  -0.96860
 Alpha  occ. eigenvalues --   -0.96506  -0.94077  -0.92479  -0.89852  -0.88646
 Alpha  occ. eigenvalues --   -0.88384  -0.86470  -0.82064  -0.80073  -0.78809
 Alpha  occ. eigenvalues --   -0.77823  -0.76461  -0.75144  -0.74550  -0.73208
 Alpha  occ. eigenvalues --   -0.71851  -0.70421  -0.69417  -0.68129  -0.67424
 Alpha  occ. eigenvalues --   -0.66979  -0.66851  -0.66351  -0.66224  -0.65802
 Alpha  occ. eigenvalues --   -0.65328  -0.65050  -0.64095  -0.63991  -0.63597
 Alpha  occ. eigenvalues --   -0.62508  -0.61751  -0.61318  -0.59654  -0.59360
 Alpha  occ. eigenvalues --   -0.59020  -0.57383  -0.57187  -0.57033  -0.56607
 Alpha  occ. eigenvalues --   -0.56442  -0.56433  -0.56314  -0.55613  -0.55419
 Alpha  occ. eigenvalues --   -0.53859  -0.53246  -0.53065  -0.52449  -0.51299
 Alpha  occ. eigenvalues --   -0.51197  -0.49940  -0.48674  -0.48045  -0.47076
 Alpha  occ. eigenvalues --   -0.46657  -0.46162  -0.45688  -0.45621  -0.44835
 Alpha  occ. eigenvalues --   -0.42848  -0.41792  -0.41243  -0.39389  -0.35051
 Alpha  occ. eigenvalues --   -0.34403  -0.33779  -0.32951  -0.25256
 Alpha virt. eigenvalues --   -0.01908   0.02845   0.03294   0.03550   0.03991
 Alpha virt. eigenvalues --    0.04124   0.04248   0.04963   0.05286   0.05339
 Alpha virt. eigenvalues --    0.05467   0.05674   0.06018   0.06553   0.06812

 Mulliken charges:
               1
     1  C    0.000214
     2  C    0.798305
     3  C   -0.880170
     4  C    1.887619
     5  C    0.013880
     6  C    0.715109
     7  C   -0.288420
     8  C    1.074144
     9  C    0.249719
    10  C    0.010129
    11  C   -0.148456
    12  C    1.383032
    13  C    0.388756
    14  C    0.315832
    15  H   -0.678785
    16  H   -0.718752
    17  H   -0.594273
    18  N   -0.961051
    19  N   -0.936568
    20  O   -0.863376
    21  O   -0.889599
    22  O   -0.902673
    23  O   -0.874283
    24  C    0.684730
    25  H   -0.040386
    26  H   -0.059513
    27  H   -0.222539
    28  C    0.660014
    29  H   -0.016219
    30  H   -0.018717
    31  H   -0.230861
    32  C    0.659276
    33  C    0.539985
    34  S    0.786863
    35  C    0.139529
    36  H   -0.724574
    37  C    0.109977
    38  O   -1.094855
    39  C    1.034274
    40  C    0.958815
    41  C   -0.141663
    42  S    0.314494
    43  H   -0.371845
    44  H   -0.036203
    45  H   -0.040701
    46  C    0.956123
    47  O   -1.134328
    48  C   -0.220582
    49  H   -0.635425
    50  C    0.912329
    51  H   -0.428077
    52  H   -0.054534
    53  H   -0.329954
    54  H   -0.055764
 Sum of Mulliken charges =  -0.00000

 Dipole moment (field-independent basis, Debye):
    X=              4.0287    Y=             -0.6948    Z=             -0.4524  Tot=              4.1131
 Quadrupole moment (field-independent basis, Debye-Ang):
   XX=           -215.4513   YY=           -209.4064   ZZ=           -228.1951
   XY=             -6.9730   XZ=             -4.0905   YZ=             -1.9517

 Normal termination of Gaussian 16 at Tue Dec 15 00:32:30 2020.
