 Gaussian 16, Revision C.01,
 Gaussian 16:  ES64L-G16RevC.01  3-Jul-2019

 -------------------------------
 # mp2/aug-cc-pvdz MaxDisk=400GB
 -------------------------------

 ----------------
 NDI_40_b3lyp.pdb
 ----------------
 Symbolic Z-matrix:
 Charge =  0 Multiplicity = 1

                         Standard orientation:
 ---------------------------------------------------------------------
 Center     Atomic      Atomic             Coordinates (Angstroms)
 Number     Number       Type             X           Y           Z
 ---------------------------------------------------------------------
      1          6           0       -2.630008   -2.984034    0.417045
      2          6           0       -2.290006   -1.550034    0.224045
      3          6           0       -3.312005   -0.583033    0.084045
      4          6           0       -4.669005   -0.964031    0.128045
      5          6           0       -5.045007   -2.389030    0.333045
      6          6           0       -0.975005   -1.165036    0.213045
      7          6           0       -2.944003    0.776967   -0.117955
      8          6           0       -1.571002    1.164965   -0.151955
      9          6           0       -0.563003    0.192963    0.065045
     10          6           0       -1.263000    2.572964   -0.521955
     11          6           0       -3.693999    3.144968   -0.538955
     12          6           0       -3.991001    1.717968   -0.285955
     13          6           0       -5.320002    1.323970   -0.230955
     14          6           0       -5.666004   -0.015029   -0.022955
     15          1           0       -6.702004   -0.327028    0.017045
     16          1           0       -6.083001    2.081971   -0.359955
     17          1           0       -0.228006   -1.932037    0.370045
     18          7           0       -2.341999    3.465966   -0.670955
     19          7           0       -3.991008   -3.309032    0.459045
     20          8           0       -1.786009   -3.853035    0.535045
     21          8           0       -6.206008   -2.750029    0.386045
     22          8           0       -4.566998    3.988969   -0.645955
     23          8           0       -0.139000    2.999963   -0.722955
     24          6           0       -1.985997    4.849965   -1.013955
     25          1           0       -1.343996    5.270965   -0.239955
     26          1           0       -1.440997    4.867965   -1.957955
     27          1           0       -2.907996    5.417967   -1.092955
     28          6           0       -4.316010   -4.730031    0.654045
     29          1           0       -3.884011   -5.320032   -0.153955
     30          1           0       -3.895011   -5.077032    1.598045
     31          1           0       -5.397010   -4.827030    0.661045
     32          6           0        0.870997    0.431961    0.196045
     33          6           0        1.549998    1.441961    0.845045
     34         16           0        1.999995   -0.772040   -0.406955
     35          6           0        2.943998    1.261959    0.854045
     36          1           0        1.052999    2.285961    1.293045
     37          6           0        3.381996    0.106958    0.202045
     38          8           0        3.862999    2.086957    1.421045
     39          6           0        4.734996   -0.329044    0.000045
     40          6           0        3.404001    3.325958    1.958045
     41          6           0        5.166994   -1.493044   -0.627955
     42         16           0        6.131997    0.594954    0.540045
     43          1           0        4.296002    3.853957    2.291045
     44          1           0        2.888002    3.916959    1.195045
     45          1           0        2.739001    3.161959    2.813045
     46          6           0        6.579994   -1.639046   -0.674955
     47          8           0        4.247993   -2.359043   -1.127955
     48          6           0        7.221995   -0.587047   -0.082955
     49          1           0        7.095993   -2.477047   -1.120955
     50          6           0        4.713991   -3.557044   -1.742955
     51          1           0        8.285996   -0.442049    0.026045
     52          1           0        5.280990   -4.168045   -1.033955
     53          1           0        3.822991   -4.097043   -2.054955
     54          1           0        5.331992   -3.334045   -2.618955
 ---------------------------------------------------------------------

 SCF Done:  E(RHF) =  -2348.40470512     A.U. after   23 cycles
 E2 =    -0.5324717705D+01 EUMP2 =    -0.23537294228270D+04

 The electronic state is 1-A.
 Alpha  occ. eigenvalues --  -91.98945 -91.98696 -20.60466 -20.60066 -20.56871
 Alpha  occ. eigenvalues --  -20.56850 -20.56261 -20.56259 -15.63948 -15.63561
 Alpha  occ. eigenvalues --  -11.40007 -11.39779 -11.39712 -11.39400 -11.31444
 Alpha  occ. eigenvalues --  -11.31396 -11.30820 -11.30132 -11.30125 -11.29818
 Alpha  occ. eigenvalues --  -11.29571 -11.29515 -11.29257 -11.29232 -11.28891
 Alpha  occ. eigenvalues --  -11.28428 -11.28408 -11.28301 -11.28261 -11.28239
 Alpha  occ. eigenvalues --  -11.27758 -11.27379 -11.27300 -11.27124 -11.25509
 Alpha  occ. eigenvalues --  -11.25014  -8.99028  -8.98781  -6.67181  -6.67089
 Alpha  occ. eigenvalues --   -6.66937  -6.66896  -6.66842  -6.66654  -1.43473
 Alpha  occ. eigenvalues --   -1.43116  -1.42392  -1.41997  -1.41519  -1.41067
 Alpha  occ. eigenvalues --   -1.27547  -1.27031  -1.23069  -1.19220  -1.17369
 Alpha  occ. eigenvalues --   -1.15431  -1.12736  -1.07815  -1.05841  -1.03927
 Alpha  occ. eigenvalues --   -1.00864  -1.00135  -0.99594  -0.97571  -0.96899
 Alpha  occ. eigenvalues --   -0.96499  -0.93852  -0.92399  -0.89910  -0.88804
 Alpha  occ. eigenvalues --   -0.88408  -0.86597  -0.81809  -0.79840  -0.78792
 Alpha  occ. eigenvalues --   -0.77923  -0.76302  -0.74801  -0.74547  -0.72763
 Alpha  occ. eigenvalues --   -0.72116  -0.70543  -0.69302  -0.67944  -0.67352
 Alpha  occ. eigenvalues --   -0.66939  -0.66518  -0.66442  -0.66066  -0.65857
 Alpha  occ. eigenvalues --   -0.65273  -0.64897  -0.64329  -0.63873  -0.63674
 Alpha  occ. eigenvalues --   -0.62581  -0.61681  -0.61214  -0.59990  -0.59326
 Alpha  occ. eigenvalues --   -0.59170  -0.57386  -0.56924  -0.56828  -0.56735
 Alpha  occ. eigenvalues --   -0.56484  -0.56459  -0.56063  -0.55708  -0.55587
 Alpha  occ. eigenvalues --   -0.53826  -0.53296  -0.53092  -0.52004  -0.51447
 Alpha  occ. eigenvalues --   -0.51032  -0.49302  -0.48302  -0.48130  -0.47146
 Alpha  occ. eigenvalues --   -0.46575  -0.46360  -0.45944  -0.45671  -0.44976
 Alpha  occ. eigenvalues --   -0.42946  -0.41861  -0.41279  -0.38779  -0.35111
 Alpha  occ. eigenvalues --   -0.33953  -0.33707  -0.33049  -0.25226
 Alpha virt. eigenvalues --   -0.01940   0.02968   0.03202   0.03524   0.04099
 Alpha virt. eigenvalues --    0.04170   0.04482   0.04856   0.05235   0.05321
 Alpha virt. eigenvalues --    0.05616   0.05727   0.06053   0.06311   0.06605

 Mulliken charges:
               1
     1  C    0.106626
     2  C    0.641122
     3  C   -0.464887
     4  C    1.682747
     5  C    0.006037
     6  C    0.768350
     7  C   -0.414687
     8  C    1.196646
     9  C    1.076773
    10  C   -0.084124
    11  C   -0.087559
    12  C    1.418801
    13  C    0.332617
    14  C    0.250533
    15  H   -0.637226
    16  H   -0.681980
    17  H   -0.737270
    18  N   -0.979454
    19  N   -0.962682
    20  O   -0.858697
    21  O   -0.891858
    22  O   -0.905848
    23  O   -0.803809
    24  C    0.672054
    25  H   -0.035036
    26  H   -0.030779
    27  H   -0.233200
    28  C    0.664848
    29  H   -0.019076
    30  H   -0.016026
    31  H   -0.224469
    32  C    0.944792
    33  C    0.430655
    34  S    0.342810
    35  C   -0.310783
    36  H   -0.761560
    37  C   -0.151038
    38  O   -1.090477
    39  C    1.186942
    40  C    0.947971
    41  C   -0.256824
    42  S    0.379401
    43  H   -0.346922
    44  H   -0.026440
    45  H   -0.089588
    46  C    1.046450
    47  O   -1.129971
    48  C   -0.262497
    49  H   -0.637206
    50  C    0.913750
    51  H   -0.429038
    52  H   -0.059718
    53  H   -0.332995
    54  H   -0.056200
 Sum of Mulliken charges =  -0.00000

 Dipole moment (field-independent basis, Debye):
    X=              2.7924    Y=             -0.4210    Z=              0.1965  Tot=              2.8308
 Quadrupole moment (field-independent basis, Debye-Ang):
   XX=           -218.2158   YY=           -216.1912   ZZ=           -220.3833
   XY=             -5.9377   XZ=             -4.1295   YZ=             14.4114

 Normal termination of Gaussian 16 at Tue Dec 15 08:07:32 2020.
