 Gaussian 16, Revision C.01,
 Gaussian 16:  ES64L-G16RevC.01  3-Jul-2019

 -------------------------------
 # mp2/aug-cc-pvdz MaxDisk=400GB
 -------------------------------

 ------------------
 NDI_-115_b3lyp.pdb
 ------------------
 Symbolic Z-matrix:
 Charge =  0 Multiplicity = 1

                         Standard orientation:
 ---------------------------------------------------------------------
 Center     Atomic      Atomic             Coordinates (Angstroms)
 Number     Number       Type             X           Y           Z
 ---------------------------------------------------------------------
      1          6           0       -3.498938   -2.727069    0.402067
      2          6           0       -2.756961   -1.470055    0.123067
      3          6           0       -3.433985   -0.230068    0.117067
      4          6           0       -4.817986   -0.162094    0.387067
      5          6           0       -5.587963   -1.401108    0.684067
      6          6           0       -1.399961   -1.513030   -0.103933
      7          6           0       -2.703007    0.953946   -0.174933
      8          6           0       -1.309005    0.886972   -0.448933
      9          6           0       -0.640982   -0.342016   -0.359933
     10          6           0       -0.622029    2.126985   -0.916933
     11          6           0       -2.686053    3.456946   -0.476933
     12          6           0       -3.398030    2.188933   -0.178933
     13          6           0       -4.755031    2.232907    0.097067
     14          6           0       -5.468009    1.059894    0.379067
     15          1           0       -6.530009    1.089874    0.591067
     16          1           0       -5.250049    3.195898    0.090067
     17          1           0       -0.891943   -2.468020   -0.054933
     18          7           0       -1.336051    3.335971   -0.817933
     19          7           0       -4.868940   -2.607095    0.667067
     20          8           0       -2.964917   -3.820059    0.404067
     21          8           0       -6.779963   -1.377130    0.926067
     22          8           0       -3.243074    4.538936   -0.443933
     23          8           0        0.495971    2.138006   -1.389933
     24          6           0       -0.606074    4.549985   -1.211933
     25          1           0        0.354926    4.573003   -0.700933
     26          1           0       -0.425074    4.547988   -2.287933
     27          1           0       -1.213090    5.406974   -0.937933
     28          6           0       -5.588917   -3.858108    0.947067
     29          1           0       -5.504904   -4.530107    0.092067
     30          1           0       -5.149908   -4.349100    1.815067
     31          1           0       -6.628921   -3.610128    1.135067
     32          6           0        0.815021   -0.524989   -0.498933
     33          6           0        1.474034   -1.211976   -1.485933
     34         16           0        1.920009    0.111032    0.685067
     35          6           0        2.881034   -1.207950   -1.306933
     36          1           0        0.966042   -1.668986   -2.321933
     37          6           0        3.311021   -0.539942   -0.166933
     38          8           0        3.800045   -1.787933   -2.126933
     39          6           0        4.659019   -0.394917    0.320067
     40          6           0        3.327058   -2.489942   -3.270933
     41          6           0        5.085006    0.272091    1.460067
     42         16           0        6.052031   -1.079891   -0.507933
     43          1           0        4.213065   -2.877925   -3.770933
     44          1           0        2.678073   -3.323954   -2.982933
     45          1           0        2.790045   -1.820952   -3.950933
     46          6           0        6.492007    0.239118    1.665067
     47          8           0        4.164995    0.876074    2.263067
     48          6           0        7.137020   -0.455870    0.680067
     49          1           0        7.000998    0.705127    2.496067
     50          6           0        4.637981    1.602083    3.392067
     51          1           0        8.197023   -0.634851    0.584067
     52          1           0        5.299966    2.419095    3.088067
     53          1           0        3.752974    2.014066    3.874067
     54          1           0        5.160994    0.944093    4.095067
 ---------------------------------------------------------------------

 SCF Done:  E(RHF) =  -2348.40784515     A.U. after   19 cycles
 E2 =    -0.5319275267D+01 EUMP2 =    -0.23537271204177D+04

 The electronic state is 1-A.
 Alpha  occ. eigenvalues --  -91.98419 -91.98165 -20.59946 -20.59887 -20.57071
 Alpha  occ. eigenvalues --  -20.57051 -20.56639 -20.56609 -15.64156 -15.63675
 Alpha  occ. eigenvalues --  -11.40231 -11.39987 -11.39759 -11.39724 -11.30968
 Alpha  occ. eigenvalues --  -11.30664 -11.30612 -11.30298 -11.30125 -11.30009
 Alpha  occ. eigenvalues --  -11.29828 -11.29767 -11.29522 -11.29473 -11.29448
 Alpha  occ. eigenvalues --  -11.28892 -11.28867 -11.28752 -11.28482 -11.27539
 Alpha  occ. eigenvalues --  -11.27243 -11.27149 -11.27120 -11.26875 -11.25054
 Alpha  occ. eigenvalues --  -11.24568  -8.98492  -8.98255  -6.66648  -6.66552
 Alpha  occ. eigenvalues --   -6.66413  -6.66357  -6.66318  -6.66130  -1.43699
 Alpha  occ. eigenvalues --   -1.43391  -1.41823  -1.41755  -1.41728  -1.41424
 Alpha  occ. eigenvalues --   -1.27790  -1.27255  -1.23473  -1.18987  -1.17137
 Alpha  occ. eigenvalues --   -1.15426  -1.13071  -1.07839  -1.06114  -1.03588
 Alpha  occ. eigenvalues --   -1.00565  -1.00288  -0.99069  -0.97386  -0.97128
 Alpha  occ. eigenvalues --   -0.96189  -0.93728  -0.92210  -0.90099  -0.89058
 Alpha  occ. eigenvalues --   -0.88473  -0.86914  -0.81379  -0.79739  -0.78793
 Alpha  occ. eigenvalues --   -0.78096  -0.76371  -0.74492  -0.73995  -0.72923
 Alpha  occ. eigenvalues --   -0.72128  -0.70780  -0.69530  -0.68081  -0.67433
 Alpha  occ. eigenvalues --   -0.66889  -0.66365  -0.66210  -0.66065  -0.65841
 Alpha  occ. eigenvalues --   -0.65487  -0.64705  -0.64554  -0.64078  -0.63889
 Alpha  occ. eigenvalues --   -0.62411  -0.61795  -0.60968  -0.60395  -0.59656
 Alpha  occ. eigenvalues --   -0.59299  -0.57526  -0.56986  -0.56882  -0.56656
 Alpha  occ. eigenvalues --   -0.56448  -0.56274  -0.55994  -0.55858  -0.55495
 Alpha  occ. eigenvalues --   -0.53945  -0.53415  -0.52721  -0.51609  -0.51223
 Alpha  occ. eigenvalues --   -0.50662  -0.48952  -0.48163  -0.47838  -0.47465
 Alpha  occ. eigenvalues --   -0.46424  -0.46328  -0.45851  -0.45619  -0.45019
 Alpha  occ. eigenvalues --   -0.43169  -0.42022  -0.41387  -0.37755  -0.35705
 Alpha  occ. eigenvalues --   -0.33810  -0.33423  -0.33165  -0.25400
 Alpha virt. eigenvalues --   -0.01801   0.02973   0.03268   0.03516   0.03914
 Alpha virt. eigenvalues --    0.04141   0.04663   0.04864   0.05226   0.05503
 Alpha virt. eigenvalues --    0.05578   0.05790   0.06214   0.06324   0.06540

 Mulliken charges:
               1
     1  C   -0.001618
     2  C    1.054891
     3  C   -0.478876
     4  C    1.470603
     5  C    0.091334
     6  C   -0.016313
     7  C   -0.242202
     8  C    1.303468
     9  C    1.297775
    10  C   -0.389229
    11  C    0.028001
    12  C    1.329252
    13  C    0.336491
    14  C    0.328938
    15  H   -0.622033
    16  H   -0.643721
    17  H   -0.789391
    18  N   -0.926659
    19  N   -0.970512
    20  O   -0.865495
    21  O   -0.898192
    22  O   -0.900843
    23  O   -0.845630
    24  C    0.717539
    25  H   -0.055199
    26  H   -0.032744
    27  H   -0.212574
    28  C    0.671449
    29  H   -0.018253
    30  H   -0.021773
    31  H   -0.227130
    32  C    1.917490
    33  C   -0.106070
    34  S   -0.012870
    35  C    0.176697
    36  H   -0.829081
    37  C   -0.476473
    38  O   -1.083559
    39  C    1.146646
    40  C    0.982244
    41  C   -0.054146
    42  S    0.332652
    43  H   -0.340011
    44  H   -0.046851
    45  H   -0.072308
    46  C    0.994788
    47  O   -1.131464
    48  C   -0.255335
    49  H   -0.638994
    50  C    0.914371
    51  H   -0.426411
    52  H   -0.060715
    53  H   -0.330128
    54  H   -0.071824
 Sum of Mulliken charges =  -0.00000

 Dipole moment (field-independent basis, Debye):
    X=              1.3604    Y=              0.0926    Z=              0.2447  Tot=              1.3854
 Quadrupole moment (field-independent basis, Debye-Ang):
   XX=           -219.2200   YY=           -231.8563   ZZ=           -206.5795
   XY=              6.2196   XZ=             11.6728   YZ=             13.8255

 Normal termination of Gaussian 16 at Thu Dec 10 13:07:47 2020.
