 Gaussian 16, Revision C.01,
 Gaussian 16:  ES64L-G16RevC.01  3-Jul-2019

 -------------------------------
 # mp2/aug-cc-pvdz MaxDisk=400GB
 -------------------------------

 ------------------
 NDI_-150_b3lyp.pdb
 ------------------
 Symbolic Z-matrix:
 Charge =  0 Multiplicity = 1

                         Standard orientation:
 ---------------------------------------------------------------------
 Center     Atomic      Atomic             Coordinates (Angstroms)
 Number     Number       Type             X           Y           Z
 ---------------------------------------------------------------------
      1          6           0        3.413907   -2.684065   -0.488948
      2          6           0        2.730923   -1.386056   -0.246948
      3          6           0        3.481938   -0.198066   -0.100948
      4          6           0        4.888937   -0.227083   -0.153948
      5          6           0        5.605922   -1.508092   -0.387948
      6          6           0        1.365923   -1.352039   -0.163948
      7          6           0        2.781953    1.021943    0.094052
      8          6           0        1.352953    1.053961    0.122052
      9          6           0        0.608938   -0.153030    0.050052
     10          6           0        0.715970    2.380969    0.221052
     11          6           0        2.910984    3.498941    0.548052
     12          6           0        3.557968    2.194933    0.282052
     13          6           0        4.944967    2.144916    0.244052
     14          6           0        5.616952    0.941908    0.016052
     15          1           0        6.696951    0.899894   -0.022948
     16          1           0        5.490978    3.066909    0.401052
     17          1           0        0.843912   -2.285033   -0.310948
     18          7           0        1.515984    3.490959    0.539052
     19          7           0        4.811907   -2.658082   -0.546948
     20          8           0        2.810894   -3.734057   -0.624948
     21          8           0        6.819921   -1.570107   -0.442948
     22          8           0        3.543997    4.519934    0.755052
     23          8           0       -0.476028    2.563984    0.034052
     24          6           0        0.813000    4.767967    0.723052
     25          1           0        0.417004    5.124972   -0.229948
     26          1           0       -0.020002    4.623978    1.410052
     27          1           0        1.526009    5.483959    1.119052
     28          6           0        5.477891   -3.946091   -0.785948
     29          1           0        5.230883   -4.643087    0.015052
     30          1           0        5.133886   -4.369086   -1.728948
     31          1           0        6.548893   -3.767104   -0.815948
     32          6           0       -0.828065   -0.398012    0.215052
     33          6           0       -1.309080   -1.609006    0.712052
     34         16           0       -2.177052    0.607005   -0.288948
     35          6           0       -2.704081   -1.729989    0.674052
     36          1           0       -0.664089   -2.371014    1.122052
     37          6           0       -3.349067   -0.624981    0.114052
     38          8           0       -3.443094   -2.778980    1.124052
     39          6           0       -4.762065   -0.449963   -0.080948
     40          6           0       -2.751109   -3.926988    1.608052
     41          6           0       -5.415052    0.646045   -0.636948
     42         16           0       -5.952080   -1.665948    0.374052
     43          1           0       -3.520118   -4.646979    1.881052
     44          1           0       -2.107114   -4.354996    0.833052
     45          1           0       -2.153106   -3.681996    2.492052
     46          6           0       -6.829053    0.514063   -0.694948
     47          8           0       -4.686038    1.706036   -1.063948
     48          6           0       -7.252068   -0.681932   -0.185948
     49          1           0       -7.498044    1.263071   -1.092948
     50          6           0       -5.377024    2.836045   -1.587948
     51          1           0       -8.267073   -1.041919   -0.107948
     52          1           0       -6.049019    3.268053   -0.838948
     53          1           0       -4.607015    3.561035   -1.845948
     54          1           0       -5.944028    2.570052   -2.485948
 ---------------------------------------------------------------------

 SCF Done:  E(RHF) =  -2348.39872843     A.U. after   21 cycles
 E2 =    -0.5328450794D+01 EUMP2 =    -0.23537271792215D+04

 The electronic state is 1-A.
 Alpha  occ. eigenvalues --  -91.98696 -91.98602 -20.60274 -20.60040 -20.56981
 Alpha  occ. eigenvalues --  -20.56915 -20.56424 -20.56150 -15.64033 -15.63481
 Alpha  occ. eigenvalues --  -11.40055 -11.39904 -11.39445 -11.39286 -11.31760
 Alpha  occ. eigenvalues --  -11.31359 -11.30505 -11.30067 -11.29968 -11.29962
 Alpha  occ. eigenvalues --  -11.29455 -11.29388 -11.29208 -11.29127 -11.28862
 Alpha  occ. eigenvalues --  -11.28606 -11.28488 -11.28322 -11.28174 -11.27919
 Alpha  occ. eigenvalues --  -11.27750 -11.27447 -11.27101 -11.27072 -11.25718
 Alpha  occ. eigenvalues --  -11.24920  -8.98687  -8.98633  -6.66844  -6.66748
 Alpha  occ. eigenvalues --   -6.66745  -6.66654  -6.66560  -6.66464  -1.43529
 Alpha  occ. eigenvalues --   -1.43163  -1.42312  -1.41965  -1.41577  -1.41055
 Alpha  occ. eigenvalues --   -1.27614  -1.27108  -1.23034  -1.19005  -1.17280
 Alpha  occ. eigenvalues --   -1.15315  -1.12714  -1.07865  -1.05813  -1.03673
 Alpha  occ. eigenvalues --   -1.00815  -1.00190  -0.99444  -0.97758  -0.97009
 Alpha  occ. eigenvalues --   -0.96052  -0.93939  -0.92302  -0.89841  -0.88856
 Alpha  occ. eigenvalues --   -0.88292  -0.86873  -0.81464  -0.79833  -0.78924
 Alpha  occ. eigenvalues --   -0.78010  -0.76430  -0.74577  -0.73777  -0.73163
 Alpha  occ. eigenvalues --   -0.72142  -0.70508  -0.69607  -0.67978  -0.67288
 Alpha  occ. eigenvalues --   -0.66793  -0.66564  -0.66417  -0.66088  -0.65924
 Alpha  occ. eigenvalues --   -0.65377  -0.64848  -0.64412  -0.63870  -0.63595
 Alpha  occ. eigenvalues --   -0.62727  -0.61578  -0.60936  -0.59950  -0.59351
 Alpha  occ. eigenvalues --   -0.59175  -0.57310  -0.57123  -0.56704  -0.56660
 Alpha  occ. eigenvalues --   -0.56491  -0.56380  -0.56194  -0.55760  -0.55532
 Alpha  occ. eigenvalues --   -0.53685  -0.53057  -0.52882  -0.52106  -0.51375
 Alpha  occ. eigenvalues --   -0.50943  -0.49259  -0.48272  -0.48162  -0.46951
 Alpha  occ. eigenvalues --   -0.46578  -0.46302  -0.46047  -0.45608  -0.43657
 Alpha  occ. eigenvalues --   -0.42980  -0.41916  -0.41272  -0.38936  -0.35047
 Alpha  occ. eigenvalues --   -0.33899  -0.33295  -0.33017  -0.25103
 Alpha virt. eigenvalues --   -0.01750   0.02988   0.03290   0.03563   0.04004
 Alpha virt. eigenvalues --    0.04231   0.04408   0.04825   0.05131   0.05467
 Alpha virt. eigenvalues --    0.05667   0.05827   0.06068   0.06222   0.06726

 Mulliken charges:
               1
     1  C    0.007871
     2  C    0.800286
     3  C   -0.521472
     4  C    1.517720
     5  C    0.049461
     6  C    0.598908
     7  C    0.189547
     8  C    1.233104
     9  C    1.061039
    10  C   -0.200314
    11  C   -0.129130
    12  C    1.399288
    13  C    0.248849
    14  C    0.297315
    15  H   -0.639981
    16  H   -0.691831
    17  H   -0.728423
    18  N   -0.980799
    19  N   -0.967986
    20  O   -0.856913
    21  O   -0.890936
    22  O   -0.896421
    23  O   -0.727464
    24  C    0.700706
    25  H   -0.024887
    26  H   -0.056819
    27  H   -0.197779
    28  C    0.655088
    29  H   -0.015219
    30  H   -0.024661
    31  H   -0.226404
    32  C    0.716268
    33  C    0.132486
    34  S    0.551123
    35  C   -0.108782
    36  H   -0.742419
    37  C   -0.289599
    38  O   -1.097559
    39  C    1.192968
    40  C    0.958333
    41  C   -0.198708
    42  S    0.372552
    43  H   -0.352287
    44  H   -0.040416
    45  H   -0.078343
    46  C    0.988105
    47  O   -1.126007
    48  C   -0.254973
    49  H   -0.632722
    50  C    0.910637
    51  H   -0.425942
    52  H   -0.052128
    53  H   -0.333666
    54  H   -0.070662
 Sum of Mulliken charges =  -0.00000

 Dipole moment (field-independent basis, Debye):
    X=             -2.9235    Y=             -0.2305    Z=              0.1131  Tot=              2.9347
 Quadrupole moment (field-independent basis, Debye-Ang):
   XX=           -213.8027   YY=           -219.2957   ZZ=           -221.9065
   XY=            -12.2723   XZ=              5.0839   YZ=            -11.5345

 Normal termination of Gaussian 16 at Wed Dec  9 20:54:39 2020.
