 Gaussian 16, Revision C.01,
 Gaussian 16:  ES64L-G16RevC.01  3-Jul-2019

 -------------------------------
 # mp2/aug-cc-pvdz MaxDisk=400GB
 -------------------------------

 ------------------
 NDI_-140_b3lyp.pdb
 ------------------
 Symbolic Z-matrix:
 Charge =  0 Multiplicity = 1

                         Standard orientation:
 ---------------------------------------------------------------------
 Center     Atomic      Atomic             Coordinates (Angstroms)
 Number     Number       Type             X           Y           Z
 ---------------------------------------------------------------------
      1          6           0       -3.519075   -2.694931    0.404086
      2          6           0       -2.766056   -1.447943    0.107086
      3          6           0       -3.426037   -0.196932    0.122086
      4          6           0       -4.799035   -0.107911    0.433086
      5          6           0       -5.577054   -1.335899    0.749086
      6          6           0       -1.417057   -1.510963   -0.140914
      7          6           0       -2.683019    0.974056   -0.192914
      8          6           0       -1.298020    0.886035   -0.505914
      9          6           0       -0.636039   -0.352975   -0.411914
     10          6           0       -0.638001    2.098025   -1.064914
     11          6           0       -2.640980    3.473056   -0.507914
     12          6           0       -3.360999    2.218067   -0.179914
     13          6           0       -4.707998    2.284087    0.141086
     14          6           0       -5.431016    1.124098    0.445086
     15          1           0       -6.485016    1.171115    0.690086
     16          1           0       -5.186984    3.255095    0.148086
     17          1           0       -0.928072   -2.474971   -0.081914
     18          7           0       -1.315982    3.325035   -0.924914
     19          7           0       -4.878073   -2.553910    0.708086
     20          8           0       -3.001092   -3.795939    0.389086
     21          8           0       -6.761054   -1.296881    1.028086
     22          8           0       -3.172963    4.567064   -0.445914
     23          8           0        0.426998    2.076008   -1.651914
     24          6           0       -0.597964    4.519024   -1.391914
     25          1           0        0.417036    4.503009   -0.999914
     26          1           0       -0.546964    4.529023   -2.481914
     27          1           0       -1.138951    5.392032   -1.038914
     28          6           0       -5.610092   -3.794899    1.005086
     29          1           0       -5.558102   -4.465900    0.148086
     30          1           0       -5.156100   -4.292906    1.861086
     31          1           0       -6.640088   -3.530883    1.220086
     32          6           0        0.808958   -0.567998   -0.498914
     33          6           0        1.437942   -1.610007   -1.148914
     34         16           0        1.951972    0.379985    0.410086
     35          6           0        2.834941   -1.622029   -0.950914
     36          1           0        0.906931   -2.314999   -1.772914
     37          6           0        3.298957   -0.615036   -0.107914
     38          8           0        3.722928   -2.501042   -1.487914
     39          6           0        4.650961   -0.381057    0.322086
     40          6           0        3.215912   -3.541035   -2.317914
     41          6           0        5.111976    0.618936    1.171086
     42         16           0        6.005945   -1.379077   -0.191914
     43          1           0        4.080903   -4.124048   -2.628914
     44          1           0        2.521902   -4.184024   -1.765914
     45          1           0        2.716918   -3.131027   -3.201914
     46          6           0        6.514975    0.587915    1.401086
     47          8           0        4.227990    1.506950    1.698086
     48          6           0        7.119960   -0.437095    0.728086
     49          1           0        7.048986    1.284907    2.029086
     50          6           0        4.736006    2.554942    2.518086
     51          1           0        8.168956   -0.693111    0.722086
     52          1           0        5.440015    3.182931    1.963086
     53          1           0        3.873015    3.148955    2.811086
     54          1           0        5.222000    2.153935    3.413086
 ---------------------------------------------------------------------

 SCF Done:  E(RHF) =  -2348.40497798     A.U. after   36 cycles
 E2 =    -0.5323133171D+01 EUMP2 =    -0.23537281111527D+04

 The electronic state is 1-A.
 Alpha  occ. eigenvalues --  -91.98628 -91.98494 -20.60281 -20.60102 -20.57018
 Alpha  occ. eigenvalues --  -20.56952 -20.56357 -20.56353 -15.64080 -15.63447
 Alpha  occ. eigenvalues --  -11.40125 -11.39931 -11.39517 -11.39497 -11.31097
 Alpha  occ. eigenvalues --  -11.31090 -11.30811 -11.30117 -11.30072 -11.29964
 Alpha  occ. eigenvalues --  -11.29733 -11.29685 -11.29361 -11.29343 -11.29149
 Alpha  occ. eigenvalues --  -11.28755 -11.28615 -11.28560 -11.28502 -11.27869
 Alpha  occ. eigenvalues --  -11.27506 -11.27475 -11.27138 -11.27021 -11.25576
 Alpha  occ. eigenvalues --  -11.24838  -8.98712  -8.98582  -6.66863  -6.66770
 Alpha  occ. eigenvalues --   -6.66739  -6.66644  -6.66577  -6.66456  -1.43604
 Alpha  occ. eigenvalues --   -1.43087  -1.42198  -1.42024  -1.41655  -1.41100
 Alpha  occ. eigenvalues --   -1.27678  -1.27042  -1.23266  -1.19207  -1.17298
 Alpha  occ. eigenvalues --   -1.15485  -1.12885  -1.07900  -1.05966  -1.03760
 Alpha  occ. eigenvalues --   -1.00822  -1.00173  -0.99414  -0.97661  -0.97041
 Alpha  occ. eigenvalues --   -0.96140  -0.94010  -0.92382  -0.89926  -0.88895
 Alpha  occ. eigenvalues --   -0.88384  -0.86820  -0.81534  -0.79873  -0.78784
 Alpha  occ. eigenvalues --   -0.78038  -0.76511  -0.74609  -0.73930  -0.72992
 Alpha  occ. eigenvalues --   -0.72315  -0.70675  -0.69428  -0.67941  -0.67333
 Alpha  occ. eigenvalues --   -0.66781  -0.66521  -0.66451  -0.66135  -0.66035
 Alpha  occ. eigenvalues --   -0.65460  -0.64801  -0.64489  -0.63873  -0.63715
 Alpha  occ. eigenvalues --   -0.62462  -0.61760  -0.61163  -0.60450  -0.59569
 Alpha  occ. eigenvalues --   -0.59145  -0.57521  -0.56902  -0.56715  -0.56635
 Alpha  occ. eigenvalues --   -0.56519  -0.56491  -0.56006  -0.55884  -0.55545
 Alpha  occ. eigenvalues --   -0.53873  -0.53223  -0.53014  -0.51762  -0.51507
 Alpha  occ. eigenvalues --   -0.50991  -0.49405  -0.48171  -0.48128  -0.47322
 Alpha  occ. eigenvalues --   -0.46561  -0.46179  -0.45824  -0.45774  -0.44886
 Alpha  occ. eigenvalues --   -0.42994  -0.41932  -0.41208  -0.38577  -0.35296
 Alpha  occ. eigenvalues --   -0.33793  -0.33610  -0.33107  -0.25311
 Alpha virt. eigenvalues --   -0.01846   0.02962   0.03303   0.03475   0.03951
 Alpha virt. eigenvalues --    0.04210   0.04619   0.04850   0.05155   0.05447
 Alpha virt. eigenvalues --    0.05737   0.05799   0.05841   0.06304   0.06617

 Mulliken charges:
               1
     1  C    0.008941
     2  C    0.881632
     3  C   -0.541957
     4  C    1.570772
     5  C    0.067434
     6  C    0.361309
     7  C   -0.636467
     8  C    1.310592
     9  C    1.222394
    10  C    0.069985
    11  C    0.008221
    12  C    1.289882
    13  C    0.409673
    14  C    0.280896
    15  H   -0.623476
    16  H   -0.659660
    17  H   -0.769211
    18  N   -0.961012
    19  N   -0.963088
    20  O   -0.861571
    21  O   -0.899853
    22  O   -0.896674
    23  O   -0.806002
    24  C    0.701912
    25  H   -0.078378
    26  H   -0.041590
    27  H   -0.192422
    28  C    0.676530
    29  H   -0.018028
    30  H   -0.020271
    31  H   -0.225435
    32  C    1.289508
    33  C    0.328755
    34  S    0.156997
    35  C   -0.190627
    36  H   -0.815131
    37  C   -0.157884
    38  O   -1.099365
    39  C    1.124256
    40  C    0.972623
    41  C   -0.172913
    42  S    0.361328
    43  H   -0.339706
    44  H   -0.048841
    45  H   -0.069466
    46  C    1.011649
    47  O   -1.130911
    48  C   -0.271452
    49  H   -0.639556
    50  C    0.914120
    51  H   -0.425377
    52  H   -0.053044
    53  H   -0.337204
    54  H   -0.072830
 Sum of Mulliken charges =  -0.00000

 Dipole moment (field-independent basis, Debye):
    X=              2.2275    Y=             -0.1671    Z=              0.5448  Tot=              2.2993
 Quadrupole moment (field-independent basis, Debye-Ang):
   XX=           -216.2748   YY=           -222.8389   ZZ=           -217.2254
   XY=              8.9421   XZ=             11.6090   YZ=             14.9782

 Normal termination of Gaussian 16 at Wed Dec  9 22:27:04 2020.
