 Gaussian 16, Revision C.01,
 Gaussian 16:  ES64L-G16RevC.01  3-Jul-2019

 -------------------------------
 # mp2/aug-cc-pvdz MaxDisk=400GB
 -------------------------------

 -----------------
 NDI_-45_b3lyp.pdb
 -----------------
 Symbolic Z-matrix:
 Charge =  0 Multiplicity = 1

                         Standard orientation:
 ---------------------------------------------------------------------
 Center     Atomic      Atomic             Coordinates (Angstroms)
 Number     Number       Type             X           Y           Z
 ---------------------------------------------------------------------
      1          6           0        2.644087   -2.970992    0.469959
      2          6           0        2.297067   -1.539997    0.260959
      3          6           0        3.314053   -0.573982    0.087959
      4          6           0        4.672058   -0.951963    0.111959
      5          6           0        5.056079   -2.372958    0.332959
      6          6           0        0.980061   -1.160016    0.259959
      7          6           0        2.941034    0.782012   -0.126041
      8          6           0        1.566028    1.167993   -0.138041
      9          6           0        0.565042    0.194978    0.100959
     10          6           0        1.246008    2.576988   -0.495041
     11          6           0        3.676000    3.144023   -0.605041
     12          6           0        3.982020    1.722027   -0.332041
     13          6           0        5.312026    1.331046   -0.299041
     14          6           0        5.665045   -0.002949   -0.074041
     15          1           0        6.701049   -0.313934   -0.050041
     16          1           0        6.071015    2.087057   -0.458041
     17          1           0        0.235072   -1.925026    0.433959
     18          7           0        2.320995    3.463003   -0.703041
     19          7           0        4.006092   -3.292973    0.493959
     20          8           0        1.804100   -3.839004    0.615959
     21          8           0        6.218084   -2.729941    0.370959
     22          8           0        4.545988    3.985035   -0.754041
     23          8           0        0.116002    3.008972   -0.635041
     24          6           0        1.954976    4.844998   -1.046041
     25          1           0        1.347975    4.849989   -1.951041
     26          1           0        1.370969    5.286990   -0.238041
     27          1           0        2.873968    5.403011   -1.197041
     28          6           0        4.337112   -4.708968    0.705959
     29          1           0        3.928117   -5.042974    1.659959
     30          1           0        3.898121   -5.312974   -0.088041
     31          1           0        5.419113   -4.802952    0.701959
     32          6           0       -0.871961    0.431958    0.222959
     33          6           0       -1.553975    1.403948    0.921959
     34         16           0       -1.991945   -0.749058   -0.434041
     35          6           0       -2.948973    1.216928    0.921959
     36          1           0       -1.059987    2.226955    1.410959
     37          6           0       -3.379957    0.093922    0.213959
     38          8           0       -3.871984    2.009915    1.526959
     39          6           0       -4.730950   -0.337097   -0.015041
     40          6           0       -3.420001    3.226921    2.117959
     41          6           0       -5.155934   -1.473104   -0.696041
     42         16           0       -6.133963    0.558883    0.556959
     43          1           0       -4.314009    3.733909    2.474959
     44          1           0       -2.752999    3.028931    2.963959
     45          1           0       -2.908010    3.853929    1.381959
     46          6           0       -6.568932   -1.620124   -0.757041
     47          8           0       -4.232922   -2.314090   -1.228041
     48          6           0       -7.216947   -0.596133   -0.123041
     49          1           0       -7.079920   -2.439131   -1.243041
     50          6           0       -4.692905   -3.484097   -1.898041
     51          1           0       -8.281949   -0.459148   -0.014041
     52          1           0       -5.305909   -3.225106   -2.766041
     53          1           0       -3.798898   -4.009084   -2.229041
     54          1           0       -5.261896   -4.127105   -1.220041
 ---------------------------------------------------------------------

 SCF Done:  E(RHF) =  -2348.40540466     A.U. after   22 cycles
 E2 =    -0.5323760461D+01 EUMP2 =    -0.23537291651252D+04

 The electronic state is 1-A.
 Alpha  occ. eigenvalues --  -91.98881 -91.98623 -20.60407 -20.60020 -20.56893
 Alpha  occ. eigenvalues --  -20.56881 -20.56310 -20.56287 -15.63958 -15.63590
 Alpha  occ. eigenvalues --  -11.40038 -11.39786 -11.39733 -11.39437 -11.31419
 Alpha  occ. eigenvalues --  -11.31300 -11.30771 -11.30160 -11.30077 -11.29775
 Alpha  occ. eigenvalues --  -11.29657 -11.29558 -11.29296 -11.29266 -11.28943
 Alpha  occ. eigenvalues --  -11.28455 -11.28421 -11.28297 -11.28233 -11.28157
 Alpha  occ. eigenvalues --  -11.27670 -11.27390 -11.27230 -11.27138 -11.25435
 Alpha  occ. eigenvalues --  -11.24953  -8.98963  -8.98711  -6.67117  -6.67025
 Alpha  occ. eigenvalues --   -6.66868  -6.66832  -6.66772  -6.66584  -1.43528
 Alpha  occ. eigenvalues --   -1.43177  -1.42374  -1.41939  -1.41582  -1.41123
 Alpha  occ. eigenvalues --   -1.27581  -1.27065  -1.23111  -1.19177  -1.17327
 Alpha  occ. eigenvalues --   -1.15421  -1.12757  -1.07802  -1.05859  -1.03872
 Alpha  occ. eigenvalues --   -1.00832  -1.00156  -0.99535  -0.97513  -0.96904
 Alpha  occ. eigenvalues --   -0.96487  -0.93826  -0.92375  -0.89932  -0.88831
 Alpha  occ. eigenvalues --   -0.88409  -0.86627  -0.81750  -0.79798  -0.78803
 Alpha  occ. eigenvalues --   -0.77933  -0.76279  -0.74768  -0.74533  -0.72716
 Alpha  occ. eigenvalues --   -0.72138  -0.70556  -0.69332  -0.67971  -0.67341
 Alpha  occ. eigenvalues --   -0.66922  -0.66493  -0.66467  -0.66027  -0.65890
 Alpha  occ. eigenvalues --   -0.65266  -0.64883  -0.64372  -0.63899  -0.63694
 Alpha  occ. eigenvalues --   -0.62563  -0.61693  -0.61174  -0.60046  -0.59313
 Alpha  occ. eigenvalues --   -0.59211  -0.57384  -0.56877  -0.56841  -0.56763
 Alpha  occ. eigenvalues --   -0.56490  -0.56451  -0.56005  -0.55763  -0.55591
 Alpha  occ. eigenvalues --   -0.53832  -0.53314  -0.53065  -0.51922  -0.51447
 Alpha  occ. eigenvalues --   -0.50968  -0.49197  -0.48259  -0.48142  -0.47155
 Alpha  occ. eigenvalues --   -0.46559  -0.46383  -0.45957  -0.45666  -0.44998
 Alpha  occ. eigenvalues --   -0.42965  -0.41881  -0.41309  -0.38658  -0.35152
 Alpha  occ. eigenvalues --   -0.33885  -0.33661  -0.33063  -0.25244
 Alpha virt. eigenvalues --   -0.01918   0.02981   0.03206   0.03520   0.04095
 Alpha virt. eigenvalues --    0.04158   0.04525   0.04842   0.05299   0.05316
 Alpha virt. eigenvalues --    0.05649   0.05733   0.06067   0.06262   0.06589

 Mulliken charges:
               1
     1  C    0.090707
     2  C    0.664680
     3  C   -0.441690
     4  C    1.683271
     5  C   -0.009537
     6  C    0.742447
     7  C   -0.469152
     8  C    1.226763
     9  C    1.093839
    10  C   -0.152063
    11  C   -0.074393
    12  C    1.441164
    13  C    0.338021
    14  C    0.258095
    15  H   -0.640528
    16  H   -0.680535
    17  H   -0.745611
    18  N   -0.984382
    19  N   -0.961275
    20  O   -0.858696
    21  O   -0.891857
    22  O   -0.908033
    23  O   -0.792533
    24  C    0.678240
    25  H   -0.032700
    26  H   -0.029441
    27  H   -0.234336
    28  C    0.661515
    29  H   -0.016364
    30  H   -0.018945
    31  H   -0.223116
    32  C    0.998667
    33  C    0.435852
    34  S    0.341945
    35  C   -0.345191
    36  H   -0.763673
    37  C   -0.161304
    38  O   -1.085323
    39  C    1.195758
    40  C    0.959413
    41  C   -0.249324
    42  S    0.381079
    43  H   -0.347822
    44  H   -0.093220
    45  H   -0.027380
    46  C    1.039746
    47  O   -1.130299
    48  C   -0.262324
    49  H   -0.636233
    50  C    0.916533
    51  H   -0.428058
    52  H   -0.060763
    53  H   -0.330105
    54  H   -0.061530
 Sum of Mulliken charges =  -0.00000

 Dipole moment (field-independent basis, Debye):
    X=             -2.5983    Y=             -0.3852    Z=              0.1357  Tot=              2.6302
 Quadrupole moment (field-independent basis, Debye-Ang):
   XX=           -218.7620   YY=           -217.1874   ZZ=           -219.1277
   XY=              5.6699   XZ=              5.0348   YZ=             15.2552

 Normal termination of Gaussian 16 at Thu Dec 10 17:48:34 2020.
