 Gaussian 16, Revision C.01,
 Gaussian 16:  ES64L-G16RevC.01  3-Jul-2019

 -------------------------------
 # mp2/aug-cc-pvdz MaxDisk=400GB
 -------------------------------

 -----------------
 NDI_-55_b3lyp.pdb
 -----------------
 Symbolic Z-matrix:
 Charge =  0 Multiplicity = 1

                         Standard orientation:
 ---------------------------------------------------------------------
 Center     Atomic      Atomic             Coordinates (Angstroms)
 Number     Number       Type             X           Y           Z
 ---------------------------------------------------------------------
      1          6           0        2.669995   -2.939963    0.577963
      2          6           0        2.308963   -1.516971    0.337963
      3          6           0        3.315942   -0.553948    0.096963
      4          6           0        4.674950   -0.929918    0.071963
      5          6           0        5.071982   -2.342909    0.319963
      6          6           0        0.989955   -1.140000    0.364963
      7          6           0        2.931911    0.795043   -0.137037
      8          6           0        1.557903    1.179012   -0.095037
      9          6           0        0.569924    0.209990    0.186963
     10          6           0        1.220871    2.595005   -0.408037
     11          6           0        3.634859    3.140059   -0.738037
     12          6           0        3.958890    1.729066   -0.427037
     13          6           0        5.288899    1.339096   -0.447037
     14          6           0        5.653929    0.013104   -0.193037
     15          1           0        6.691936   -0.295873   -0.207037
     16          1           0        6.036882    2.089113   -0.673037
     17          1           0        0.248972   -1.901017    0.573963
     18          7           0        2.276852    3.461029   -0.752037
     19          7           0        4.033002   -3.257932    0.554963
     20          8           0        1.839014   -3.803981    0.785963
     21          8           0        6.235989   -2.695883    0.318963
     22          8           0        4.492840    3.971078   -0.979037
     23          8           0        0.088861    3.044980   -0.398037
     24          6           0        1.891821    4.840020   -1.087037
     25          1           0        1.142821    4.826003   -1.877037
     26          1           0        1.461810    5.333010   -0.214037
     27          1           0        2.785809    5.364040   -1.409037
     28          6           0        4.377034   -4.665924    0.798963
     29          1           0        4.010040   -4.969933    1.779963
     30          1           0        3.904048   -5.295935    0.044963
     31          1           0        5.457036   -4.758900    0.749963
     32          6           0       -0.875081    0.438958    0.291963
     33          6           0       -1.572101    1.322942    1.083963
     34         16           0       -1.969055   -0.691066   -0.482037
     35          6           0       -2.967096    1.115911    1.053963
     36          1           0       -1.090118    2.098953    1.654963
     37          6           0       -3.376072    0.064902    0.234963
     38          8           0       -3.904112    1.834890    1.727963
     39          6           0       -4.719063   -0.356128   -0.053037
     40          6           0       -3.473138    2.994900    2.433963
     41          6           0       -5.123039   -1.427137   -0.843037
     42         16           0       -6.139081    0.469840    0.577963
     43          1           0       -4.376148    3.452880    2.833963
     44          1           0       -2.807132    2.727915    3.260963
     45          1           0       -2.969154    3.697911    1.763963
     46          6           0       -6.533036   -1.581169   -0.939037
     47          8           0       -4.182021   -2.208116   -1.437037
     48          6           0       -7.201057   -0.627184   -0.223037
     49          1           0       -7.028018   -2.357180   -1.505037
     50          6           0       -4.621997   -3.316126   -2.216037
     51          1           0       -8.269059   -0.511207   -0.117037
     52          1           0       -5.227004   -2.984139   -3.066037
     53          1           0       -3.718986   -3.801106   -2.581037
     54          1           0       -5.193981   -4.024139   -1.607037
 ---------------------------------------------------------------------

 SCF Done:  E(RHF) =  -2348.40608500     A.U. after   23 cycles
 E2 =    -0.5322478341D+01 EUMP2 =    -0.23537285633396D+04

 The electronic state is 1-A.
 Alpha  occ. eigenvalues --  -91.98783 -91.98496 -20.60270 -20.59925 -20.56931
 Alpha  occ. eigenvalues --  -20.56922 -20.56444 -20.56394 -15.64016 -15.63676
 Alpha  occ. eigenvalues --  -11.40089 -11.39833 -11.39816 -11.39536 -11.31366
 Alpha  occ. eigenvalues --  -11.31111 -11.30694 -11.30214 -11.30001 -11.29829
 Alpha  occ. eigenvalues --  -11.29679 -11.29678 -11.29353 -11.29324 -11.29081
 Alpha  occ. eigenvalues --  -11.28554 -11.28485 -11.28426 -11.28241 -11.27887
 Alpha  occ. eigenvalues --  -11.27513 -11.27430 -11.27173 -11.27131 -11.25283
 Alpha  occ. eigenvalues --  -11.24839  -8.98858  -8.98583  -6.67013  -6.66920
 Alpha  occ. eigenvalues --   -6.66740  -6.66726  -6.66645  -6.66457  -1.43569
 Alpha  occ. eigenvalues --   -1.43259  -1.42174  -1.41849  -1.41617  -1.41226
 Alpha  occ. eigenvalues --   -1.27652  -1.27161  -1.23204  -1.19093  -1.17266
 Alpha  occ. eigenvalues --   -1.15406  -1.12838  -1.07790  -1.05927  -1.03792
 Alpha  occ. eigenvalues --   -1.00729  -1.00222  -0.99391  -0.97440  -0.96945
 Alpha  occ. eigenvalues --   -0.96457  -0.93726  -0.92302  -0.90012  -0.88913
 Alpha  occ. eigenvalues --   -0.88434  -0.86687  -0.81663  -0.79734  -0.78816
 Alpha  occ. eigenvalues --   -0.77979  -0.76234  -0.74751  -0.74433  -0.72643
 Alpha  occ. eigenvalues --   -0.72153  -0.70591  -0.69387  -0.68019  -0.67346
 Alpha  occ. eigenvalues --   -0.66882  -0.66519  -0.66360  -0.65985  -0.65917
 Alpha  occ. eigenvalues --   -0.65247  -0.64817  -0.64446  -0.63927  -0.63774
 Alpha  occ. eigenvalues --   -0.62502  -0.61713  -0.61092  -0.60126  -0.59302
 Alpha  occ. eigenvalues --   -0.59260  -0.57388  -0.56865  -0.56842  -0.56742
 Alpha  occ. eigenvalues --   -0.56517  -0.56452  -0.55924  -0.55830  -0.55622
 Alpha  occ. eigenvalues --   -0.53831  -0.53343  -0.52953  -0.51785  -0.51406
 Alpha  occ. eigenvalues --   -0.50841  -0.48975  -0.48167  -0.48124  -0.47189
 Alpha  occ. eigenvalues --   -0.46525  -0.46429  -0.45988  -0.45658  -0.45068
 Alpha  occ. eigenvalues --   -0.43018  -0.41936  -0.41385  -0.38417  -0.35273
 Alpha  occ. eigenvalues --   -0.33822  -0.33566  -0.33128  -0.25293
 Alpha virt. eigenvalues --   -0.01863   0.03005   0.03223   0.03519   0.04080
 Alpha virt. eigenvalues --    0.04131   0.04582   0.04816   0.05288   0.05428
 Alpha virt. eigenvalues --    0.05718   0.05744   0.06092   0.06179   0.06563

 Mulliken charges:
               1
     1  C    0.066347
     2  C    0.750355
     3  C   -0.505558
     4  C    1.708783
     5  C   -0.020410
     6  C    0.690871
     7  C   -0.502595
     8  C    1.194773
     9  C    1.175936
    10  C   -0.290271
    11  C   -0.060674
    12  C    1.493798
    13  C    0.323780
    14  C    0.267858
    15  H   -0.637519
    16  H   -0.676685
    17  H   -0.755332
    18  N   -0.987753
    19  N   -0.954579
    20  O   -0.860337
    21  O   -0.893823
    22  O   -0.908011
    23  O   -0.772910
    24  C    0.699062
    25  H   -0.040740
    26  H   -0.026537
    27  H   -0.231573
    28  C    0.662547
    29  H   -0.015376
    30  H   -0.018029
    31  H   -0.228327
    32  C    1.036746
    33  C    0.507448
    34  S    0.329386
    35  C   -0.441680
    36  H   -0.774767
    37  C   -0.115284
    38  O   -1.079174
    39  C    1.185859
    40  C    0.978744
    41  C   -0.207551
    42  S    0.375619
    43  H   -0.345627
    44  H   -0.099713
    45  H   -0.028428
    46  C    1.034770
    47  O   -1.136283
    48  C   -0.266168
    49  H   -0.636181
    50  C    0.909969
    51  H   -0.426344
    52  H   -0.058058
    53  H   -0.331792
    54  H   -0.058562
 Sum of Mulliken charges =  -0.00000

 Dipole moment (field-independent basis, Debye):
    X=             -2.2043    Y=             -0.3159    Z=             -0.0069  Tot=              2.2268
 Quadrupole moment (field-independent basis, Debye-Ang):
   XX=           -219.8182   YY=           -219.4150   ZZ=           -216.5426
   XY=              5.2080   XZ=              6.8515   YZ=             16.5045

 Normal termination of Gaussian 16 at Thu Dec 10 17:45:52 2020.
