 Gaussian 16, Revision C.01,
 Gaussian 16:  ES64L-G16RevC.01  3-Jul-2019

 -------------------------------
 # mp2/aug-cc-pvdz MaxDisk=400GB
 -------------------------------

 ----------------
 NDI_-5_b3lyp.pdb
 ----------------
 Symbolic Z-matrix:
 Charge =  0 Multiplicity = 1

                         Standard orientation:
 ---------------------------------------------------------------------
 Center     Atomic      Atomic             Coordinates (Angstroms)
 Number     Number       Type             X           Y           Z
 ---------------------------------------------------------------------
      1          6           0       -2.422832   -3.039129    0.049022
      2          6           0       -2.183906   -1.572117    0.073022
      3          6           0       -3.262952   -0.666172   -0.035978
      4          6           0       -4.579928   -1.139238   -0.195978
      5          6           0       -4.854854   -2.600252   -0.238978
      6          6           0       -0.902929   -1.105053    0.160022
      7          6           0       -2.984022    0.725842    0.029022
      8          6           0       -1.645046    1.205910    0.191022
      9          6           0       -0.554999    0.284965    0.181022
     10          6           0       -1.499118    2.650917    0.494022
     11          6           0       -3.898140    3.072796   -0.030978
     12          6           0       -4.088066    1.608787   -0.088978
     13          6           0       -5.378042    1.125722   -0.265978
     14          6           0       -5.633973   -0.246291   -0.314978
     15          1           0       -6.637953   -0.628341   -0.441978
     16          1           0       -6.181078    1.845682   -0.361978
     17          1           0       -0.126892   -1.858014    0.191022
     18          7           0       -2.603161    3.493862    0.271022
     19          7           0       -3.747811   -3.458196   -0.105978
     20          8           0       -1.526791   -3.857084    0.155022
     21          8           0       -5.978832   -3.043308   -0.378978
     22          8           0       -4.808180    3.866751   -0.202978
     23          8           0       -0.486144    3.158968    0.950022
     24          6           0       -2.376233    4.928873    0.493022
     25          1           0       -2.161243    5.116884    1.546022
     26          1           0       -1.522250    5.259916   -0.095978
     27          1           0       -3.276260    5.454828    0.193022
     28          6           0       -3.974738   -4.909207   -0.132978
     29          1           0       -3.417716   -5.353179   -0.957978
     30          1           0       -3.624716   -5.354190    0.798022
     31          1           0       -5.039730   -5.078261   -0.259978
     32          6           0        0.872987    0.560036    0.059022
     33          6           0        1.583928    1.729072   -0.166978
     34         16           0        2.009055   -0.791906    0.197022
     35          6           0        2.971937    1.544142   -0.253978
     36          1           0        1.113880    2.690049   -0.249978
     37          6           0        3.396004    0.226163   -0.070978
     38          8           0        3.899889    2.509189   -0.477978
     39          6           0        4.740029   -0.272769   -0.079978
     40          6           0        3.447821    3.856166   -0.609978
     41          6           0        5.160095   -1.587748    0.105022
     42         16           0        6.144977    0.756302   -0.339978
     43          1           0        4.344791    4.458211   -0.746978
     44          1           0        2.796815    3.966133   -1.481978
     45          1           0        2.917805    4.182139    0.290022
     46          6           0        6.568104   -1.763677    0.041022
     47          8           0        4.235143   -2.554794    0.323022
     48          6           0        7.219044   -0.583644   -0.192978
     49          1           0        7.075151   -2.709652    0.161022
     50          6           0        4.685211   -3.894772    0.508022
     51          1           0        8.283036   -0.426591   -0.288978
     52          1           0        5.332215   -3.972739    1.388022
     53          1           0        3.787241   -4.490817    0.662022
     54          1           0        5.216229   -4.255745   -0.377978
 ---------------------------------------------------------------------

 SCF Done:  E(RHF) =  -2348.39912414     A.U. after   21 cycles
 E2 =    -0.5327489879D+01 EUMP2 =    -0.23537266140210D+04

 The electronic state is 1-A.
 Alpha  occ. eigenvalues --  -91.99127 -91.99114 -20.60852 -20.60243 -20.56749
 Alpha  occ. eigenvalues --  -20.56727 -20.56316 -20.56031 -15.63817 -15.63445
 Alpha  occ. eigenvalues --  -11.39869 -11.39704 -11.39642 -11.39154 -11.32002
 Alpha  occ. eigenvalues --  -11.31914 -11.30978 -11.30369 -11.29959 -11.29897
 Alpha  occ. eigenvalues --  -11.29244 -11.29134 -11.29018 -11.29010 -11.28955
 Alpha  occ. eigenvalues --  -11.28681 -11.28547 -11.28320 -11.28290 -11.28116
 Alpha  occ. eigenvalues --  -11.27852 -11.27641 -11.27268 -11.27136 -11.25580
 Alpha  occ. eigenvalues --  -11.25373  -8.99239  -8.99194  -6.67390  -6.67349
 Alpha  occ. eigenvalues --   -6.67295  -6.67254  -6.67103  -6.67066  -1.43362
 Alpha  occ. eigenvalues --   -1.43070  -1.42837  -1.42236  -1.41406  -1.40923
 Alpha  occ. eigenvalues --   -1.27429  -1.26975  -1.22825  -1.19420  -1.17554
 Alpha  occ. eigenvalues --   -1.15408  -1.12504  -1.07829  -1.05653  -1.04181
 Alpha  occ. eigenvalues --   -1.01122  -1.00056  -0.99872  -0.97860  -0.96854
 Alpha  occ. eigenvalues --   -0.96513  -0.94064  -0.92483  -0.89827  -0.88652
 Alpha  occ. eigenvalues --   -0.88386  -0.86459  -0.82042  -0.80079  -0.78794
 Alpha  occ. eigenvalues --   -0.77826  -0.76450  -0.75116  -0.74545  -0.73173
 Alpha  occ. eigenvalues --   -0.71882  -0.70433  -0.69348  -0.68067  -0.67451
 Alpha  occ. eigenvalues --   -0.66957  -0.66823  -0.66349  -0.66258  -0.65792
 Alpha  occ. eigenvalues --   -0.65323  -0.65033  -0.64113  -0.63944  -0.63606
 Alpha  occ. eigenvalues --   -0.62553  -0.61755  -0.61314  -0.59636  -0.59404
 Alpha  occ. eigenvalues --   -0.59025  -0.57397  -0.57226  -0.57000  -0.56610
 Alpha  occ. eigenvalues --   -0.56463  -0.56419  -0.56305  -0.55591  -0.55439
 Alpha  occ. eigenvalues --   -0.53877  -0.53248  -0.53090  -0.52415  -0.51280
 Alpha  occ. eigenvalues --   -0.51260  -0.49937  -0.48640  -0.48041  -0.47084
 Alpha  occ. eigenvalues --   -0.46675  -0.46178  -0.45725  -0.45639  -0.44849
 Alpha  occ. eigenvalues --   -0.42834  -0.41768  -0.41208  -0.39365  -0.35048
 Alpha  occ. eigenvalues --   -0.34373  -0.33781  -0.32937  -0.25248
 Alpha virt. eigenvalues --   -0.01936   0.02855   0.03267   0.03554   0.04036
 Alpha virt. eigenvalues --    0.04119   0.04248   0.04957   0.05197   0.05316
 Alpha virt. eigenvalues --    0.05502   0.05693   0.06003   0.06533   0.06795

 Mulliken charges:
               1
     1  C    0.015985
     2  C    0.796380
     3  C   -0.845738
     4  C    1.872541
     5  C    0.059220
     6  C    0.796076
     7  C   -0.138371
     8  C    1.023959
     9  C    0.410194
    10  C    0.116467
    11  C   -0.177698
    12  C    1.347757
    13  C    0.331297
    14  C    0.225386
    15  H   -0.659201
    16  H   -0.708500
    17  H   -0.613412
    18  N   -0.972173
    19  N   -0.939312
    20  O   -0.863640
    21  O   -0.888487
    22  O   -0.900085
    23  O   -0.861755
    24  C    0.680841
    25  H   -0.033906
    26  H   -0.058689
    27  H   -0.227673
    28  C    0.666748
    29  H   -0.016774
    30  H   -0.018306
    31  H   -0.228900
    32  C    0.670336
    33  C    0.543561
    34  S    0.700461
    35  C   -0.048194
    36  H   -0.747568
    37  C    0.085385
    38  O   -1.102690
    39  C    1.037148
    40  C    0.951937
    41  C   -0.171460
    42  S    0.319433
    43  H   -0.362550
    44  H   -0.047847
    45  H   -0.043071
    46  C    0.985126
    47  O   -1.130721
    48  C   -0.229935
    49  H   -0.637922
    50  C    0.908648
    51  H   -0.430475
    52  H   -0.054153
    53  H   -0.328958
    54  H   -0.056720
 Sum of Mulliken charges =  -0.00000

 Dipole moment (field-independent basis, Debye):
    X=              3.9552    Y=             -0.6334    Z=             -0.4459  Tot=              4.0303
 Quadrupole moment (field-independent basis, Debye-Ang):
   XX=           -215.4626   YY=           -210.1371   ZZ=           -227.4393
   XY=             -6.9338   XZ=             -2.5894   YZ=             -4.7507

 Normal termination of Gaussian 16 at Mon Dec 14 23:42:51 2020.
