 Gaussian 16, Revision C.01,
 Gaussian 16:  ES64L-G16RevC.01  3-Jul-2019

 -------------------------------
 # mp2/aug-cc-pvdz MaxDisk=400GB
 -------------------------------

 ----------------
 NDI_75_b3lyp.pdb
 ----------------
 Symbolic Z-matrix:
 Charge =  0 Multiplicity = 1

                         Standard orientation:
 ---------------------------------------------------------------------
 Center     Atomic      Atomic             Coordinates (Angstroms)
 Number     Number       Type             X           Y           Z
 ---------------------------------------------------------------------
      1          6           0       -2.936922   -2.884004    0.590041
      2          6           0       -2.450940   -1.496998    0.360041
      3          6           0       -3.364953   -0.463010    0.059041
      4          6           0       -4.748950   -0.728027   -0.031959
      5          6           0       -5.268932   -2.104034    0.200041
      6          6           0       -1.106943   -1.221981    0.452041
      7          6           0       -2.870970    0.851997   -0.164959
      8          6           0       -1.475973    1.121015   -0.067959
      9          6           0       -0.590960    0.089026    0.277041
     10          6           0       -0.995991    2.500021   -0.381959
     11          6           0       -3.346001    3.254991   -0.761959
     12          6           0       -3.801983    1.868985   -0.490959
     13          6           0       -5.154979    1.586967   -0.572959
     14          6           0       -5.633963    0.289961   -0.341959
     15          1           0       -6.689960    0.064948   -0.405959
     16          1           0       -5.833990    2.391959   -0.823959
     17          1           0       -0.425933   -2.026972    0.697041
     18          7           0       -1.966003    3.466008   -0.708959
     19          7           0       -4.317919   -3.095022    0.493041
     20          8           0       -2.189910   -3.806995    0.852041
     21          8           0       -6.455929   -2.364049    0.138041
     22          8           0       -4.123012    4.154981   -1.023959
     23          8           0        0.175005    2.823036   -0.381959
     24          6           0       -1.453021    4.810015   -1.011959
     25          1           0       -0.924026    5.209022   -0.145959
     26          1           0       -0.753020    4.756024   -1.845959
     27          1           0       -2.300029    5.440004   -1.262959
     28          6           0       -4.783902   -4.470028    0.725041
     29          1           0       -4.312893   -5.143022    0.008041
     30          1           0       -4.505897   -4.788024    1.730041
     31          1           0       -5.862901   -4.481042    0.607041
     32          6           0        0.866038    0.248045    0.452041
     33          6           0        1.536030    0.823053    1.500041
     34         16           0        1.960048   -0.575941   -0.624959
     35          6           0        2.939033    0.640071    1.421041
     36          1           0        1.036023    1.367047    2.288041
     37          6           0        3.361042   -0.092923    0.320041
     38          8           0        3.862027    1.102083    2.309041
     39          6           0        4.710046   -0.411906   -0.070959
     40          6           0        3.423015    2.001078    3.321041
     41          6           0        5.124056   -1.174901   -1.153959
     42         16           0        6.120039    0.160112    0.810041
     43          1           0        4.317012    2.300089    3.865041
     44          1           0        2.948004    2.885071    2.883041
     45          1           0        2.728022    1.511069    4.012041
     46          6           0        6.536058   -1.297882   -1.276959
     47          8           0        4.190063   -1.720913   -1.981959
     48          6           0        7.196049   -0.627874   -0.284959
     49          1           0        7.038065   -1.852876   -2.055959
     50          6           0        4.644073   -2.508907   -3.075959
     51          1           0        8.262048   -0.557860   -0.131959
     52          1           0        5.212084   -3.378899   -2.728959
     53          1           0        3.748078   -2.845918   -3.594959
     54          1           0        5.259066   -1.915899   -3.761959
 ---------------------------------------------------------------------

 SCF Done:  E(RHF) =  -2348.40805666     A.U. after   19 cycles
 E2 =    -0.5318550385D+01 EUMP2 =    -0.23537266070444D+04

 The electronic state is 1-A.
 Alpha  occ. eigenvalues --  -91.98615 -91.98147 -20.59912 -20.59833 -20.57047
 Alpha  occ. eigenvalues --  -20.57013 -20.56703 -20.56693 -15.64125 -15.63852
 Alpha  occ. eigenvalues --  -11.40227 -11.39928 -11.39909 -11.39849 -11.31103
 Alpha  occ. eigenvalues --  -11.30619 -11.30605 -11.30343 -11.30183 -11.30010
 Alpha  occ. eigenvalues --  -11.29772 -11.29683 -11.29546 -11.29462 -11.29442
 Alpha  occ. eigenvalues --  -11.28875 -11.28777 -11.28749 -11.28414 -11.27510
 Alpha  occ. eigenvalues --  -11.27284 -11.27217 -11.27101 -11.26861 -11.24899
 Alpha  occ. eigenvalues --  -11.24554  -8.98670  -8.98241  -6.66828  -6.66731
 Alpha  occ. eigenvalues --   -6.66537  -6.66399  -6.66304  -6.66116  -1.43673
 Alpha  occ. eigenvalues --   -1.43512  -1.41789  -1.41729  -1.41686  -1.41527
 Alpha  occ. eigenvalues --   -1.27772  -1.27363  -1.23473  -1.18991  -1.17133
 Alpha  occ. eigenvalues --   -1.15420  -1.13075  -1.07811  -1.06127  -1.03587
 Alpha  occ. eigenvalues --   -1.00546  -1.00331  -0.99083  -0.97354  -0.96992
 Alpha  occ. eigenvalues --   -0.96391  -0.93580  -0.92187  -0.90175  -0.89077
 Alpha  occ. eigenvalues --   -0.88559  -0.86856  -0.81463  -0.79678  -0.78808
 Alpha  occ. eigenvalues --   -0.78093  -0.76182  -0.74781  -0.74138  -0.72708
 Alpha  occ. eigenvalues --   -0.72094  -0.70766  -0.69521  -0.68118  -0.67455
 Alpha  occ. eigenvalues --   -0.66957  -0.66434  -0.66125  -0.65994  -0.65775
 Alpha  occ. eigenvalues --   -0.65431  -0.64780  -0.64521  -0.64103  -0.63927
 Alpha  occ. eigenvalues --   -0.62453  -0.61814  -0.60884  -0.60308  -0.59515
 Alpha  occ. eigenvalues --   -0.59398  -0.57412  -0.57043  -0.56995  -0.56673
 Alpha  occ. eigenvalues --   -0.56507  -0.56331  -0.55986  -0.55896  -0.55507
 Alpha  occ. eigenvalues --   -0.53952  -0.53495  -0.52723  -0.51612  -0.51231
 Alpha  occ. eigenvalues --   -0.50558  -0.48802  -0.48064  -0.47821  -0.47495
 Alpha  occ. eigenvalues --   -0.46495  -0.46376  -0.45997  -0.45594  -0.45147
 Alpha  occ. eigenvalues --   -0.43209  -0.42034  -0.41503  -0.37681  -0.35691
 Alpha  occ. eigenvalues --   -0.33844  -0.33458  -0.33159  -0.25398
 Alpha virt. eigenvalues --   -0.01791   0.02951   0.03252   0.03503   0.03983
 Alpha virt. eigenvalues --    0.04090   0.04608   0.04785   0.05235   0.05547
 Alpha virt. eigenvalues --    0.05672   0.05958   0.06204   0.06280   0.06527

 Mulliken charges:
               1
     1  C   -0.051796
     2  C    1.015463
     3  C   -0.535269
     4  C    1.656630
     5  C   -0.002226
     6  C    0.293630
     7  C   -0.388188
     8  C    1.236216
     9  C    1.212923
    10  C   -0.421442
    11  C   -0.020944
    12  C    1.445876
    13  C    0.361868
    14  C    0.261682
    15  H   -0.636250
    16  H   -0.669067
    17  H   -0.784530
    18  N   -0.951692
    19  N   -0.950968
    20  O   -0.860482
    21  O   -0.899676
    22  O   -0.905259
    23  O   -0.805510
    24  C    0.689894
    25  H   -0.021594
    26  H   -0.022497
    27  H   -0.245405
    28  C    0.670898
    29  H   -0.023055
    30  H   -0.021310
    31  H   -0.231355
    32  C    1.318147
    33  C    1.033851
    34  S    0.245946
    35  C   -0.714689
    36  H   -0.873005
    37  C   -0.248331
    38  O   -1.085474
    39  C    1.263179
    40  C    0.999628
    41  C   -0.221109
    42  S    0.363511
    43  H   -0.345060
    44  H   -0.039681
    45  H   -0.112774
    46  C    1.026222
    47  O   -1.126505
    48  C   -0.274483
    49  H   -0.635275
    50  C    0.915075
    51  H   -0.425581
    52  H   -0.071147
    53  H   -0.328000
    54  H   -0.061010
 Sum of Mulliken charges =  -0.00000

 Dipole moment (field-independent basis, Debye):
    X=              1.2383    Y=              0.0519    Z=             -0.0217  Tot=              1.2395
 Quadrupole moment (field-independent basis, Debye-Ang):
   XX=           -221.1331   YY=           -228.3040   ZZ=           -207.7600
   XY=             -3.3283   XZ=             -8.9104   YZ=             16.6314

 Normal termination of Gaussian 16 at Tue Dec 15 11:32:12 2020.
