 Gaussian 16, Revision C.01,
 Gaussian 16:  ES64L-G16RevC.01  3-Jul-2019

 -------------------------------
 # mp2/aug-cc-pvdz MaxDisk=400GB
 -------------------------------

 ------------------
 NDI_-100_b3lyp.pdb
 ------------------
 Symbolic Z-matrix:
 Charge =  0 Multiplicity = 1

                         Standard orientation:
 ---------------------------------------------------------------------
 Center     Atomic      Atomic             Coordinates (Angstroms)
 Number     Number       Type             X           Y           Z
 ---------------------------------------------------------------------
      1          6           0        3.366087   -2.814882   -0.072082
      2          6           0        2.685067   -1.497892    0.042918
      3          6           0        3.425049   -0.301881   -0.078082
      4          6           0        4.817050   -0.335860   -0.320082
      5          6           0        5.527069   -1.637850   -0.448082
      6          6           0        1.326067   -1.445913    0.259918
      7          6           0        2.752031    0.944109    0.047918
      8          6           0        1.351030    0.980088    0.292918
      9          6           0        0.629048   -0.216923    0.375918
     10          6           0        0.696010    2.308078    0.494918
     11          6           0        2.859993    3.464110    0.037918
     12          6           0        3.511013    2.134120   -0.080082
     13          6           0        4.872013    2.077141   -0.319082
     14          6           0        5.530032    0.843151   -0.439082
     15          1           0        6.595033    0.795167   -0.625082
     16          1           0        5.417999    3.008149   -0.414082
     17          1           0        0.772081   -2.372921    0.332918
     18          7           0        1.489993    3.456090    0.309918
     19          7           0        4.746087   -2.795861   -0.313082
     20          8           0        2.774103   -3.871891    0.034918
     21          8           0        6.724070   -1.701831   -0.657082
     22          8           0        3.482977    4.503120   -0.087082
     23          8           0       -0.466992    2.442060    0.813918
     24          6           0        0.801973    4.745079    0.475918
     25          1           0       -0.067027    4.780066   -0.181082
     26          1           0        0.459972    4.855074    1.505918
     27          1           0        1.505961    5.532090    0.225918
     28          6           0        5.403107   -4.105851   -0.429082
     29          1           0        5.266115   -4.668853    0.494918
     30          1           0        4.956115   -4.670858   -1.247082
     31          1           0        6.459104   -3.934835   -0.616082
     32          6           0       -0.834951   -0.309945    0.579918
     33          6           0       -1.498947   -0.565955    1.747918
     34         16           0       -1.928953   -0.151962   -0.761082
     35          6           0       -2.909946   -0.615977    1.571918
     36          1           0       -0.996945   -0.684948    2.696918
     37          6           0       -3.330949   -0.416983    0.266918
     38          8           0       -3.832943   -0.843991    2.546918
     39          6           0       -4.678949   -0.431003   -0.246082
     40          6           0       -3.371940   -1.001984    3.882918
     41          6           0       -5.093952   -0.237010   -1.555082
     42         16           0       -6.083945   -0.707025    0.774918
     43          1           0       -4.261938   -1.154997    4.490918
     44          1           0       -2.714927   -1.873974    3.974918
     45          1           0       -2.845954   -0.104976    4.227918
     46          6           0       -6.503951   -0.307031   -1.738082
     47          8           0       -4.163955   -0.007996   -2.525082
     48          6           0       -7.160947   -0.554041   -0.565082
     49          1           0       -7.005953   -0.180038   -2.686082
     50          6           0       -4.623958    0.213997   -3.852082
     51          1           0       -8.223945   -0.656057   -0.412082
     52          1           0       -5.269972    1.096988   -3.904082
     53          1           0       -3.732961    0.383011   -4.454082
     54          1           0       -5.161945   -0.659011   -4.237082
 ---------------------------------------------------------------------

 SCF Done:  E(RHF) =  -2348.40897731     A.U. after   23 cycles
 E2 =    -0.5316870031D+01 EUMP2 =    -0.23537258473370D+04

 The electronic state is 1-A.
 Alpha  occ. eigenvalues --  -91.98336 -91.98023 -20.59789 -20.59776 -20.57098
 Alpha  occ. eigenvalues --  -20.57069 -20.56794 -20.56701 -15.64193 -15.63834
 Alpha  occ. eigenvalues --  -11.40266 -11.40015 -11.39884 -11.39871 -11.30992
 Alpha  occ. eigenvalues --  -11.30558 -11.30436 -11.30414 -11.30315 -11.30126
 Alpha  occ. eigenvalues --  -11.29693 -11.29684 -11.29593 -11.29557 -11.29519
 Alpha  occ. eigenvalues --  -11.29015 -11.28888 -11.28848 -11.28443 -11.27572
 Alpha  occ. eigenvalues --  -11.27248 -11.26968 -11.26957 -11.26761 -11.24800
 Alpha  occ. eigenvalues --  -11.24457  -8.98406  -8.98116  -6.66564  -6.66467
 Alpha  occ. eigenvalues --   -6.66274  -6.66271  -6.66180  -6.65991  -1.43729
 Alpha  occ. eigenvalues --   -1.43532  -1.41779  -1.41697  -1.41599  -1.41551
 Alpha  occ. eigenvalues --   -1.27839  -1.27370  -1.23557  -1.18903  -1.17069
 Alpha  occ. eigenvalues --   -1.15391  -1.13150  -1.07810  -1.06184  -1.03500
 Alpha  occ. eigenvalues --   -1.00481  -1.00341  -0.98917  -0.97325  -0.97099
 Alpha  occ. eigenvalues --   -0.96213  -0.93581  -0.92124  -0.90199  -0.89134
 Alpha  occ. eigenvalues --   -0.88546  -0.86951  -0.81308  -0.79685  -0.78796
 Alpha  occ. eigenvalues --   -0.78116  -0.76269  -0.74574  -0.73970  -0.72888
 Alpha  occ. eigenvalues --   -0.72023  -0.70815  -0.69586  -0.68142  -0.67483
 Alpha  occ. eigenvalues --   -0.66950  -0.66393  -0.66059  -0.65963  -0.65728
 Alpha  occ. eigenvalues --   -0.65503  -0.64814  -0.64467  -0.64190  -0.63952
 Alpha  occ. eigenvalues --   -0.62413  -0.61786  -0.60881  -0.60351  -0.59645
 Alpha  occ. eigenvalues --   -0.59386  -0.57502  -0.57054  -0.56976  -0.56684
 Alpha  occ. eigenvalues --   -0.56423  -0.56186  -0.55998  -0.55890  -0.55422
 Alpha  occ. eigenvalues --   -0.53990  -0.53509  -0.52574  -0.51541  -0.51104
 Alpha  occ. eigenvalues --   -0.50455  -0.48848  -0.48046  -0.47701  -0.47599
 Alpha  occ. eigenvalues --   -0.46458  -0.46291  -0.45874  -0.45527  -0.45091
 Alpha  occ. eigenvalues --   -0.43255  -0.42068  -0.41512  -0.37231  -0.36021
 Alpha  occ. eigenvalues --   -0.33929  -0.33333  -0.33099  -0.25450
 Alpha virt. eigenvalues --   -0.01768   0.02937   0.03276   0.03532   0.03890
 Alpha virt. eigenvalues --    0.04097   0.04642   0.04836   0.05201   0.05466
 Alpha virt. eigenvalues --    0.05568   0.05873   0.06305   0.06354   0.06649

 Mulliken charges:
               1
     1  C    0.061244
     2  C    1.107744
     3  C   -0.602115
     4  C    1.676909
     5  C    0.018267
     6  C   -0.113407
     7  C   -0.238232
     8  C    1.083664
     9  C    1.519086
    10  C   -0.454514
    11  C   -0.018440
    12  C    1.441985
    13  C    0.336376
    14  C    0.285110
    15  H   -0.630659
    16  H   -0.641505
    17  H   -0.816878
    18  N   -0.936694
    19  N   -0.958413
    20  O   -0.865631
    21  O   -0.891124
    22  O   -0.905860
    23  O   -0.857376
    24  C    0.701893
    25  H   -0.023997
    26  H   -0.017675
    27  H   -0.243833
    28  C    0.669902
    29  H   -0.019341
    30  H   -0.018609
    31  H   -0.229964
    32  C    2.180104
    33  C   -0.148318
    34  S   -0.018301
    35  C    0.187249
    36  H   -0.877965
    37  C   -0.659349
    38  O   -1.095756
    39  C    1.289823
    40  C    0.975740
    41  C   -0.131313
    42  S    0.332548
    43  H   -0.343595
    44  H   -0.058137
    45  H   -0.061012
    46  C    1.008895
    47  O   -1.130592
    48  C   -0.256597
    49  H   -0.640024
    50  C    0.918443
    51  H   -0.427198
    52  H   -0.062274
    53  H   -0.329397
    54  H   -0.070889
 Sum of Mulliken charges =  -0.00000

 Dipole moment (field-independent basis, Debye):
    X=             -0.9715    Y=              0.1956    Z=             -0.0996  Tot=              0.9960
 Quadrupole moment (field-independent basis, Debye-Ang):
   XX=           -220.8668   YY=           -238.6612   ZZ=           -198.5897
   XY=             -2.8793   XZ=             11.7254   YZ=             -3.9338

 Normal termination of Gaussian 16 at Thu Dec 10 17:51:09 2020.
