 Gaussian 16, Revision C.01,
 Gaussian 16:  ES64L-G16RevC.01  3-Jul-2019

 -------------------------------
 # mp2/aug-cc-pvdz MaxDisk=400GB
 -------------------------------

 -----------------
 NDI_-75_b3lyp.pdb
 -----------------
 Symbolic Z-matrix:
 Charge =  0 Multiplicity = 1

                         Standard orientation:
 ---------------------------------------------------------------------
 Center     Atomic      Atomic             Coordinates (Angstroms)
 Number     Number       Type             X           Y           Z
 ---------------------------------------------------------------------
      1          6           0        2.937123   -2.884011    0.589970
      2          6           0        2.451108   -1.497016    0.359970
      3          6           0        3.365098   -0.463007    0.058970
      4          6           0        4.749101   -0.728993   -0.032030
      5          6           0        5.269115   -2.103988    0.199970
      6          6           0        1.107106   -1.221030    0.452970
      7          6           0        2.871085    0.851988   -0.165030
      8          6           0        1.477082    1.120974   -0.068030
      9          6           0        0.591092    0.089965    0.276970
     10          6           0        0.996068    2.499969   -0.381030
     11          6           0        3.346060    3.254993   -0.762030
     12          6           0        3.802074    1.868998   -0.491030
     13          6           0        5.155077    1.586011   -0.574030
     14          6           0        5.633090    0.289016   -0.342030
     15          1           0        6.690093    0.064027   -0.407030
     16          1           0        5.834069    2.392018   -0.824030
     17          1           0        0.426114   -2.027037    0.696970
     18          7           0        1.966058    3.465979   -0.709030
     19          7           0        4.318125   -3.094997    0.493970
     20          8           0        2.190132   -3.807019    0.851970
     21          8           0        6.455117   -2.363975    0.136970
     22          8           0        4.123051    4.155001   -1.025030
     23          8           0       -0.174935    2.823957   -0.381030
     24          6           0        1.453044    4.809974   -1.012030
     25          1           0        0.753045    4.756967   -1.846030
     26          1           0        0.925040    5.209968   -0.146030
     27          1           0        2.301038    5.439982   -1.264030
     28          6           0        4.784139   -4.469992    0.725970
     29          1           0        4.501142   -4.789995    1.728970
     30          1           0        4.317146   -5.141997    0.005970
     31          1           0        5.863139   -4.479982    0.613970
     32          6           0       -0.865909    0.248950    0.452970
     33          6           0       -1.535915    0.823943    1.499970
     34         16           0       -1.959901   -0.575061   -0.624030
     35          6           0       -2.939913    0.639929    1.420970
     36          1           0       -1.035921    1.366948    2.287970
     37          6           0       -3.360906   -0.093075    0.319970
     38          8           0       -3.862918    1.101920    2.308970
     39          6           0       -4.709903   -0.412089   -0.071030
     40          6           0       -3.422927    2.000924    3.320970
     41          6           0       -5.123895   -1.175093   -1.155030
     42         16           0       -6.120908    0.159897    0.809970
     43          1           0       -4.317930    2.299915    3.864970
     44          1           0       -2.728922    1.510931    4.011970
     45          1           0       -2.947936    2.884929    2.882970
     46          6           0       -6.535894   -1.298107   -1.278030
     47          8           0       -4.189889   -1.721084   -1.982030
     48          6           0       -7.195900   -0.628114   -0.286030
     49          1           0       -7.036888   -1.854113   -2.056030
     50          6           0       -4.643881   -2.510088   -3.076030
     51          1           0       -8.261901   -0.558125   -0.133030
     52          1           0       -5.258887   -1.918094   -3.761030
     53          1           0       -3.746878   -2.847079   -3.594030
     54          1           0       -5.210872   -3.380094   -2.728030
 ---------------------------------------------------------------------

 SCF Done:  E(RHF) =  -2348.40809916     A.U. after   19 cycles
 E2 =    -0.5318474013D+01 EUMP2 =    -0.23537265731769D+04

 The electronic state is 1-A.
 Alpha  occ. eigenvalues --  -91.98598 -91.98150 -20.59915 -20.59832 -20.57052
 Alpha  occ. eigenvalues --  -20.57006 -20.56705 -20.56691 -15.64114 -15.63851
 Alpha  occ. eigenvalues --  -11.40214 -11.39923 -11.39914 -11.39851 -11.31103
 Alpha  occ. eigenvalues --  -11.30613 -11.30612 -11.30337 -11.30178 -11.30012
 Alpha  occ. eigenvalues --  -11.29773 -11.29684 -11.29531 -11.29460 -11.29448
 Alpha  occ. eigenvalues --  -11.28878 -11.28781 -11.28754 -11.28402 -11.27501
 Alpha  occ. eigenvalues --  -11.27286 -11.27206 -11.27104 -11.26862 -11.24894
 Alpha  occ. eigenvalues --  -11.24546  -8.98656  -8.98242  -6.66814  -6.66718
 Alpha  occ. eigenvalues --   -6.66523  -6.66400  -6.66305  -6.66117  -1.43700
 Alpha  occ. eigenvalues --   -1.43496  -1.41795  -1.41762  -1.41680  -1.41510
 Alpha  occ. eigenvalues --   -1.27770  -1.27354  -1.23478  -1.18991  -1.17119
 Alpha  occ. eigenvalues --   -1.15416  -1.13086  -1.07814  -1.06128  -1.03586
 Alpha  occ. eigenvalues --   -1.00539  -1.00332  -0.99076  -0.97352  -0.96994
 Alpha  occ. eigenvalues --   -0.96389  -0.93582  -0.92188  -0.90171  -0.89080
 Alpha  occ. eigenvalues --   -0.88560  -0.86849  -0.81460  -0.79680  -0.78809
 Alpha  occ. eigenvalues --   -0.78090  -0.76179  -0.74778  -0.74141  -0.72713
 Alpha  occ. eigenvalues --   -0.72096  -0.70764  -0.69520  -0.68121  -0.67455
 Alpha  occ. eigenvalues --   -0.66954  -0.66434  -0.66132  -0.65999  -0.65781
 Alpha  occ. eigenvalues --   -0.65426  -0.64783  -0.64517  -0.64102  -0.63923
 Alpha  occ. eigenvalues --   -0.62445  -0.61806  -0.60892  -0.60307  -0.59511
 Alpha  occ. eigenvalues --   -0.59401  -0.57415  -0.57051  -0.56992  -0.56677
 Alpha  occ. eigenvalues --   -0.56503  -0.56319  -0.55982  -0.55879  -0.55508
 Alpha  occ. eigenvalues --   -0.53953  -0.53480  -0.52732  -0.51600  -0.51241
 Alpha  occ. eigenvalues --   -0.50557  -0.48810  -0.48068  -0.47830  -0.47498
 Alpha  occ. eigenvalues --   -0.46501  -0.46373  -0.45995  -0.45592  -0.45146
 Alpha  occ. eigenvalues --   -0.43216  -0.42032  -0.41501  -0.37684  -0.35687
 Alpha  occ. eigenvalues --   -0.33846  -0.33443  -0.33159  -0.25393
 Alpha virt. eigenvalues --   -0.01790   0.02951   0.03251   0.03503   0.03984
 Alpha virt. eigenvalues --    0.04090   0.04608   0.04786   0.05234   0.05548
 Alpha virt. eigenvalues --    0.05672   0.05958   0.06203   0.06281   0.06529

 Mulliken charges:
               1
     1  C   -0.050560
     2  C    1.012295
     3  C   -0.549177
     4  C    1.677512
     5  C   -0.008480
     6  C    0.293705
     7  C   -0.382682
     8  C    1.230900
     9  C    1.212100
    10  C   -0.419863
    11  C   -0.022722
    12  C    1.448134
    13  C    0.354882
    14  C    0.260161
    15  H   -0.634327
    16  H   -0.668491
    17  H   -0.783564
    18  N   -0.954217
    19  N   -0.948791
    20  O   -0.860581
    21  O   -0.898300
    22  O   -0.905544
    23  O   -0.805388
    24  C    0.688237
    25  H   -0.023280
    26  H   -0.022746
    27  H   -0.242144
    28  C    0.673610
    29  H   -0.021594
    30  H   -0.023206
    31  H   -0.233525
    32  C    1.318234
    33  C    1.043616
    34  S    0.246480
    35  C   -0.723617
    36  H   -0.875572
    37  C   -0.244632
    38  O   -1.085340
    39  C    1.263619
    40  C    0.999193
    41  C   -0.225988
    42  S    0.363042
    43  H   -0.342054
    44  H   -0.114945
    45  H   -0.039357
    46  C    1.031966
    47  O   -1.126358
    48  C   -0.274013
    49  H   -0.636645
    50  C    0.917006
    51  H   -0.425898
    52  H   -0.064191
    53  H   -0.325592
    54  H   -0.071308
 Sum of Mulliken charges =  -0.00000

 Dipole moment (field-independent basis, Debye):
    X=             -1.2303    Y=              0.0400    Z=             -0.0215  Tot=              1.2312
 Quadrupole moment (field-independent basis, Debye-Ang):
   XX=           -221.0538   YY=           -228.3114   ZZ=           -207.7424
   XY=              3.3280   XZ=              8.9711   YZ=             16.6543

 Normal termination of Gaussian 16 at Thu Dec 10 17:48:23 2020.
