 Gaussian 16, Revision C.01,
 Gaussian 16:  ES64L-G16RevC.01  3-Jul-2019

 -------------------------------
 # mp2/aug-cc-pvdz MaxDisk=400GB
 -------------------------------

 ----------------
 NDI_80_b3lyp.pdb
 ----------------
 Symbolic Z-matrix:
 Charge =  0 Multiplicity = 1

                         Standard orientation:
 ---------------------------------------------------------------------
 Center     Atomic      Atomic             Coordinates (Angstroms)
 Number     Number       Type             X           Y           Z
 ---------------------------------------------------------------------
      1          6           0       -3.020953   -2.871998    0.540896
      2          6           0       -2.496950   -1.494999    0.340896
      3          6           0       -3.378949   -0.433998    0.037896
      4          6           0       -4.767949   -0.663995   -0.082104
      5          6           0       -5.325951   -2.029994    0.116896
      6          6           0       -1.146950   -1.254002    0.459896
      7          6           0       -2.850946    0.871001   -0.154104
      8          6           0       -1.451946    1.103999   -0.029104
      9          6           0       -0.597948    0.044997    0.307896
     10          6           0       -0.931943    2.478998   -0.297104
     11          6           0       -3.254942    3.298002   -0.707104
     12          6           0       -3.749944    1.918003   -0.476104
     13          6           0       -5.106945    1.671005   -0.587104
     14          6           0       -5.620947    0.381006   -0.389104
     15          1           0       -6.681947    0.183008   -0.476104
     16          1           0       -5.761943    2.497006   -0.833104
     17          1           0       -0.488951   -2.079003    0.700896
     18          7           0       -1.871942    3.476000   -0.616104
     19          7           0       -4.404953   -3.047996    0.412896
     20          8           0       -2.302954   -3.817000    0.804896
     21          8           0       -6.516952   -2.259992    0.026896
     22          8           0       -4.003940    4.221003   -0.969104
     23          8           0        0.246057    2.771996   -0.265104
     24          6           0       -1.320939    4.815999   -0.872104
     25          1           0       -0.793939    5.173998    0.011896
     26          1           0       -0.612939    4.769997   -1.700104
     27          1           0       -2.148938    5.475000   -1.113104
     28          6           0       -4.907955   -4.414995    0.614896
     29          1           0       -4.438957   -5.087996   -0.103104
     30          1           0       -4.658956   -4.753996    1.619896
     31          1           0       -5.984955   -4.397993    0.474896
     32          6           0        0.862053    0.167995    0.503896
     33          6           0        1.529053    0.624994    1.608896
     34         16           0        1.955051   -0.524007   -0.660104
     35          6           0        2.935053    0.454991    1.507896
     36          1           0        1.028054    1.075994    2.452896
     37          6           0        3.357052   -0.149010    0.332896
     38          8           0        3.857054    0.816990    2.443896
     39          6           0        4.706051   -0.427012   -0.089104
     40          6           0        3.413055    1.585990    3.555896
     41          6           0        5.120050   -1.059013   -1.253104
     42         16           0        6.116052    0.029986    0.857896
     43          1           0        4.307055    1.819989    4.132896
     44          1           0        2.935057    2.514991    3.227896
     45          1           0        2.720054    1.013992    4.181896
     46          6           0        6.532050   -1.175015   -1.385104
     47          8           0        4.187050   -1.501011   -2.142104
     48          6           0        7.193051   -0.629016   -0.320104
     49          1           0        7.034049   -1.638016   -2.223104
     50          6           0        4.642048   -2.146012   -3.326104
     51          1           0        8.258051   -0.583018   -0.156104
     52          1           0        5.208047   -3.053013   -3.090104
     53          1           0        3.747048   -2.413010   -3.884104
     54          1           0        5.260050   -1.473013   -3.929104
 ---------------------------------------------------------------------

 SCF Done:  E(RHF) =  -2348.40839725     A.U. after   21 cycles
 E2 =    -0.5317389036D+01 EUMP2 =    -0.23537257862908D+04

 The electronic state is 1-A.
 Alpha  occ. eigenvalues --  -91.98538 -91.98083 -20.59839 -20.59795 -20.57064
 Alpha  occ. eigenvalues --  -20.57034 -20.56751 -20.56738 -15.64134 -15.63875
 Alpha  occ. eigenvalues --  -11.40247 -11.39951 -11.39918 -11.39896 -11.31059
 Alpha  occ. eigenvalues --  -11.30588 -11.30519 -11.30372 -11.30258 -11.30068
 Alpha  occ. eigenvalues --  -11.29714 -11.29671 -11.29578 -11.29506 -11.29492
 Alpha  occ. eigenvalues --  -11.28951 -11.28835 -11.28808 -11.28438 -11.27525
 Alpha  occ. eigenvalues --  -11.27307 -11.27089 -11.27035 -11.26810 -11.24825
 Alpha  occ. eigenvalues --  -11.24513  -8.98595  -8.98174  -6.66753  -6.66656
 Alpha  occ. eigenvalues --   -6.66461  -6.66331  -6.66237  -6.66048  -1.43704
 Alpha  occ. eigenvalues --   -1.43556  -1.41767  -1.41708  -1.41603  -1.41579
 Alpha  occ. eigenvalues --   -1.27781  -1.27378  -1.23521  -1.18958  -1.17088
 Alpha  occ. eigenvalues --   -1.15397  -1.13105  -1.07818  -1.06162  -1.03545
 Alpha  occ. eigenvalues --   -1.00499  -1.00353  -0.99003  -0.97341  -0.96997
 Alpha  occ. eigenvalues --   -0.96345  -0.93559  -0.92159  -0.90199  -0.89127
 Alpha  occ. eigenvalues --   -0.88570  -0.86884  -0.81415  -0.79679  -0.78803
 Alpha  occ. eigenvalues --   -0.78105  -0.76174  -0.74754  -0.74070  -0.72744
 Alpha  occ. eigenvalues --   -0.72046  -0.70799  -0.69546  -0.68139  -0.67471
 Alpha  occ. eigenvalues --   -0.66967  -0.66431  -0.66070  -0.65967  -0.65732
 Alpha  occ. eigenvalues --   -0.65455  -0.64800  -0.64490  -0.64151  -0.63935
 Alpha  occ. eigenvalues --   -0.62430  -0.61797  -0.60863  -0.60319  -0.59565
 Alpha  occ. eigenvalues --   -0.59426  -0.57437  -0.57079  -0.57028  -0.56674
 Alpha  occ. eigenvalues --   -0.56489  -0.56273  -0.55996  -0.55906  -0.55471
 Alpha  occ. eigenvalues --   -0.53990  -0.53496  -0.52658  -0.51589  -0.51169
 Alpha  occ. eigenvalues --   -0.50493  -0.48790  -0.48019  -0.47761  -0.47566
 Alpha  occ. eigenvalues --   -0.46514  -0.46337  -0.45967  -0.45564  -0.45145
 Alpha  occ. eigenvalues --   -0.43231  -0.42051  -0.41527  -0.37489  -0.35831
 Alpha  occ. eigenvalues --   -0.33883  -0.33416  -0.33134  -0.25414
 Alpha virt. eigenvalues --   -0.01777   0.02936   0.03270   0.03508   0.03953
 Alpha virt. eigenvalues --    0.04086   0.04609   0.04795   0.05218   0.05553
 Alpha virt. eigenvalues --    0.05624   0.05949   0.06244   0.06339   0.06548

 Mulliken charges:
               1
     1  C    0.085325
     2  C    0.963828
     3  C   -0.615966
     4  C    1.642204
     5  C    0.065760
     6  C    0.055514
     7  C   -0.235519
     8  C    1.061825
     9  C    1.394703
    10  C   -0.425568
    11  C   -0.016045
    12  C    1.410816
    13  C    0.391424
    14  C    0.286951
    15  H   -0.633000
    16  H   -0.652463
    17  H   -0.791027
    18  N   -0.958169
    19  N   -0.959523
    20  O   -0.860379
    21  O   -0.886746
    22  O   -0.904096
    23  O   -0.822835
    24  C    0.688137
    25  H   -0.020539
    26  H   -0.016303
    27  H   -0.246055
    28  C    0.676845
    29  H   -0.019147
    30  H   -0.021878
    31  H   -0.229303
    32  C    1.734597
    33  C    0.283396
    34  S    0.111472
    35  C    0.015919
    36  H   -0.844400
    37  C   -0.631532
    38  O   -1.102179
    39  C    1.318785
    40  C    0.985890
    41  C   -0.155121
    42  S    0.342929
    43  H   -0.341226
    44  H   -0.041266
    45  H   -0.104817
    46  C    1.011454
    47  O   -1.123952
    48  C   -0.261995
    49  H   -0.634063
    50  C    0.922502
    51  H   -0.427329
    52  H   -0.074818
    53  H   -0.329215
    54  H   -0.063801
 Sum of Mulliken charges =  -0.00000

 Dipole moment (field-independent basis, Debye):
    X=              1.0590    Y=              0.1346    Z=             -0.0437  Tot=              1.0684
 Quadrupole moment (field-independent basis, Debye-Ang):
   XX=           -221.3391   YY=           -231.4131   ZZ=           -204.6926
   XY=             -2.5662   XZ=             -9.6899   YZ=             15.0543

 Normal termination of Gaussian 16 at Tue Dec 15 12:04:05 2020.
