 Gaussian 16, Revision C.01,
 Gaussian 16:  ES64L-G16RevC.01  3-Jul-2019

 -------------------------------
 # mp2/aug-cc-pvdz MaxDisk=400GB
 -------------------------------

 ---------------
 NDI_5_b3lyp.pdb
 ---------------
 Symbolic Z-matrix:
 Charge =  0 Multiplicity = 1

                         Standard orientation:
 ---------------------------------------------------------------------
 Center     Atomic      Atomic             Coordinates (Angstroms)
 Number     Number       Type             X           Y           Z
 ---------------------------------------------------------------------
      1          6           0       -2.372087   -3.020905    0.305034
      2          6           0       -2.155063   -1.551909    0.226034
      3          6           0       -3.240048   -0.675891    0.001034
      4          6           0       -4.539057   -1.183870   -0.194966
      5          6           0       -4.790081   -2.648866   -0.144966
      6          6           0       -0.889055   -1.055930    0.350034
      7          6           0       -2.984026    0.722105   -0.012966
      8          6           0       -1.663017    1.238083    0.198034
      9          6           0       -0.557032    0.338065    0.285034
     10          6           0       -1.563993    2.705082    0.390034
     11          6           0       -3.924988    3.039120   -0.322966
     12          6           0       -4.091012    1.573123   -0.264966
     13          6           0       -5.362020    1.055144   -0.477966
     14          6           0       -5.597043   -0.320853   -0.435966
     15          1           0       -6.588049   -0.728836   -0.588966
     16          1           0       -6.167009    1.751157   -0.677966
     17          1           0       -0.110067   -1.789942    0.504034
     18          7           0       -2.652980    3.506099    0.008034
     19          7           0       -3.681094   -3.472884    0.111034
     20          8           0       -1.471100   -3.811920    0.521034
     21          8           0       -5.899088   -3.119848   -0.311966
     22          8           0       -4.832975    3.799135   -0.612966
     23          8           0       -0.598984    3.270066    0.884034
     24          6           0       -2.456956    4.959096    0.111034
     25          1           0       -2.349952    5.253094    1.156034
     26          1           0       -1.548952    5.242081   -0.420966
     27          1           0       -3.325948    5.440110   -0.326966
     28          6           0       -3.886118   -4.926881    0.182034
     29          1           0       -3.272126   -5.421891   -0.570966
     30          1           0       -3.588124   -5.293885    1.164034
     31          1           0       -4.938121   -5.124863    0.005034
     32          6           0        0.877973    0.616042    0.246034
     33          6           0        1.622992    1.787029    0.205034
     34         16           0        1.980950   -0.767976    0.103034
     35          6           0        3.004989    1.584007    0.068034
     36          1           0        1.173008    2.756037    0.309034
     37          6           0        3.392967    0.244001   -0.000966
     38          8           0        3.958004    2.548991    0.015034
     39          6           0        4.721958   -0.279021   -0.125966
     40          6           0        3.539027    3.909998    0.111034
     41          6           0        5.107936   -1.617027   -0.172966
     42         16           0        6.149975    0.743956   -0.243966
     43          1           0        4.449036    4.504983    0.061034
     44          1           0        2.880031    4.176009   -0.720966
     45          1           0        3.027030    4.098007    1.059034
     46          6           0        6.508933   -1.813050   -0.298966
     47          8           0        4.160921   -2.583012   -0.100966
     48          6           0        7.187952   -0.627061   -0.348966
     49          1           0        6.991917   -2.778058   -0.349966
     50          6           0        4.578898   -3.947019   -0.125966
     51          1           0        8.253955   -0.483079   -0.440966
     52          1           0        5.233895   -4.171029    0.721034
     53          1           0        3.667889   -4.538004   -0.047966
     54          1           0        5.088894   -4.183027   -1.064966
 ---------------------------------------------------------------------

 SCF Done:  E(RHF) =  -2348.39819488     A.U. after   21 cycles
 E2 =    -0.5327465098D+01 EUMP2 =    -0.23537256599728D+04

 The electronic state is 1-A.
 Alpha  occ. eigenvalues --  -91.99118 -91.99062 -20.60864 -20.60181 -20.56747
 Alpha  occ. eigenvalues --  -20.56734 -20.56552 -20.56050 -15.63844 -15.63492
 Alpha  occ. eigenvalues --  -11.39859 -11.39830 -11.39669 -11.39150 -11.32061
 Alpha  occ. eigenvalues --  -11.32023 -11.30877 -11.30378 -11.29987 -11.29805
 Alpha  occ. eigenvalues --  -11.29370 -11.29112 -11.28994 -11.28992 -11.28911
 Alpha  occ. eigenvalues --  -11.28799 -11.28538 -11.28295 -11.28294 -11.28096
 Alpha  occ. eigenvalues --  -11.27837 -11.27623 -11.27300 -11.27191 -11.25368
 Alpha  occ. eigenvalues --  -11.25309  -8.99199  -8.99177  -6.67355  -6.67328
 Alpha  occ. eigenvalues --   -6.67259  -6.67231  -6.67071  -6.67039  -1.43355
 Alpha  occ. eigenvalues --   -1.43223  -1.42856  -1.42164  -1.41389  -1.41036
 Alpha  occ. eigenvalues --   -1.27470  -1.27074  -1.22811  -1.19363  -1.17537
 Alpha  occ. eigenvalues --   -1.15371  -1.12500  -1.07802  -1.05648  -1.04166
 Alpha  occ. eigenvalues --   -1.01103  -1.00080  -0.99816  -0.97843  -0.96869
 Alpha  occ. eigenvalues --   -0.96507  -0.94060  -0.92461  -0.89905  -0.88665
 Alpha  occ. eigenvalues --   -0.88382  -0.86495  -0.82027  -0.80042  -0.78829
 Alpha  occ. eigenvalues --   -0.77848  -0.76462  -0.75126  -0.74567  -0.73203
 Alpha  occ. eigenvalues --   -0.71828  -0.70419  -0.69526  -0.68178  -0.67403
 Alpha  occ. eigenvalues --   -0.66977  -0.66825  -0.66378  -0.66172  -0.65845
 Alpha  occ. eigenvalues --   -0.65307  -0.65042  -0.64119  -0.64015  -0.63581
 Alpha  occ. eigenvalues --   -0.62493  -0.61721  -0.61311  -0.59682  -0.59323
 Alpha  occ. eigenvalues --   -0.59003  -0.57363  -0.57165  -0.57004  -0.56627
 Alpha  occ. eigenvalues --   -0.56478  -0.56395  -0.56305  -0.55674  -0.55436
 Alpha  occ. eigenvalues --   -0.53826  -0.53254  -0.53043  -0.52436  -0.51303
 Alpha  occ. eigenvalues --   -0.51135  -0.49875  -0.48662  -0.48070  -0.47039
 Alpha  occ. eigenvalues --   -0.46624  -0.46180  -0.45685  -0.45605  -0.44846
 Alpha  occ. eigenvalues --   -0.42865  -0.41825  -0.41278  -0.39372  -0.35027
 Alpha  occ. eigenvalues --   -0.34358  -0.33762  -0.32989  -0.25276
 Alpha virt. eigenvalues --   -0.01848   0.02854   0.03319   0.03545   0.03991
 Alpha virt. eigenvalues --    0.04134   0.04242   0.04956   0.05302   0.05417
 Alpha virt. eigenvalues --    0.05454   0.05661   0.06046   0.06571   0.06778

 Mulliken charges:
               1
     1  C   -0.008245
     2  C    0.707291
     3  C   -0.827491
     4  C    1.813685
     5  C    0.027560
     6  C    0.728944
     7  C   -0.340111
     8  C    1.121288
     9  C    0.201701
    10  C   -0.102130
    11  C   -0.153498
    12  C    1.434221
    13  C    0.395755
    14  C    0.384507
    15  H   -0.685267
    16  H   -0.720136
    17  H   -0.611661
    18  N   -0.934124
    19  N   -0.937131
    20  O   -0.862854
    21  O   -0.891390
    22  O   -0.902851
    23  O   -0.882851
    24  C    0.688135
    25  H   -0.043725
    26  H   -0.059252
    27  H   -0.217330
    28  C    0.655102
    29  H   -0.015938
    30  H   -0.020692
    31  H   -0.231598
    32  C    0.632258
    33  C    0.632820
    34  S    0.690299
    35  C    0.181153
    36  H   -0.691614
    37  C    0.174711
    38  O   -1.084541
    39  C    1.018210
    40  C    0.961888
    41  C   -0.100161
    42  S    0.322434
    43  H   -0.372382
    44  H   -0.033864
    45  H   -0.041637
    46  C    0.934264
    47  O   -1.133904
    48  C   -0.214172
    49  H   -0.632574
    50  C    0.915987
    51  H   -0.428032
    52  H   -0.054933
    53  H   -0.330239
    54  H   -0.055884
 Sum of Mulliken charges =  -0.00000

 Dipole moment (field-independent basis, Debye):
    X=              3.9601    Y=             -0.6875    Z=             -0.4587  Tot=              4.0454
 Quadrupole moment (field-independent basis, Debye-Ang):
   XX=           -215.6891   YY=           -208.9662   ZZ=           -228.4581
   XY=             -6.9940   XZ=             -5.4827   YZ=              1.2559

 Normal termination of Gaussian 16 at Tue Dec 15 00:56:27 2020.
