 Gaussian 16, Revision C.01,
 Gaussian 16:  ES64L-G16RevC.01  3-Jul-2019

 -------------------------------
 # mp2/aug-cc-pvdz MaxDisk=400GB
 -------------------------------

 ------------------
 NDI_-170_b3lyp.pdb
 ------------------
 Symbolic Z-matrix:
 Charge =  0 Multiplicity = 1

                         Standard orientation:
 ---------------------------------------------------------------------
 Center     Atomic      Atomic             Coordinates (Angstroms)
 Number     Number       Type             X           Y           Z
 ---------------------------------------------------------------------
      1          6           0       -3.848283   -2.543364    0.241937
      2          6           0       -2.957510   -1.359419    0.119842
      3          6           0       -3.501942   -0.058947    0.004433
      4          6           0       -4.901310    0.132052    0.004905
      5          6           0       -5.821594   -1.030616    0.119758
      6          6           0       -1.597789   -1.540867    0.095796
      7          6           0       -2.611357    1.047691   -0.100438
      8          6           0       -1.193319    0.852929   -0.112369
      9          6           0       -0.665827   -0.465650   -0.047410
     10          6           0       -0.336896    2.069952   -0.098391
     11          6           0       -2.345670    3.550017   -0.255486
     12          6           0       -3.192895    2.340182   -0.186412
     13          6           0       -4.571372    2.509325   -0.188361
     14          6           0       -5.432793    1.409604   -0.095843
     15          1           0       -6.509429    1.530830   -0.093220
     16          1           0       -4.957447    3.520261   -0.258142
     17          1           0       -1.234689   -2.560709    0.145209
     18          7           0       -0.969759    3.326086   -0.177592
     19          7           0       -5.226863   -2.298907    0.232457
     20          8           0       -3.424437   -3.685923    0.347186
     21          8           0       -7.036194   -0.898058    0.119126
     22          8           0       -2.810280    4.678691   -0.357486
     23          8           0        0.884189    2.058664   -0.008158
     24          6           0       -0.077500    4.490781   -0.173396
     25          1           0        0.512720    4.502173    0.744139
     26          1           0        0.611579    4.434558   -1.019981
     27          1           0       -0.698747    5.379353   -0.244224
     28          6           0       -6.096123   -3.475007    0.349588
     29          1           0       -5.885246   -4.171018   -0.465074
     30          1           0       -5.902834   -3.985286    1.295015
     31          1           0       -7.126086   -3.131462    0.304284
     32          6           0        0.736205   -0.870712   -0.141940
     33          6           0        1.308900   -2.121413   -0.269976
     34         16           0        1.989971    0.349743    0.078523
     35          6           0        2.716474   -2.105944   -0.199911
     36          1           0        0.728749   -3.017449   -0.418616
     37          6           0        3.272353   -0.834603   -0.020671
     38          8           0        3.542594   -3.181200   -0.288412
     39          6           0        4.662947   -0.486605    0.045009
     40          6           0        2.954200   -4.437991   -0.612759
     41          6           0        5.215352    0.777197    0.246634
     42         16           0        5.958977   -1.668123   -0.126343
     43          1           0        3.781725   -5.139530   -0.714787
     44          1           0        2.284330   -4.779394    0.185900
     45          1           0        2.397034   -4.382994   -1.556101
     46          6           0        6.638938    0.795281    0.261902
     47          8           0        4.390178    1.844896    0.402426
     48          6           0        7.168582   -0.452395    0.072944
     49          1           0        7.238216    1.684491    0.405895
     50          6           0        4.982218    3.117231    0.641040
     51          1           0        8.214221   -0.724749    0.042044
     52          1           0        5.613900    3.426353   -0.200683
     53          1           0        4.155028    3.817673    0.748424
     54          1           0        5.577830    3.111915    1.560978
 ---------------------------------------------------------------------

 SCF Done:  E(RHF) =  -2348.34305158     A.U. after   21 cycles
 E2 =    -0.5346393118D+01 EUMP2 =    -0.23536894447013D+04

 The electronic state is 1-A.
 Alpha  occ. eigenvalues --  -91.98261 -91.97208 -20.59937 -20.59494 -20.57455
 Alpha  occ. eigenvalues --  -20.57221 -20.57066 -20.56325 -15.64288 -15.64130
 Alpha  occ. eigenvalues --  -11.40677 -11.40275 -11.40207 -11.39610 -11.32142
 Alpha  occ. eigenvalues --  -11.31168 -11.30464 -11.29935 -11.29783 -11.29686
 Alpha  occ. eigenvalues --  -11.29608 -11.29557 -11.29546 -11.29430 -11.28895
 Alpha  occ. eigenvalues --  -11.28867 -11.28507 -11.28234 -11.28144 -11.27610
 Alpha  occ. eigenvalues --  -11.27573 -11.27518 -11.26635 -11.26031 -11.25766
 Alpha  occ. eigenvalues --  -11.24741  -8.98341  -8.97198  -6.66497  -6.66400
 Alpha  occ. eigenvalues --   -6.66216  -6.65302  -6.65092  -6.64875  -1.44780
 Alpha  occ. eigenvalues --   -1.43436  -1.41868  -1.41487  -1.41449  -1.41415
 Alpha  occ. eigenvalues --   -1.27906  -1.27665  -1.23111  -1.18511  -1.17011
 Alpha  occ. eigenvalues --   -1.15054  -1.12808  -1.07636  -1.05991  -1.03441
 Alpha  occ. eigenvalues --   -1.00536  -1.00421  -0.99243  -0.97248  -0.97195
 Alpha  occ. eigenvalues --   -0.96395  -0.93757  -0.92135  -0.90248  -0.89014
 Alpha  occ. eigenvalues --   -0.88114  -0.87437  -0.81127  -0.79704  -0.79075
 Alpha  occ. eigenvalues --   -0.78374  -0.76448  -0.74770  -0.74041  -0.73427
 Alpha  occ. eigenvalues --   -0.72070  -0.70607  -0.70395  -0.68319  -0.67570
 Alpha  occ. eigenvalues --   -0.67092  -0.66555  -0.66071  -0.65981  -0.65832
 Alpha  occ. eigenvalues --   -0.65620  -0.64911  -0.64509  -0.64323  -0.63594
 Alpha  occ. eigenvalues --   -0.62927  -0.61364  -0.60553  -0.60052  -0.59660
 Alpha  occ. eigenvalues --   -0.59479  -0.58124  -0.57525  -0.56847  -0.56754
 Alpha  occ. eigenvalues --   -0.56551  -0.56481  -0.55996  -0.55727  -0.55197
 Alpha  occ. eigenvalues --   -0.53985  -0.52937  -0.52668  -0.52142  -0.50821
 Alpha  occ. eigenvalues --   -0.50425  -0.49612  -0.48825  -0.47778  -0.47158
 Alpha  occ. eigenvalues --   -0.46618  -0.46302  -0.46083  -0.45721  -0.43568
 Alpha  occ. eigenvalues --   -0.42228  -0.41571  -0.38937  -0.37036  -0.34911
 Alpha  occ. eigenvalues --   -0.34011  -0.32825  -0.32240  -0.24494
 Alpha virt. eigenvalues --   -0.02028   0.02996   0.03324   0.03513   0.04013
 Alpha virt. eigenvalues --    0.04262   0.04313   0.04972   0.05100   0.05264
 Alpha virt. eigenvalues --    0.05602   0.05985   0.06126   0.06431   0.06670

 Mulliken charges:
               1
     1  C    0.163881
     2  C    0.609833
     3  C   -0.635432
     4  C    1.733527
     5  C   -0.025557
     6  C    0.802660
     7  C   -0.091052
     8  C    1.366995
     9  C    0.527452
    10  C   -0.246089
    11  C   -0.241382
    12  C    1.443864
    13  C    0.220257
    14  C    0.244150
    15  H   -0.633248
    16  H   -0.668440
    17  H   -0.680917
    18  N   -0.953346
    19  N   -0.979224
    20  O   -0.860835
    21  O   -0.887963
    22  O   -0.915850
    23  O   -0.736713
    24  C    0.653298
    25  H   -0.022675
    26  H   -0.009877
    27  H   -0.233271
    28  C    0.654845
    29  H   -0.010616
    30  H   -0.011479
    31  H   -0.222792
    32  C    0.392920
    33  C    0.494682
    34  S    0.855844
    35  C   -0.069337
    36  H   -0.824414
    37  C    0.441477
    38  O   -1.096692
    39  C    0.846481
    40  C    0.960068
    41  C   -0.202670
    42  S    0.312747
    43  H   -0.361020
    44  H   -0.061336
    45  H   -0.027034
    46  C    0.992225
    47  O   -1.144525
    48  C   -0.234082
    49  H   -0.642389
    50  C    0.920457
    51  H   -0.427598
    52  H   -0.041642
    53  H   -0.403586
    54  H   -0.034580
 Sum of Mulliken charges =  -0.00000

 Dipole moment (field-independent basis, Debye):
    X=              2.3109    Y=              0.3626    Z=             -0.1082  Tot=              2.3417
 Quadrupole moment (field-independent basis, Debye-Ang):
   XX=           -218.2460   YY=           -215.3626   ZZ=           -226.0271
   XY=             14.5103   XZ=              1.0791   YZ=              6.4310

 Normal termination of Gaussian 16 at Wed Dec  9 16:48:26 2020.
