 Gaussian 16, Revision C.01,
 Gaussian 16:  ES64L-G16RevC.01  3-Jul-2019

 -------------------------------
 # mp2/aug-cc-pvdz MaxDisk=400GB
 -------------------------------

 -----------------
 NDI_-20_b3lyp.pdb
 -----------------
 Symbolic Z-matrix:
 Charge =  0 Multiplicity = 1

                         Standard orientation:
 ---------------------------------------------------------------------
 Center     Atomic      Atomic             Coordinates (Angstroms)
 Number     Number       Type             X           Y           Z
 ---------------------------------------------------------------------
      1          6           0       -2.533162   -3.025895   -0.188004
      2          6           0       -2.240106   -1.572906   -0.075004
      3          6           0       -3.292069   -0.626865   -0.064004
      4          6           0       -4.632085   -1.046814   -0.175004
      5          6           0       -4.961141   -2.491801   -0.303004
      6          6           0       -0.939089   -1.151956   -0.025004
      7          6           0       -2.965016    0.750122    0.073996
      8          6           0       -1.603999    1.176069    0.179996
      9          6           0       -0.556036    0.222029    0.065996
     10          6           0       -1.372944    2.597060    0.549996
     11          6           0       -3.794924    3.121154    0.254996
     12          6           0       -4.041980    1.673164    0.092996
     13          6           0       -5.354997    1.242214   -0.033004
     14          6           0       -5.659049   -0.115774   -0.165004
     15          1           0       -6.681062   -0.456735   -0.256004
     16          1           0       -6.138968    1.989245   -0.021004
     17          1           0       -0.177119   -1.917986   -0.099004
     18          7           0       -2.467910    3.481103    0.493996
     19          7           0       -3.879176   -3.389843   -0.295004
     20          8           0       -1.662194   -3.876928   -0.191004
     21          8           0       -6.106156   -2.887757   -0.407004
     22          8           0       -4.686892    3.951188    0.210996
     23          8           0       -0.300927    3.045019    0.920996
     24          6           0       -2.175856    4.888091    0.799996
     25          1           0       -1.825852    4.982078    1.828996
     26          1           0       -1.391842    5.254061    0.137996
     27          1           0       -3.090834    5.454127    0.656996
     28          6           0       -4.158231   -4.828832   -0.411004
     29          1           0       -3.662247   -5.229851   -1.294004
     30          1           0       -3.774251   -5.348847    0.466996
     31          1           0       -5.234236   -4.954790   -0.488004
     32          6           0        0.869974    0.478974   -0.085004
     33          6           0        1.556017    1.601947   -0.512004
     34         16           0        2.013924   -0.810070    0.291996
     35          6           0        2.948010    1.429894   -0.556004
     36          1           0        1.067053    2.518966   -0.785004
     37          6           0        3.389962    0.170877   -0.138004
     38          8           0        3.864046    2.351858   -0.948004
     39          6           0        4.742944   -0.296176   -0.043004
     40          6           0        3.397096    3.657876   -1.282004
     41          6           0        5.179895   -1.555193    0.360996
     42         16           0        6.135982    0.704771   -0.440004
     43          1           0        4.286119    4.241842   -1.511004
     44          1           0        2.745095    3.627901   -2.160004
     45          1           0        2.864114    4.109897   -0.440004
     46          6           0        6.591889   -1.711247    0.351996
     47          8           0        4.265859   -2.492157    0.716996
     48          6           0        7.228933   -0.572272   -0.058004
     49          1           0        7.110854   -2.616267    0.631996
     50          6           0        4.734809   -3.779175    1.113996
     51          1           0        8.291939   -0.413313   -0.160004
     52          1           0        5.367812   -3.708200    2.003996
     53          1           0        3.844787   -4.361141    1.344996
     54          1           0        5.286791   -4.262197    0.301996
 ---------------------------------------------------------------------

 SCF Done:  E(RHF) =  -2348.40183117     A.U. after   21 cycles
 E2 =    -0.5326627421D+01 EUMP2 =    -0.23537284585910D+04

 The electronic state is 1-A.
 Alpha  occ. eigenvalues --  -91.99097 -91.98969 -20.60723 -20.60214 -20.56792
 Alpha  occ. eigenvalues --  -20.56764 -20.56208 -20.56102 -15.63858 -15.63449
 Alpha  occ. eigenvalues --  -11.39915 -11.39680 -11.39647 -11.39229 -11.31777
 Alpha  occ. eigenvalues --  -11.31616 -11.30971 -11.30296 -11.30004 -11.29897
 Alpha  occ. eigenvalues --  -11.29284 -11.29263 -11.29103 -11.29065 -11.28788
 Alpha  occ. eigenvalues --  -11.28651 -11.28419 -11.28341 -11.28225 -11.28096
 Alpha  occ. eigenvalues --  -11.27986 -11.27523 -11.27314 -11.27111 -11.25684
 Alpha  occ. eigenvalues --  -11.25244  -8.99195  -8.99049  -6.67346  -6.67254
 Alpha  occ. eigenvalues --   -6.67205  -6.67110  -6.67062  -6.66922  -1.43406
 Alpha  occ. eigenvalues --   -1.43044  -1.42669  -1.42202  -1.41452  -1.40965
 Alpha  occ. eigenvalues --   -1.27462  -1.26949  -1.22894  -1.19356  -1.17490
 Alpha  occ. eigenvalues --   -1.15414  -1.12559  -1.07816  -1.05704  -1.04086
 Alpha  occ. eigenvalues --   -1.01037  -1.00056  -0.99808  -0.97748  -0.96853
 Alpha  occ. eigenvalues --   -0.96516  -0.94011  -0.92474  -0.89824  -0.88687
 Alpha  occ. eigenvalues --   -0.88363  -0.86488  -0.81958  -0.79993  -0.78759
 Alpha  occ. eigenvalues --   -0.77850  -0.76399  -0.74988  -0.74548  -0.73004
 Alpha  occ. eigenvalues --   -0.71981  -0.70460  -0.69271  -0.67946  -0.67433
 Alpha  occ. eigenvalues --   -0.66957  -0.66721  -0.66361  -0.66232  -0.65790
 Alpha  occ. eigenvalues --   -0.65309  -0.64979  -0.64185  -0.63882  -0.63615
 Alpha  occ. eigenvalues --   -0.62603  -0.61717  -0.61302  -0.59757  -0.59395
 Alpha  occ. eigenvalues --   -0.59043  -0.57391  -0.57180  -0.56892  -0.56651
 Alpha  occ. eigenvalues --   -0.56435  -0.56418  -0.56278  -0.55586  -0.55509
 Alpha  occ. eigenvalues --   -0.53871  -0.53232  -0.53145  -0.52276  -0.51394
 Alpha  occ. eigenvalues --   -0.51208  -0.49727  -0.48530  -0.48058  -0.47124
 Alpha  occ. eigenvalues --   -0.46643  -0.46246  -0.45855  -0.45655  -0.44891
 Alpha  occ. eigenvalues --   -0.42842  -0.41791  -0.41188  -0.39159  -0.35035
 Alpha  occ. eigenvalues --   -0.34196  -0.33779  -0.32948  -0.25198
 Alpha virt. eigenvalues --   -0.01952   0.02900   0.03223   0.03547   0.04104
 Alpha virt. eigenvalues --    0.04190   0.04279   0.04923   0.05115   0.05323
 Alpha virt. eigenvalues --    0.05532   0.05712   0.06008   0.06468   0.06702

 Mulliken charges:
               1
     1  C    0.109137
     2  C    0.646956
     3  C   -0.606318
     4  C    1.672816
     5  C    0.098024
     6  C    0.844078
     7  C   -0.231031
     8  C    1.055729
     9  C    0.899309
    10  C    0.152347
    11  C   -0.152895
    12  C    1.341452
    13  C    0.309177
    14  C    0.236731
    15  H   -0.634400
    16  H   -0.686677
    17  H   -0.683396
    18  N   -0.960102
    19  N   -0.967439
    20  O   -0.862472
    21  O   -0.888491
    22  O   -0.897980
    23  O   -0.837250
    24  C    0.664327
    25  H   -0.027393
    26  H   -0.052282
    27  H   -0.232633
    28  C    0.664211
    29  H   -0.020511
    30  H   -0.015267
    31  H   -0.221275
    32  C    0.699773
    33  C    0.646017
    34  S    0.435862
    35  C   -0.366634
    36  H   -0.769594
    37  C    0.007159
    38  O   -1.107454
    39  C    1.097708
    40  C    0.935976
    41  C   -0.261467
    42  S    0.360125
    43  H   -0.354936
    44  H   -0.072922
    45  H   -0.033674
    46  C    1.051024
    47  O   -1.127668
    48  C   -0.254229
    49  H   -0.639123
    50  C    0.912742
    51  H   -0.430768
    52  H   -0.056630
    53  H   -0.329559
    54  H   -0.058211
 Sum of Mulliken charges =  -0.00000

 Dipole moment (field-independent basis, Debye):
    X=              3.5463    Y=             -0.5562    Z=             -0.3751  Tot=              3.6092
 Quadrupole moment (field-independent basis, Debye-Ang):
   XX=           -216.2273   YY=           -212.5103   ZZ=           -224.6954
   XY=             -6.5798   XZ=              0.5952   YZ=            -10.0337

 Normal termination of Gaussian 16 at Tue Dec 15 00:34:26 2020.
