 Gaussian 16, Revision C.01,
 Gaussian 16:  ES64L-G16RevC.01  3-Jul-2019

 -------------------------------------
 # opt=modredundant b3lyp/6-311+g(d,p)
 -------------------------------------

 ------------
 NDI_-165.pdb
 ------------
 Symbolic Z-matrix:
 Charge = -2 Multiplicity = 1

 SCF Done:  E(RB3LYP) =  -2359.34149605     A.U. after   23 cycles
 SCF Done:  E(RB3LYP) =  -2359.37243297     A.U. after   20 cycles
 SCF Done:  E(RB3LYP) =  -2359.38707595     A.U. after   16 cycles
 SCF Done:  E(RB3LYP) =  -2359.39011997     A.U. after   15 cycles
 SCF Done:  E(RB3LYP) =  -2359.39121862     A.U. after   17 cycles
 SCF Done:  E(RB3LYP) =  -2359.39177973     A.U. after   17 cycles
 SCF Done:  E(RB3LYP) =  -2359.39155909     A.U. after   17 cycles
 SCF Done:  E(RB3LYP) =  -2359.39243992     A.U. after   14 cycles
 SCF Done:  E(RB3LYP) =  -2359.39308710     A.U. after   17 cycles
 SCF Done:  E(RB3LYP) =  -2359.39294897     A.U. after   16 cycles
 SCF Done:  E(RB3LYP) =  -2359.39822379     A.U. after   12 cycles
 SCF Done:  E(RB3LYP) =  -2359.39823308     A.U. after   13 cycles
 SCF Done:  E(RB3LYP) =  -2359.39823958     A.U. after   12 cycles
 SCF Done:  E(RB3LYP) =  -2359.39824765     A.U. after   12 cycles
 SCF Done:  E(RB3LYP) =  -2359.39825431     A.U. after   12 cycles
 SCF Done:  E(RB3LYP) =  -2359.39825849     A.U. after   13 cycles
 SCF Done:  E(RB3LYP) =  -2359.39825981     A.U. after   12 cycles
 SCF Done:  E(RB3LYP) =  -2359.39825986     A.U. after   10 cycles
 SCF Done:  E(RB3LYP) =  -2359.39825991     A.U. after   10 cycles
 SCF Done:  E(RB3LYP) =  -2359.39825992     A.U. after    9 cycles
 Optimization completed.
    -- Stationary point found.

                         Standard orientation:
 ---------------------------------------------------------------------
 Center     Atomic      Atomic             Coordinates (Angstroms)
 Number     Number       Type             X           Y           Z
 ---------------------------------------------------------------------
      1          6           0       -3.520656   -2.681614    0.047269
      2          6           0       -2.787301   -1.448769   -0.089682
      3          6           0       -3.437006   -0.196422    0.103016
      4          6           0       -4.807376   -0.129974    0.428140
      5          6           0       -5.582713   -1.341665    0.575882
      6          6           0       -1.402637   -1.490399   -0.336021
      7          6           0       -2.662553    1.012760   -0.058749
      8          6           0       -1.274996    0.944894   -0.396832
      9          6           0       -0.610826   -0.358692   -0.468293
     10          6           0       -0.627890    2.157415   -0.809705
     11          6           0       -2.653308    3.497269   -0.140689
     12          6           0       -3.342197    2.252187    0.085893
     13          6           0       -4.727381    2.287074    0.428195
     14          6           0       -5.443554    1.137564    0.600310
     15          1           0       -6.496543    1.150121    0.853376
     16          1           0       -5.185718    3.263194    0.534314
     17          1           0       -0.953182   -2.474042   -0.330561
     18          7           0       -1.329246    3.371595   -0.585544
     19          7           0       -4.888014   -2.555072    0.370563
     20          8           0       -3.047684   -3.826200   -0.096832
     21          8           0       -6.794870   -1.368291    0.862724
     22          8           0       -3.163687    4.628429    0.005563
     23          8           0        0.489750    2.242560   -1.360279
     24          6           0       -0.607757    4.590238   -0.934452
     25          1           0        0.370532    4.592604   -0.450045
     26          1           0       -0.437084    4.641489   -2.014270
     27          1           0       -1.213514    5.432104   -0.608146
     28          6           0       -5.629998   -3.803428    0.505111
     29          1           0       -5.569765   -4.378777   -0.422338
     30          1           0       -5.196476   -4.417994    1.298778
     31          1           0       -6.660980   -3.547931    0.736522
     32          6           0        0.826971   -0.599151   -0.470560
     33          6           0        1.459581   -1.793426   -0.829605
     34         16           0        2.002660    0.481473    0.253277
     35          6           0        2.827029   -1.830119   -0.527226
     36          1           0        0.927982   -2.597393   -1.314981
     37          6           0        3.328961   -0.678864    0.079966
     38          8           0        3.683816   -2.870681   -0.807909
     39          6           0        4.683971   -0.370390    0.418035
     40          6           0        3.126162   -4.024612   -1.406439
     41          6           0        5.234343    0.819640    0.896457
     42         16           0        5.985849   -1.572874    0.303550
     43          1           0        3.948062   -4.732546   -1.525771
     44          1           0        2.349627   -4.469892   -0.773668
     45          1           0        2.695345   -3.798935   -2.389394
     46          6           0        6.626145    0.766116    1.171151
     47          8           0        4.489413    1.953118    1.152012
     48          6           0        7.183078   -0.452595    0.905992
     49          1           0        7.170859    1.617792    1.561147
     50          6           0        4.392776    2.870745    0.057148
     51          1           0        8.208615   -0.768693    1.020014
     52          1           0        3.892460    2.413512   -0.800263
     53          1           0        3.786599    3.706506    0.408111
     54          1           0        5.388748    3.229459   -0.235298
 ---------------------------------------------------------------------

 The electronic state is 1-A.
 Alpha  occ. eigenvalues --  -88.71013 -88.67671 -18.99559 -18.97824 -18.88022
 Alpha  occ. eigenvalues --  -18.87698 -18.86771 -18.86223 -14.15660 -14.14580
 Alpha  occ. eigenvalues --  -10.07734 -10.06461 -10.06096 -10.05640 -10.05626
 Alpha  occ. eigenvalues --  -10.05484 -10.05261 -10.04871 -10.04703 -10.03407
 Alpha  occ. eigenvalues --  -10.02066 -10.01959 -10.01580 -10.01059 -10.00014
 Alpha  occ. eigenvalues --   -9.98445  -9.98407  -9.98378  -9.98257  -9.97035
 Alpha  occ. eigenvalues --   -9.96414  -9.96163  -9.95968  -9.95900  -9.95767
 Alpha  occ. eigenvalues --   -9.95747  -7.79565  -7.76205  -5.75880  -5.75509
 Alpha  occ. eigenvalues --   -5.75116  -5.72540  -5.72138  -5.71730  -0.90847
 Alpha  occ. eigenvalues --   -0.88982  -0.83757  -0.82585  -0.81352  -0.80093
 Alpha  occ. eigenvalues --   -0.72370  -0.71542  -0.71221  -0.69083  -0.66795
 Alpha  occ. eigenvalues --   -0.62286  -0.59906  -0.59287  -0.58073  -0.57507
 Alpha  occ. eigenvalues --   -0.55416  -0.53634  -0.53513  -0.52661  -0.51888
 Alpha  occ. eigenvalues --   -0.50243  -0.49775  -0.47650  -0.43817  -0.42734
 Alpha  occ. eigenvalues --   -0.42386  -0.41782  -0.40488  -0.39628  -0.37804
 Alpha  occ. eigenvalues --   -0.37245  -0.36307  -0.34287  -0.33921  -0.32025
 Alpha  occ. eigenvalues --   -0.31854  -0.31451  -0.30269  -0.29906  -0.29667
 Alpha  occ. eigenvalues --   -0.29085  -0.28067  -0.27661  -0.27330  -0.26684
 Alpha  occ. eigenvalues --   -0.26224  -0.25459  -0.25230  -0.25074  -0.24451
 Alpha  occ. eigenvalues --   -0.23446  -0.23025  -0.22585  -0.22018  -0.21412
 Alpha  occ. eigenvalues --   -0.21287  -0.20962  -0.20879  -0.20341  -0.19839
 Alpha  occ. eigenvalues --   -0.19559  -0.19312  -0.18773  -0.18471  -0.18288
 Alpha  occ. eigenvalues --   -0.17900  -0.17786  -0.16657  -0.16509  -0.16289
 Alpha  occ. eigenvalues --   -0.15278  -0.14889  -0.14353  -0.12556  -0.11788
 Alpha  occ. eigenvalues --   -0.11472  -0.09666  -0.08557  -0.07238  -0.07029
 Alpha  occ. eigenvalues --   -0.06601  -0.06151  -0.05783  -0.05147  -0.04913
 Alpha  occ. eigenvalues --   -0.04670  -0.03302  -0.01783   0.00085   0.06452
 Alpha virt. eigenvalues --    0.12199   0.12989   0.13808   0.14618   0.15728
 Alpha virt. eigenvalues --    0.15970   0.16583   0.16604   0.16863   0.17432
 Alpha virt. eigenvalues --    0.17529   0.18078   0.18694   0.18956   0.19055

 Mulliken charges:
               1
     1  C    0.232950
     2  C   -0.078407
     3  C    0.132052
     4  C    0.236834
     5  C    0.102610
     6  C    0.073489
     7  C    0.092591
     8  C    0.242756
     9  C    0.265255
    10  C   -0.664040
    11  C    0.203489
    12  C    0.099504
    13  C   -0.499378
    14  C   -0.585213
    15  H    0.103147
    16  H    0.107666
    17  H    0.123517
    18  N   -0.036681
    19  N   -0.136717
    20  O   -0.429448
    21  O   -0.404517
    22  O   -0.421399
    23  O   -0.352514
    24  C   -0.155595
    25  H    0.140789
    26  H    0.134292
    27  H    0.156194
    28  C   -0.179689
    29  H    0.134369
    30  H    0.135278
    31  H    0.157048
    32  C    0.134390
    33  C   -0.678794
    34  S   -0.788442
    35  C   -0.511023
    36  H    0.112604
    37  C    0.678990
    38  O   -0.130662
    39  C    0.434709
    40  C   -0.229483
    41  C    0.043121
    42  S   -0.357409
    43  H    0.132310
    44  H    0.143484
    45  H    0.133047
    46  C   -0.040989
    47  O   -0.141351
    48  C   -0.213113
    49  H    0.092944
    50  C   -0.298434
    51  H    0.118630
    52  H    0.190391
    53  H    0.144615
    54  H    0.100233
 Sum of Mulliken charges =  -2.00000

 Dipole moment (field-independent basis, Debye):
    X=             14.2225    Y=             -3.3748    Z=             -1.7137  Tot=             14.7175
 Quadrupole moment (field-independent basis, Debye-Ang):
   XX=           -420.9581   YY=           -303.3571   ZZ=           -242.2891
   XY=              6.1563   XZ=              4.2965   YZ=              5.0172

 Normal termination of Gaussian 16 at Tue Oct  5 22:54:44 2021.
