 Gaussian 16, Revision C.01,
 Gaussian 16:  ES64L-G16RevC.01  3-Jul-2019

 -------------------------------------
 # opt=modredundant b3lyp/6-311+g(d,p)
 -------------------------------------

 ----------
 NDI_65.pdb
 ----------
 Symbolic Z-matrix:
 Charge = -2 Multiplicity = 1

 SCF Done:  E(RB3LYP) =  -2359.37235275     A.U. after   24 cycles
 SCF Done:  E(RB3LYP) =  -2359.38986178     A.U. after   17 cycles
 SCF Done:  E(RB3LYP) =  -2359.39362046     A.U. after   17 cycles
 SCF Done:  E(RB3LYP) =  -2359.39404507     A.U. after   14 cycles
 SCF Done:  E(RB3LYP) =  -2359.39416033     A.U. after   14 cycles
 SCF Done:  E(RB3LYP) =  -2359.39429348     A.U. after   12 cycles
 SCF Done:  E(RB3LYP) =  -2359.39436538     A.U. after   13 cycles
 SCF Done:  E(RB3LYP) =  -2359.39441361     A.U. after   14 cycles
 SCF Done:  E(RB3LYP) =  -2359.39443795     A.U. after   13 cycles
 SCF Done:  E(RB3LYP) =  -2359.39454198     A.U. after   14 cycles
 SCF Done:  E(RB3LYP) =  -2359.39770976     A.U. after   14 cycles
 SCF Done:  E(RB3LYP) =  -2359.39771642     A.U. after   13 cycles
 SCF Done:  E(RB3LYP) =  -2359.39771804     A.U. after   12 cycles
 SCF Done:  E(RB3LYP) =  -2359.39771902     A.U. after   11 cycles
 SCF Done:  E(RB3LYP) =  -2359.39771944     A.U. after   11 cycles
 SCF Done:  E(RB3LYP) =  -2359.39771990     A.U. after   10 cycles
 SCF Done:  E(RB3LYP) =  -2359.39772038     A.U. after   10 cycles
 SCF Done:  E(RB3LYP) =  -2359.39772075     A.U. after   10 cycles
 SCF Done:  E(RB3LYP) =  -2359.39772096     A.U. after   11 cycles
 SCF Done:  E(RB3LYP) =  -2359.39772102     A.U. after    9 cycles
 Optimization completed.
    -- Stationary point found.

                         Standard orientation:
 ---------------------------------------------------------------------
 Center     Atomic      Atomic             Coordinates (Angstroms)
 Number     Number       Type             X           Y           Z
 ---------------------------------------------------------------------
      1          6           0       -2.677120   -2.905430    0.491669
      2          6           0       -2.318277   -1.530216    0.269230
      3          6           0       -3.324954   -0.546837    0.063192
      4          6           0       -4.694780   -0.895718    0.056710
      5          6           0       -5.100917   -2.263391    0.269076
      6          6           0       -0.953830   -1.154435    0.273504
      7          6           0       -2.925192    0.827976   -0.147177
      8          6           0       -1.541300    1.185790   -0.130118
      9          6           0       -0.543330    0.155816    0.132391
     10          6           0       -1.175568    2.550606   -0.389294
     11          6           0       -3.610767    3.166852   -0.624711
     12          6           0       -3.944198    1.789427   -0.380536
     13          6           0       -5.321305    1.402506   -0.382903
     14          6           0       -5.689618    0.107165   -0.168115
     15          1           0       -6.728389   -0.200153   -0.167485
     16          1           0       -6.053902    2.179842   -0.564704
     17          1           0       -0.227612   -1.935707    0.458988
     18          7           0       -2.235440    3.460213   -0.632602
     19          7           0       -4.058317   -3.195442    0.473907
     20          8           0       -1.876068   -3.841203    0.692553
     21          8           0       -6.286749   -2.653566    0.281694
     22          8           0       -4.444923    4.076481   -0.827899
     23          8           0       -0.013421    3.008607   -0.427943
     24          6           0       -1.833034    4.835116   -0.905897
     25          1           0       -1.320782    5.264220   -0.039332
     26          1           0       -1.130163    4.859230   -1.741686
     27          1           0       -2.735013    5.398619   -1.131745
     28          6           0       -4.418407   -4.591017    0.694366
     29          1           0       -3.946830   -5.225446   -0.060753
     30          1           0       -4.057846   -4.925679    1.671074
     31          1           0       -5.501904   -4.661431    0.638831
     32          6           0        0.899248    0.410816    0.224838
     33          6           0        1.609298    1.154679    1.145735
     34         16           0        2.001923   -0.544634   -0.747344
     35          6           0        3.002055    0.973807    1.065946
     36          1           0        1.113233    1.826227    1.828573
     37          6           0        3.430268    0.060034    0.104762
     38          8           0        3.933675    1.592109    1.865012
     39          6           0        4.766780   -0.351122   -0.203658
     40          6           0        3.479677    2.677046    2.657746
     41          6           0        5.205277   -1.368140   -1.048517
     42         16           0        6.190677    0.466737    0.464881
     43          1           0        4.370500    3.112940    3.113039
     44          1           0        2.968452    3.427717    2.046169
     45          1           0        2.799759    2.337801    3.448235
     46          6           0        6.615861   -1.477402   -1.171502
     47          8           0        4.345588   -2.182597   -1.758685
     48          6           0        7.291490   -0.559543   -0.419095
     49          1           0        7.087137   -2.216871   -1.807718
     50          6           0        3.964099   -3.380159   -1.076697
     51          1           0        8.356873   -0.421316   -0.316557
     52          1           0        3.480413   -3.154547   -0.122184
     53          1           0        3.250493   -3.892836   -1.722567
     54          1           0        4.836718   -4.023660   -0.903422
 ---------------------------------------------------------------------

 The electronic state is 1-A.
 Alpha  occ. eigenvalues --  -88.71806 -88.68754 -18.99885 -18.98868 -18.87152
 Alpha  occ. eigenvalues --  -18.86854 -18.86485 -18.86054 -14.14961 -14.14459
 Alpha  occ. eigenvalues --  -10.07763 -10.06896 -10.06395 -10.06269 -10.05613
 Alpha  occ. eigenvalues --  -10.05501 -10.05276 -10.04959 -10.04784 -10.04248
 Alpha  occ. eigenvalues --  -10.02752 -10.02487 -10.02461 -10.00441  -9.99926
 Alpha  occ. eigenvalues --   -9.98678  -9.98144  -9.98037  -9.98035  -9.96416
 Alpha  occ. eigenvalues --   -9.95971  -9.95690  -9.95544  -9.95404  -9.95364
 Alpha  occ. eigenvalues --   -9.95301  -7.80358  -7.77318  -5.76671  -5.76298
 Alpha  occ. eigenvalues --   -5.75912  -5.73647  -5.73252  -5.72856  -0.91163
 Alpha  occ. eigenvalues --   -0.90077  -0.82896  -0.82332  -0.80443  -0.79809
 Alpha  occ. eigenvalues --   -0.72409  -0.71596  -0.71000  -0.69790  -0.66412
 Alpha  occ. eigenvalues --   -0.62166  -0.59960  -0.59169  -0.58875  -0.58056
 Alpha  occ. eigenvalues --   -0.55227  -0.54384  -0.52966  -0.52783  -0.52226
 Alpha  occ. eigenvalues --   -0.50370  -0.49621  -0.47338  -0.43926  -0.42826
 Alpha  occ. eigenvalues --   -0.42200  -0.41792  -0.40319  -0.39783  -0.38595
 Alpha  occ. eigenvalues --   -0.37222  -0.36853  -0.33901  -0.33583  -0.31996
 Alpha  occ. eigenvalues --   -0.31798  -0.31478  -0.31069  -0.31009  -0.30134
 Alpha  occ. eigenvalues --   -0.29473  -0.28859  -0.27012  -0.26956  -0.26493
 Alpha  occ. eigenvalues --   -0.26300  -0.25723  -0.25037  -0.24738  -0.24638
 Alpha  occ. eigenvalues --   -0.23646  -0.23048  -0.22306  -0.22243  -0.21570
 Alpha  occ. eigenvalues --   -0.20909  -0.20773  -0.20607  -0.20360  -0.20181
 Alpha  occ. eigenvalues --   -0.19433  -0.19187  -0.18916  -0.18695  -0.17892
 Alpha  occ. eigenvalues --   -0.17853  -0.17213  -0.17023  -0.16289  -0.16085
 Alpha  occ. eigenvalues --   -0.15440  -0.14854  -0.14765  -0.12617  -0.12085
 Alpha  occ. eigenvalues --   -0.11273  -0.10077  -0.09262  -0.06717  -0.06563
 Alpha  occ. eigenvalues --   -0.06211  -0.05952  -0.05421  -0.05284  -0.04383
 Alpha  occ. eigenvalues --   -0.04202  -0.03480  -0.01514  -0.00465   0.06884
 Alpha virt. eigenvalues --    0.11749   0.12574   0.13596   0.14148   0.15547
 Alpha virt. eigenvalues --    0.16069   0.16502   0.16850   0.16948   0.17041
 Alpha virt. eigenvalues --    0.17205   0.17777   0.18318   0.18409   0.18702

 Mulliken charges:
               1
     1  C    0.295531
     2  C   -0.108530
     3  C    0.048872
     4  C    0.229752
     5  C    0.126492
     6  C   -0.765405
     7  C    0.209222
     8  C    0.113000
     9  C    0.617407
    10  C   -0.347206
    11  C    0.233241
    12  C    0.163592
    13  C   -0.547340
    14  C   -0.633824
    15  H    0.102479
    16  H    0.105541
    17  H    0.139546
    18  N   -0.152439
    19  N   -0.136918
    20  O   -0.430533
    21  O   -0.415598
    22  O   -0.424900
    23  O   -0.313556
    24  C   -0.192397
    25  H    0.128862
    26  H    0.140423
    27  H    0.158155
    28  C   -0.179816
    29  H    0.134201
    30  H    0.132602
    31  H    0.157344
    32  C   -0.012471
    33  C   -0.343343
    34  S   -0.443915
    35  C   -0.528548
    36  H    0.113154
    37  C    0.477797
    38  O   -0.127713
    39  C    0.449187
    40  C   -0.265881
    41  C    0.145820
    42  S   -0.356963
    43  H    0.129817
    44  H    0.164663
    45  H    0.129121
    46  C   -0.135415
    47  O   -0.136116
    48  C   -0.180536
    49  H    0.095332
    50  C   -0.311767
    51  H    0.121504
    52  H    0.171178
    53  H    0.150861
    54  H    0.106431
 Sum of Mulliken charges =  -2.00000

 Dipole moment (field-independent basis, Debye):
    X=             16.7472    Y=             -0.4789    Z=              2.6285  Tot=             16.9589
 Quadrupole moment (field-independent basis, Debye-Ang):
   XX=           -425.2686   YY=           -308.6570   ZZ=           -237.4765
   XY=              0.0221   XZ=              3.0738   YZ=             17.8803

 Normal termination of Gaussian 16 at Fri Oct  8 11:05:09 2021.
