 Gaussian 16, Revision C.01,
 Gaussian 16:  ES64L-G16RevC.01  3-Jul-2019

 -------------------------------------
 # opt=modredundant b3lyp/6-311+g(d,p)
 -------------------------------------

 ----------
 NDI_-5.pdb
 ----------
 Symbolic Z-matrix:
 Charge = -2 Multiplicity = 1

 SCF Done:  E(RB3LYP) =  -2359.36572610     A.U. after   23 cycles
 SCF Done:  E(RB3LYP) =  -2359.36838204     A.U. after   20 cycles
 SCF Done:  E(RB3LYP) =  -2359.37980875     A.U. after   15 cycles
 SCF Done:  E(RB3LYP) =  -2359.38960319     A.U. after   16 cycles
 SCF Done:  E(RB3LYP) =  -2359.39436523     A.U. after   17 cycles
 SCF Done:  E(RB3LYP) =  -2359.39542466     A.U. after   18 cycles
 SCF Done:  E(RB3LYP) =  -2359.39575486     A.U. after   15 cycles
 SCF Done:  E(RB3LYP) =  -2359.39607974     A.U. after   15 cycles
 SCF Done:  E(RB3LYP) =  -2359.39623233     A.U. after   14 cycles
 SCF Done:  E(RB3LYP) =  -2359.39626351     A.U. after   14 cycles
 SCF Done:  E(RB3LYP) =  -2359.39949295     A.U. after   13 cycles
 SCF Done:  E(RB3LYP) =  -2359.39950111     A.U. after   14 cycles
 SCF Done:  E(RB3LYP) =  -2359.39951531     A.U. after   13 cycles
 SCF Done:  E(RB3LYP) =  -2359.39952467     A.U. after   12 cycles
 SCF Done:  E(RB3LYP) =  -2359.39952807     A.U. after   13 cycles
 SCF Done:  E(RB3LYP) =  -2359.39952847     A.U. after   10 cycles
 SCF Done:  E(RB3LYP) =  -2359.39952871     A.U. after   10 cycles
 SCF Done:  E(RB3LYP) =  -2359.39952941     A.U. after   12 cycles
 SCF Done:  E(RB3LYP) =  -2359.39952953     A.U. after   10 cycles
 SCF Done:  E(RB3LYP) =  -2359.39952963     A.U. after   10 cycles
 Optimization completed.
    -- Stationary point found.

                         Standard orientation:
 ---------------------------------------------------------------------
 Center     Atomic      Atomic             Coordinates (Angstroms)
 Number     Number       Type             X           Y           Z
 ---------------------------------------------------------------------
      1          6           0       -2.584951   -2.990014    0.238307
      2          6           0       -2.272477   -1.581358    0.232464
      3          6           0       -3.285793   -0.616085   -0.034488
      4          6           0       -4.611068   -1.012852   -0.302515
      5          6           0       -4.969098   -2.415527   -0.311689
      6          6           0       -0.940215   -1.168378    0.387918
      7          6           0       -2.927790    0.784623   -0.003432
      8          6           0       -1.583003    1.189288    0.278311
      9          6           0       -0.528675    0.158021    0.374387
     10          6           0       -1.369144    2.571658    0.602588
     11          6           0       -3.720225    3.138735   -0.112185
     12          6           0       -3.973064    1.725481   -0.215222
     13          6           0       -5.301581    1.292548   -0.503995
     14          6           0       -5.619676   -0.033622   -0.552437
     15          1           0       -6.625512   -0.376768   -0.760460
     16          1           0       -6.046019    2.062532   -0.668311
     17          1           0       -0.210163   -1.967360    0.443604
     18          7           0       -2.428990    3.475641    0.313347
     19          7           0       -3.928692   -3.326881   -0.030438
     20          8           0       -1.775029   -3.910000    0.453493
     21          8           0       -6.115457   -2.842556   -0.544053
     22          8           0       -4.564460    4.032218   -0.339607
     23          8           0       -0.348917    3.071856    1.127692
     24          6           0       -2.145165    4.882659    0.573174
     25          1           0       -1.951454    5.044196    1.637303
     26          1           0       -1.248635    5.191549    0.030359
     27          1           0       -3.012915    5.452932    0.250660
     28          6           0       -4.243241   -4.751157   -0.021672
     29          1           0       -3.661743   -5.272703   -0.786888
     30          1           0       -3.977222   -5.187918    0.944053
     31          1           0       -5.308243   -4.852765   -0.214263
     32          6           0        0.893325    0.391703    0.202890
     33          6           0        1.578801    1.542340   -0.166623
     34         16           0        2.072881   -0.912259    0.485096
     35          6           0        2.969668    1.378800   -0.261223
     36          1           0        1.068268    2.478421   -0.303518
     37          6           0        3.453811    0.108312    0.038614
     38          8           0        3.856330    2.363830   -0.617447
     39          6           0        4.798715   -0.367663   -0.000042
     40          6           0        3.325116    3.662255   -0.836549
     41          6           0        5.295367   -1.654854    0.213098
     42         16           0        6.175010    0.706020   -0.328818
     43          1           0        4.181846    4.306159   -1.041972
     44          1           0        2.644830    3.673445   -1.695579
     45          1           0        2.786788    4.026325    0.044083
     46          6           0        6.706897   -1.773855    0.129127
     47          8           0        4.489326   -2.729895    0.536395
     48          6           0        7.331110   -0.593310   -0.159095
     49          1           0        7.219651   -2.715013    0.289108
     50          6           0        4.071559   -3.518153   -0.579132
     51          1           0        8.384995   -0.396803   -0.282722
     52          1           0        4.934441   -3.986600   -1.071515
     53          1           0        3.408510   -4.289394   -0.185046
     54          1           0        3.520528   -2.912909   -1.304973
 ---------------------------------------------------------------------

 The electronic state is 1-A.
 Alpha  occ. eigenvalues --  -88.71149 -88.67780 -18.99297 -18.98314 -18.88253
 Alpha  occ. eigenvalues --  -18.87807 -18.86921 -18.86326 -14.15783 -14.14777
 Alpha  occ. eigenvalues --  -10.06953 -10.06685 -10.06481 -10.06258 -10.05687
 Alpha  occ. eigenvalues --  -10.05668 -10.05382 -10.05126 -10.04904 -10.03543
 Alpha  occ. eigenvalues --  -10.02174 -10.01987 -10.01819 -10.01137 -10.00284
 Alpha  occ. eigenvalues --   -9.98643  -9.98576  -9.98337  -9.97379  -9.97181
 Alpha  occ. eigenvalues --   -9.96622  -9.96339  -9.96274  -9.96057  -9.95922
 Alpha  occ. eigenvalues --   -9.95881  -7.79696  -7.76355  -5.76012  -5.75640
 Alpha  occ. eigenvalues --   -5.75245  -5.72700  -5.72317  -5.71847  -0.90566
 Alpha  occ. eigenvalues --   -0.89504  -0.83980  -0.82744  -0.81589  -0.80206
 Alpha  occ. eigenvalues --   -0.72543  -0.71696  -0.71351  -0.68942  -0.66895
 Alpha  occ. eigenvalues --   -0.62339  -0.60043  -0.59339  -0.58286  -0.57441
 Alpha  occ. eigenvalues --   -0.55289  -0.54138  -0.53274  -0.52857  -0.52068
 Alpha  occ. eigenvalues --   -0.50360  -0.49848  -0.47673  -0.44195  -0.42835
 Alpha  occ. eigenvalues --   -0.42455  -0.41919  -0.40633  -0.39643  -0.38005
 Alpha  occ. eigenvalues --   -0.37150  -0.36224  -0.34409  -0.34020  -0.31967
 Alpha  occ. eigenvalues --   -0.31368  -0.31233  -0.30758  -0.30519  -0.29883
 Alpha  occ. eigenvalues --   -0.28953  -0.28449  -0.27782  -0.27229  -0.26860
 Alpha  occ. eigenvalues --   -0.26343  -0.25671  -0.25276  -0.25145  -0.24301
 Alpha  occ. eigenvalues --   -0.23569  -0.23059  -0.22603  -0.22433  -0.21494
 Alpha  occ. eigenvalues --   -0.21437  -0.21015  -0.20852  -0.20361  -0.19790
 Alpha  occ. eigenvalues --   -0.19478  -0.19432  -0.19276  -0.18658  -0.18560
 Alpha  occ. eigenvalues --   -0.18059  -0.17828  -0.16870  -0.16337  -0.16137
 Alpha  occ. eigenvalues --   -0.15468  -0.15014  -0.14603  -0.12858  -0.11944
 Alpha  occ. eigenvalues --   -0.11635  -0.09777  -0.08748  -0.07370  -0.07171
 Alpha  occ. eigenvalues --   -0.06669  -0.06254  -0.05762  -0.05359  -0.05089
 Alpha  occ. eigenvalues --   -0.04932  -0.03596  -0.01975   0.00116   0.06279
 Alpha virt. eigenvalues --    0.11878   0.12909   0.14058   0.14569   0.15530
 Alpha virt. eigenvalues --    0.15847   0.16551   0.16614   0.16767   0.17270
 Alpha virt. eigenvalues --    0.17590   0.18101   0.18628   0.18886   0.18988

 Mulliken charges:
               1
     1  C    0.134004
     2  C    0.071924
     3  C    0.274781
     4  C    0.267056
     5  C    0.116893
     6  C    0.204845
     7  C    0.184593
     8  C    0.450594
     9  C    0.004611
    10  C   -0.928285
    11  C    0.099835
    12  C    0.263935
    13  C   -0.478629
    14  C   -0.598352
    15  H    0.103567
    16  H    0.108940
    17  H    0.133258
    18  N   -0.050018
    19  N   -0.133157
    20  O   -0.418061
    21  O   -0.403315
    22  O   -0.420874
    23  O   -0.396723
    24  C   -0.141167
    25  H    0.137250
    26  H    0.129421
    27  H    0.157056
    28  C   -0.179010
    29  H    0.136165
    30  H    0.136761
    31  H    0.156328
    32  C   -0.246127
    33  C    0.080314
    34  S   -0.911759
    35  C   -0.740841
    36  H    0.160519
    37  C    0.367246
    38  O   -0.120426
    39  C    0.479583
    40  C   -0.257133
    41  C    0.039356
    42  S   -0.350921
    43  H    0.129095
    44  H    0.135154
    45  H    0.165901
    46  C   -0.033950
    47  O   -0.142417
    48  C   -0.219980
    49  H    0.092643
    50  C   -0.289127
    51  H    0.119130
    52  H    0.103561
    53  H    0.151106
    54  H    0.164843
 Sum of Mulliken charges =  -2.00000

 Dipole moment (field-independent basis, Debye):
    X=             14.1259    Y=              0.0601    Z=             -2.1269  Tot=             14.2853
 Quadrupole moment (field-independent basis, Debye-Ang):
   XX=           -423.2502   YY=           -306.8601   ZZ=           -240.8381
   XY=              5.6336   XZ=            -15.1867   YZ=              0.2346

 Normal termination of Gaussian 16 at Fri Oct  8 13:00:31 2021.
