 Gaussian 16, Revision C.01,
 Gaussian 16:  ES64L-G16RevC.01  3-Jul-2019

 -------------------------------------
 # opt=modredundant b3lyp/6-311+g(d,p)
 -------------------------------------

 -----------
 NDI_140.pdb
 -----------
 Symbolic Z-matrix:
 Charge = -2 Multiplicity = 1

 SCF Done:  E(RB3LYP) =  -2359.36734779     A.U. after   22 cycles
 SCF Done:  E(RB3LYP) =  -2359.38161473     A.U. after   23 cycles
 SCF Done:  E(RB3LYP) =  -2359.39012402     A.U. after   17 cycles
 SCF Done:  E(RB3LYP) =  -2359.39299039     A.U. after   17 cycles
 SCF Done:  E(RB3LYP) =  -2359.39362260     A.U. after   17 cycles
 SCF Done:  E(RB3LYP) =  -2359.39422927     A.U. after   13 cycles
 SCF Done:  E(RB3LYP) =  -2359.39433021     A.U. after   13 cycles
 SCF Done:  E(RB3LYP) =  -2359.39436799     A.U. after   13 cycles
 SCF Done:  E(RB3LYP) =  -2359.39439409     A.U. after   12 cycles
 SCF Done:  E(RB3LYP) =  -2359.39442701     A.U. after   13 cycles
 SCF Done:  E(RB3LYP) =  -2359.39891280     A.U. after   12 cycles
 SCF Done:  E(RB3LYP) =  -2359.39891312     A.U. after   11 cycles
 SCF Done:  E(RB3LYP) =  -2359.39891326     A.U. after   10 cycles
 SCF Done:  E(RB3LYP) =  -2359.39891335     A.U. after   10 cycles
 SCF Done:  E(RB3LYP) =  -2359.39891339     A.U. after   10 cycles
 SCF Done:  E(RB3LYP) =  -2359.39891347     A.U. after   10 cycles
 SCF Done:  E(RB3LYP) =  -2359.39891355     A.U. after    9 cycles
 SCF Done:  E(RB3LYP) =  -2359.39891365     A.U. after   10 cycles
 SCF Done:  E(RB3LYP) =  -2359.39891368     A.U. after   10 cycles
 SCF Done:  E(RB3LYP) =  -2359.39891369     A.U. after   10 cycles
 Optimization completed.
    -- Stationary point found.

                         Standard orientation:
 ---------------------------------------------------------------------
 Center     Atomic      Atomic             Coordinates (Angstroms)
 Number     Number       Type             X           Y           Z
 ---------------------------------------------------------------------
      1          6           0        3.525766   -2.692707    0.259396
      2          6           0        2.788365   -1.473548    0.058899
      3          6           0        3.446158   -0.212607    0.126981
      4          6           0        4.830855   -0.126360    0.389700
      5          6           0        5.609525   -1.323670    0.603040
      6          6           0        1.391594   -1.527668   -0.146905
      7          6           0        2.673473    0.989025   -0.100599
      8          6           0        1.273331    0.903405   -0.374581
      9          6           0        0.615934   -0.397040   -0.322769
     10          6           0        0.589435    2.086474   -0.816336
     11          6           0        2.660062    3.457355   -0.376312
     12          6           0        3.358628    2.232473   -0.084259
     13          6           0        4.759318    2.286146    0.193620
     14          6           0        5.476049    1.149034    0.428709
     15          1           0        6.539219    1.174473    0.634420
     16          1           0        5.226189    3.263946    0.199590
     17          1           0        0.922298   -2.501165   -0.077981
     18          7           0        1.310941    3.306287   -0.738207
     19          7           0        4.904839   -2.546012    0.521729
     20          8           0        3.048144   -3.844884    0.218703
     21          8           0        6.833433   -1.333837    0.843797
     22          8           0        3.178370    4.594610   -0.348921
     23          8           0       -0.572319    2.140095   -1.271038
     24          6           0        0.572503    4.500215   -1.133244
     25          1           0        0.286627    4.442025   -2.187637
     26          1           0       -0.348681    4.579441   -0.551466
     27          1           0        1.220841    5.355685   -0.960155
     28          6           0        5.649542   -3.783003    0.725608
     29          1           0        5.235780   -4.338304    1.571724
     30          1           0        5.565594   -4.423774   -0.156283
     31          1           0        6.686382   -3.513545    0.910737
     32          6           0       -0.826519   -0.619373   -0.350554
     33          6           0       -1.489966   -1.628319   -1.034885
     34         16           0       -1.963475    0.284121    0.627002
     35          6           0       -2.875793   -1.662205   -0.788287
     36          1           0       -0.968524   -2.286199   -1.714044
     37          6           0       -3.342135   -0.679938    0.081147
     38          8           0       -3.770478   -2.539468   -1.355814
     39          6           0       -4.694582   -0.391546    0.456900
     40          6           0       -3.251945   -3.498310   -2.258244
     41          6           0       -5.208586    0.704475    1.147742
     42         16           0       -6.031219   -1.501643    0.102744
     43          1           0       -4.102626   -4.098379   -2.585263
     44          1           0       -2.788176   -3.019561   -3.128785
     45          1           0       -2.512756   -4.146835   -1.773874
     46          6           0       -6.606073    0.649267    1.396178
     47          8           0       -4.436503    1.748762    1.611467
     48          6           0       -7.197632   -0.476868    0.899243
     49          1           0       -7.128487    1.433275    1.931069
     50          6           0       -4.221850    2.806221    0.666575
     51          1           0       -8.236859   -0.766181    0.930957
     52          1           0       -5.180614    3.234623    0.346454
     53          1           0       -3.633289    3.564306    1.184385
     54          1           0       -3.656199    2.456802   -0.200583
 ---------------------------------------------------------------------

 The electronic state is 1-A.
 Alpha  occ. eigenvalues --  -88.71498 -88.68035 -18.99944 -18.98147 -18.87491
 Alpha  occ. eigenvalues --  -18.87170 -18.86584 -18.86100 -14.15228 -14.14445
 Alpha  occ. eigenvalues --  -10.08051 -10.06106 -10.06007 -10.05944 -10.05747
 Alpha  occ. eigenvalues --  -10.05580 -10.05120 -10.05074 -10.04758 -10.03925
 Alpha  occ. eigenvalues --  -10.02363 -10.02220 -10.02185 -10.00687  -9.99919
 Alpha  occ. eigenvalues --   -9.98765  -9.98216  -9.98174  -9.97940  -9.96666
 Alpha  occ. eigenvalues --   -9.95971  -9.95849  -9.95764  -9.95586  -9.95506
 Alpha  occ. eigenvalues --   -9.95466  -7.80054  -7.76603  -5.76367  -5.75995
 Alpha  occ. eigenvalues --   -5.75608  -5.72937  -5.72543  -5.72124  -0.91238
 Alpha  occ. eigenvalues --   -0.89295  -0.83220  -0.82388  -0.80783  -0.79894
 Alpha  occ. eigenvalues --   -0.72042  -0.71887  -0.71046  -0.69495  -0.66545
 Alpha  occ. eigenvalues --   -0.62221  -0.59867  -0.59248  -0.58427  -0.57896
 Alpha  occ. eigenvalues --   -0.55370  -0.53906  -0.53253  -0.52420  -0.52121
 Alpha  occ. eigenvalues --   -0.50274  -0.49688  -0.47497  -0.43685  -0.42786
 Alpha  occ. eigenvalues --   -0.42290  -0.41782  -0.40307  -0.39790  -0.38105
 Alpha  occ. eigenvalues --   -0.37235  -0.36656  -0.34018  -0.33705  -0.32192
 Alpha  occ. eigenvalues --   -0.31837  -0.31557  -0.30456  -0.30153  -0.29900
 Alpha  occ. eigenvalues --   -0.29324  -0.28340  -0.27248  -0.27201  -0.26527
 Alpha  occ. eigenvalues --   -0.26111  -0.25459  -0.25170  -0.24808  -0.24663
 Alpha  occ. eigenvalues --   -0.23502  -0.23097  -0.22420  -0.21928  -0.21509
 Alpha  occ. eigenvalues --   -0.21119  -0.20822  -0.20693  -0.20380  -0.20004
 Alpha  occ. eigenvalues --   -0.19480  -0.19095  -0.18832  -0.18611  -0.18029
 Alpha  occ. eigenvalues --   -0.17856  -0.17395  -0.16834  -0.16359  -0.16032
 Alpha  occ. eigenvalues --   -0.15509  -0.14851  -0.14690  -0.12271  -0.11909
 Alpha  occ. eigenvalues --   -0.11433  -0.09834  -0.08889  -0.06839  -0.06729
 Alpha  occ. eigenvalues --   -0.06295  -0.06002  -0.05621  -0.05041  -0.04513
 Alpha  occ. eigenvalues --   -0.04462  -0.03377  -0.01579  -0.00301   0.06709
 Alpha virt. eigenvalues --    0.11999   0.12774   0.13522   0.14447   0.15791
 Alpha virt. eigenvalues --    0.15961   0.16450   0.16827   0.16916   0.17320
 Alpha virt. eigenvalues --    0.17429   0.17881   0.18511   0.18593   0.19018

 Mulliken charges:
               1
     1  C    0.238272
     2  C   -0.135216
     3  C    0.082385
     4  C    0.314218
     5  C    0.153740
     6  C   -0.263334
     7  C    0.205895
     8  C    0.079081
     9  C    0.142374
    10  C   -0.382735
    11  C    0.222248
    12  C    0.254661
    13  C   -0.491790
    14  C   -0.627346
    15  H    0.103034
    16  H    0.106410
    17  H    0.123795
    18  N   -0.070587
    19  N   -0.135564
    20  O   -0.431987
    21  O   -0.412423
    22  O   -0.423594
    23  O   -0.349407
    24  C   -0.159668
    25  H    0.135152
    26  H    0.137576
    27  H    0.157122
    28  C   -0.180799
    29  H    0.134908
    30  H    0.132659
    31  H    0.157359
    32  C   -0.173140
    33  C   -0.362485
    34  S   -0.414082
    35  C   -0.456450
    36  H    0.114747
    37  C    0.243591
    38  O   -0.121023
    39  C    0.452594
    40  C   -0.237872
    41  C    0.103871
    42  S   -0.334802
    43  H    0.132071
    44  H    0.136520
    45  H    0.142967
    46  C   -0.054298
    47  O   -0.152717
    48  C   -0.188397
    49  H    0.094972
    50  C   -0.307847
    51  H    0.120816
    52  H    0.101878
    53  H    0.141572
    54  H    0.201075
 Sum of Mulliken charges =  -2.00000

 Dipole moment (field-independent basis, Debye):
    X=            -15.7078    Y=             -2.8062    Z=             -2.0717  Tot=             16.0904
 Quadrupole moment (field-independent basis, Debye-Ang):
   XX=           -422.2886   YY=           -305.2279   ZZ=           -240.4613
   XY=             -5.6443   XZ=             -2.5041   YZ=             12.4229

 Normal termination of Gaussian 16 at Fri Oct  8 20:15:48 2021.
