 Gaussian 16, Revision C.01,
 Gaussian 16:  ES64L-G16RevC.01  3-Jul-2019

 -------------------------------------
 # opt=modredundant b3lyp/6-311+g(d,p)
 -------------------------------------

 -----------
 NDI_-95.pdb
 -----------
 Symbolic Z-matrix:
 Charge = -2 Multiplicity = 1

 SCF Done:  E(RB3LYP) =  -2359.36792935     A.U. after   31 cycles
 SCF Done:  E(RB3LYP) =  -2359.38686316     A.U. after   18 cycles
 SCF Done:  E(RB3LYP) =  -2359.38987753     A.U. after   16 cycles
 SCF Done:  E(RB3LYP) =  -2359.39005660     A.U. after   15 cycles
 SCF Done:  E(RB3LYP) =  -2359.39016982     A.U. after   17 cycles
 SCF Done:  E(RB3LYP) =  -2359.39021896     A.U. after   13 cycles
 SCF Done:  E(RB3LYP) =  -2359.39022593     A.U. after   15 cycles
 SCF Done:  E(RB3LYP) =  -2359.39023225     A.U. after   14 cycles
 SCF Done:  E(RB3LYP) =  -2359.39023992     A.U. after   15 cycles
 SCF Done:  E(RB3LYP) =  -2359.39024803     A.U. after   15 cycles
 SCF Done:  E(RB3LYP) =  -2359.39529221     A.U. after   13 cycles
 SCF Done:  E(RB3LYP) =  -2359.39529694     A.U. after   14 cycles
 SCF Done:  E(RB3LYP) =  -2359.39533358     A.U. after   13 cycles
 SCF Done:  E(RB3LYP) =  -2359.39535685     A.U. after   12 cycles
 SCF Done:  E(RB3LYP) =  -2359.39537984     A.U. after   15 cycles
 SCF Done:  E(RB3LYP) =  -2359.39538727     A.U. after   13 cycles
 SCF Done:  E(RB3LYP) =  -2359.39538885     A.U. after   12 cycles
 SCF Done:  E(RB3LYP) =  -2359.39538949     A.U. after   12 cycles
 SCF Done:  E(RB3LYP) =  -2359.39538975     A.U. after   10 cycles
 SCF Done:  E(RB3LYP) =  -2359.39538979     A.U. after   10 cycles
 Optimization completed.
    -- Stationary point found.

                         Standard orientation:
 ---------------------------------------------------------------------
 Center     Atomic      Atomic             Coordinates (Angstroms)
 Number     Number       Type             X           Y           Z
 ---------------------------------------------------------------------
      1          6           0        3.575764   -2.724797   -0.098927
      2          6           0        2.818754   -1.507773   -0.037361
      3          6           0        3.472266   -0.249145   -0.116710
      4          6           0        4.878870   -0.162128   -0.261657
      5          6           0        5.678484   -1.355879   -0.334262
      6          6           0        1.402693   -1.563022    0.106571
      7          6           0        2.680429    0.961856   -0.038995
      8          6           0        1.261529    0.880622    0.110437
      9          6           0        0.632816   -0.431221    0.172152
     10          6           0        0.499656    2.090432    0.215862
     11          6           0        2.615845    3.441508   -0.014783
     12          6           0        3.350816    2.211462   -0.103750
     13          6           0        4.775837    2.262247   -0.252203
     14          6           0        5.514212    1.119777   -0.330023
     15          1           0        6.591766    1.142690   -0.441369
     16          1           0        5.235667    3.242280   -0.297765
     17          1           0        0.942560   -2.542781    0.154741
     18          7           0        1.221070    3.303106    0.142900
     19          7           0        4.972143   -2.578447   -0.249041
     20          8           0        3.103055   -3.881096   -0.030423
     21          8           0        6.922857   -1.371481   -0.462575
     22          8           0        3.124397    4.584515   -0.063569
     23          8           0       -0.744311    2.170579    0.368003
     24          6           0        0.424225    4.519909    0.244992
     25          1           0       -0.324063    4.550382   -0.551557
     26          1           0       -0.113668    4.542654    1.196919
     27          1           0        1.108172    5.361552    0.166884
     28          6           0        5.737180   -3.817227   -0.316196
     29          1           0        5.596631   -4.400137    0.598667
     30          1           0        5.386357   -4.432632   -1.149143
     31          1           0        6.782719   -3.547838   -0.445197
     32          6           0       -0.825810   -0.597923    0.347403
     33          6           0       -1.518022   -0.798563    1.513643
     34         16           0       -1.927509   -0.570489   -1.008172
     35          6           0       -2.928535   -0.866864    1.334412
     36          1           0       -1.011536   -0.824377    2.467161
     37          6           0       -3.340116   -0.736933    0.026737
     38          8           0       -3.859308   -0.999693    2.338192
     39          6           0       -4.695134   -0.667425   -0.498960
     40          6           0       -3.367333   -1.031657    3.666043
     41          6           0       -5.430466    0.413308   -0.947448
     42         16           0       -5.634028   -2.149369   -0.750857
     43          1           0       -4.243109   -1.123184    4.310668
     44          1           0       -2.706228   -1.890781    3.831034
     45          1           0       -2.825165   -0.112891    3.917485
     46          6           0       -6.710301    0.059899   -1.486475
     47          8           0       -5.105387    1.732995   -0.951211
     48          6           0       -6.959125   -1.278962   -1.444745
     49          1           0       -7.396624    0.804535   -1.868796
     50          6           0       -4.114992    2.233939   -0.028350
     51          1           0       -7.850915   -1.797723   -1.764131
     52          1           0       -3.097019    1.967205   -0.309819
     53          1           0       -4.228188    3.317949   -0.060781
     54          1           0       -4.322930    1.869002    0.980695
 ---------------------------------------------------------------------

 The electronic state is 1-A.
 Alpha  occ. eigenvalues --  -88.72740 -88.69063 -19.00186 -18.99874 -18.86153
 Alpha  occ. eigenvalues --  -18.85954 -18.85928 -18.85922 -14.14178 -14.14165
 Alpha  occ. eigenvalues --  -10.08710 -10.08344 -10.06748 -10.06163 -10.05520
 Alpha  occ. eigenvalues --  -10.05251 -10.04638 -10.04508 -10.04427 -10.04340
 Alpha  occ. eigenvalues --  -10.03663 -10.02974 -10.02609  -9.99772  -9.99708
 Alpha  occ. eigenvalues --   -9.99414  -9.97622  -9.97413  -9.97386  -9.95660
 Alpha  occ. eigenvalues --   -9.95607  -9.94790  -9.94786  -9.94716  -9.94711
 Alpha  occ. eigenvalues --   -9.94642  -7.81338  -7.77666  -5.77637  -5.77270
 Alpha  occ. eigenvalues --   -5.76914  -5.73975  -5.73596  -5.73225  -0.91442
 Alpha  occ. eigenvalues --   -0.90897  -0.81911  -0.81884  -0.79386  -0.79322
 Alpha  occ. eigenvalues --   -0.73487  -0.70721  -0.70672  -0.70339  -0.65827
 Alpha  occ. eigenvalues --   -0.62028  -0.60036  -0.59684  -0.58754  -0.58493
 Alpha  occ. eigenvalues --   -0.55401  -0.54239  -0.53113  -0.52411  -0.51708
 Alpha  occ. eigenvalues --   -0.50497  -0.49129  -0.46938  -0.44007  -0.42587
 Alpha  occ. eigenvalues --   -0.41720  -0.41597  -0.40490  -0.39346  -0.39066
 Alpha  occ. eigenvalues --   -0.37992  -0.37013  -0.33389  -0.33121  -0.32673
 Alpha  occ. eigenvalues --   -0.32480  -0.31152  -0.31044  -0.30536  -0.29992
 Alpha  occ. eigenvalues --   -0.29372  -0.28876  -0.26759  -0.26298  -0.26143
 Alpha  occ. eigenvalues --   -0.25792  -0.25408  -0.24827  -0.24436  -0.24240
 Alpha  occ. eigenvalues --   -0.24054  -0.22938  -0.22605  -0.22172  -0.21315
 Alpha  occ. eigenvalues --   -0.20951  -0.20894  -0.20243  -0.20049  -0.19825
 Alpha  occ. eigenvalues --   -0.19371  -0.18580  -0.18513  -0.18392  -0.17879
 Alpha  occ. eigenvalues --   -0.17403  -0.17120  -0.16777  -0.16506  -0.16230
 Alpha  occ. eigenvalues --   -0.15687  -0.15197  -0.14288  -0.14137  -0.11382
 Alpha  occ. eigenvalues --   -0.10193  -0.09634  -0.07219  -0.06829  -0.06051
 Alpha  occ. eigenvalues --   -0.05925  -0.05395  -0.05251  -0.04652  -0.04306
 Alpha  occ. eigenvalues --   -0.03642  -0.03221  -0.02456  -0.00183   0.07429
 Alpha virt. eigenvalues --    0.11860   0.12191   0.13191   0.13725   0.14894
 Alpha virt. eigenvalues --    0.15334   0.16137   0.16380   0.16945   0.17230
 Alpha virt. eigenvalues --    0.17396   0.17508   0.17931   0.18219   0.18282

 Mulliken charges:
               1
     1  C    0.338729
     2  C   -0.049268
     3  C    0.081876
     4  C    0.218391
     5  C    0.198523
     6  C   -0.717028
     7  C    0.179371
     8  C   -0.072910
     9  C    0.487267
    10  C   -0.197418
    11  C    0.078314
    12  C    0.315759
    13  C   -0.628917
    14  C   -0.642317
    15  H    0.101662
    16  H    0.102843
    17  H    0.107665
    18  N   -0.162421
    19  N   -0.135363
    20  O   -0.439625
    21  O   -0.429401
    22  O   -0.425560
    23  O   -0.321670
    24  C   -0.209121
    25  H    0.135590
    26  H    0.131641
    27  H    0.159622
    28  C   -0.184915
    29  H    0.129499
    30  H    0.132002
    31  H    0.155996
    32  C    0.409304
    33  C   -0.536343
    34  S    0.037034
    35  C   -0.824058
    36  H    0.099285
    37  C    0.273452
    38  O   -0.122724
    39  C    0.285943
    40  C   -0.229435
    41  C   -0.025436
    42  S   -0.151938
    43  H    0.127445
    44  H    0.139781
    45  H    0.150837
    46  C   -0.127799
    47  O   -0.199733
    48  C   -0.197824
    49  H    0.105493
    50  C   -0.284347
    51  H    0.128247
    52  H    0.239289
    53  H    0.128204
    54  H    0.136509
 Sum of Mulliken charges =  -2.00000

 Dipole moment (field-independent basis, Debye):
    X=            -19.5923    Y=             -1.4834    Z=              3.1544  Tot=             19.9000
 Quadrupole moment (field-independent basis, Debye-Ang):
   XX=           -424.7135   YY=           -318.2973   ZZ=           -229.3623
   XY=             -1.1616   XZ=              1.4111   YZ=             -1.0962

 Normal termination of Gaussian 16 at Fri Oct  8 06:33:30 2021.
