 Gaussian 16, Revision C.01,
 Gaussian 16:  ES64L-G16RevC.01  3-Jul-2019

 -------------------------------------
 # opt=modredundant b3lyp/6-311+g(d,p)
 -------------------------------------

 -----------
 NDI_105.pdb
 -----------
 Symbolic Z-matrix:
 Charge = -2 Multiplicity = 1

 SCF Done:  E(RB3LYP) =  -2359.37075918     A.U. after   23 cycles
 SCF Done:  E(RB3LYP) =  -2359.38730384     A.U. after   15 cycles
 SCF Done:  E(RB3LYP) =  -2359.39007669     A.U. after   15 cycles
 SCF Done:  E(RB3LYP) =  -2359.39024084     A.U. after   15 cycles
 SCF Done:  E(RB3LYP) =  -2359.39045340     A.U. after   14 cycles
 SCF Done:  E(RB3LYP) =  -2359.39054394     A.U. after   13 cycles
 SCF Done:  E(RB3LYP) =  -2359.39057308     A.U. after   14 cycles
 SCF Done:  E(RB3LYP) =  -2359.39059495     A.U. after   14 cycles
 SCF Done:  E(RB3LYP) =  -2359.39068433     A.U. after   15 cycles
 SCF Done:  E(RB3LYP) =  -2359.39072890     A.U. after   15 cycles
 SCF Done:  E(RB3LYP) =  -2359.39597802     A.U. after   13 cycles
 SCF Done:  E(RB3LYP) =  -2359.39599678     A.U. after   14 cycles
 SCF Done:  E(RB3LYP) =  -2359.39600009     A.U. after   13 cycles
 SCF Done:  E(RB3LYP) =  -2359.39600054     A.U. after   11 cycles
 SCF Done:  E(RB3LYP) =  -2359.39600094     A.U. after   12 cycles
 SCF Done:  E(RB3LYP) =  -2359.39600110     A.U. after   12 cycles
 SCF Done:  E(RB3LYP) =  -2359.39600136     A.U. after   11 cycles
 SCF Done:  E(RB3LYP) =  -2359.39600170     A.U. after   11 cycles
 SCF Done:  E(RB3LYP) =  -2359.39600174     A.U. after    9 cycles
 SCF Done:  E(RB3LYP) =  -2359.39600177     A.U. after   10 cycles
 Optimization completed.
    -- Stationary point found.

                         Standard orientation:
 ---------------------------------------------------------------------
 Center     Atomic      Atomic             Coordinates (Angstroms)
 Number     Number       Type             X           Y           Z
 ---------------------------------------------------------------------
      1          6           0        3.602690   -2.699007    0.113483
      2          6           0        2.833045   -1.490298    0.037775
      3          6           0        3.470748   -0.223861    0.129597
      4          6           0        4.872799   -0.121096    0.300133
      5          6           0        5.684424   -1.306445    0.389215
      6          6           0        1.419941   -1.561544   -0.114983
      7          6           0        2.666993    0.977463    0.031099
      8          6           0        1.252191    0.879904   -0.146490
      9          6           0        0.635156   -0.438444   -0.184543
     10          6           0        0.488939    2.079092   -0.332427
     11          6           0        2.579908    3.455903   -0.034902
     12          6           0        3.324055    2.234114    0.092946
     13          6           0        4.744607    2.301281    0.269694
     14          6           0        5.493502    1.167413    0.372640
     15          1           0        6.568483    1.202697    0.503513
     16          1           0        5.193453    3.286503    0.312936
     17          1           0        0.968668   -2.546182   -0.141948
     18          7           0        1.194913    3.300808   -0.247560
     19          7           0        4.994279   -2.536917    0.289799
     20          8           0        3.144501   -3.860288    0.036738
     21          8           0        6.925705   -1.307373    0.541795
     22          8           0        3.075541    4.604018    0.019268
     23          8           0       -0.742409    2.143451   -0.567340
     24          6           0        0.393487    4.507084   -0.417560
     25          1           0       -0.082109    4.512008   -1.402464
     26          1           0       -0.404606    4.538460    0.328728
     27          1           0        1.062019    5.357506   -0.307790
     28          6           0        5.772129   -3.766917    0.371082
     29          1           0        5.415962   -4.384773    1.199960
     30          1           0        5.651775   -4.352806   -0.544658
     31          1           0        6.812478   -3.485641    0.515558
     32          6           0       -0.820913   -0.636085   -0.317128
     33          6           0       -1.515391   -1.042622   -1.429257
     34         16           0       -1.922498   -0.381752    1.017586
     35          6           0       -2.924250   -1.095213   -1.234375
     36          1           0       -1.011243   -1.227321   -2.366338
     37          6           0       -3.334970   -0.738232    0.030960
     38          8           0       -3.855917   -1.409982   -2.196469
     39          6           0       -4.688917   -0.592652    0.541969
     40          6           0       -3.364678   -1.693608   -3.493854
     41          6           0       -5.419136    0.539874    0.850478
     42         16           0       -5.633762   -2.026015    0.983727
     43          1           0       -4.240039   -1.914305   -4.107061
     44          1           0       -2.830141   -0.836426   -3.919610
     45          1           0       -2.696403   -2.562933   -3.491668
     46          6           0       -6.699051    0.263965    1.432250
     47          8           0       -5.089325    1.847809    0.681834
     48          6           0       -6.954611   -1.068157    1.561393
     49          1           0       -7.382264    1.054592    1.714845
     50          6           0       -4.113928    2.220590   -0.314827
     51          1           0       -7.850321   -1.537746    1.940313
     52          1           0       -4.330655    1.715679   -1.259855
     53          1           0       -4.236031    3.297669   -0.434141
     54          1           0       -3.090608    2.003941   -0.009813
 ---------------------------------------------------------------------

 The electronic state is 1-A.
 Alpha  occ. eigenvalues --  -88.72608 -88.68854 -19.00094 -18.99721 -18.86312
 Alpha  occ. eigenvalues --  -18.86064 -18.86023 -18.85953 -14.14289 -14.14205
 Alpha  occ. eigenvalues --  -10.08558 -10.08290 -10.06628 -10.06022 -10.05411
 Alpha  occ. eigenvalues --  -10.05110 -10.04793 -10.04535 -10.04500 -10.04481
 Alpha  occ. eigenvalues --  -10.03537 -10.02843 -10.02476  -9.99881  -9.99711
 Alpha  occ. eigenvalues --   -9.99321  -9.97685  -9.97502  -9.97422  -9.95766
 Alpha  occ. eigenvalues --   -9.95620  -9.94929  -9.94871  -9.94828  -9.94809
 Alpha  occ. eigenvalues --   -9.94741  -7.81205  -7.77458  -5.77505  -5.77138
 Alpha  occ. eigenvalues --   -5.76780  -5.73769  -5.73392  -5.73012  -0.91350
 Alpha  occ. eigenvalues --   -0.90745  -0.82054  -0.81948  -0.79547  -0.79387
 Alpha  occ. eigenvalues --   -0.73348  -0.70842  -0.70710  -0.70206  -0.65904
 Alpha  occ. eigenvalues --   -0.62011  -0.59980  -0.59568  -0.58780  -0.58459
 Alpha  occ. eigenvalues --   -0.55359  -0.54182  -0.53008  -0.52454  -0.51775
 Alpha  occ. eigenvalues --   -0.50461  -0.49193  -0.47006  -0.43902  -0.42599
 Alpha  occ. eigenvalues --   -0.41790  -0.41598  -0.40450  -0.39424  -0.38929
 Alpha  occ. eigenvalues --   -0.37870  -0.37022  -0.33453  -0.33173  -0.32568
 Alpha  occ. eigenvalues --   -0.32411  -0.31191  -0.30923  -0.30401  -0.29945
 Alpha  occ. eigenvalues --   -0.29406  -0.28761  -0.26801  -0.26379  -0.26203
 Alpha  occ. eigenvalues --   -0.25784  -0.25341  -0.24842  -0.24412  -0.24194
 Alpha  occ. eigenvalues --   -0.24097  -0.22862  -0.22489  -0.22203  -0.21323
 Alpha  occ. eigenvalues --   -0.20999  -0.20817  -0.20321  -0.20097  -0.19901
 Alpha  occ. eigenvalues --   -0.19364  -0.18636  -0.18466  -0.18426  -0.17910
 Alpha  occ. eigenvalues --   -0.17465  -0.17122  -0.16741  -0.16386  -0.16254
 Alpha  occ. eigenvalues --   -0.15754  -0.15141  -0.14393  -0.14164  -0.11478
 Alpha  occ. eigenvalues --   -0.10065  -0.09740  -0.07164  -0.06690  -0.06137
 Alpha  occ. eigenvalues --   -0.05997  -0.05491  -0.05303  -0.04701  -0.04390
 Alpha  occ. eigenvalues --   -0.03655  -0.03311  -0.02392  -0.00250   0.07337
 Alpha virt. eigenvalues --    0.11935   0.12267   0.13222   0.13812   0.14968
 Alpha virt. eigenvalues --    0.15393   0.16210   0.16457   0.16899   0.17275
 Alpha virt. eigenvalues --    0.17336   0.17585   0.17857   0.18262   0.18428

 Mulliken charges:
               1
     1  C    0.316471
     2  C   -0.070309
     3  C    0.076303
     4  C    0.250322
     5  C    0.180860
     6  C   -0.699319
     7  C    0.181157
     8  C   -0.049375
     9  C    0.441023
    10  C   -0.185872
    11  C    0.117195
    12  C    0.317787
    13  C   -0.628942
    14  C   -0.638065
    15  H    0.101882
    16  H    0.103414
    17  H    0.110454
    18  N   -0.141969
    19  N   -0.134362
    20  O   -0.439391
    21  O   -0.427512
    22  O   -0.426411
    23  O   -0.341733
    24  C   -0.195143
    25  H    0.131871
    26  H    0.137202
    27  H    0.159119
    28  C   -0.184072
    29  H    0.132214
    30  H    0.129636
    31  H    0.156235
    32  C    0.412107
    33  C   -0.515734
    34  S    0.003837
    35  C   -0.808645
    36  H    0.099863
    37  C    0.289069
    38  O   -0.124052
    39  C    0.272794
    40  C   -0.229758
    41  C   -0.016954
    42  S   -0.161737
    43  H    0.127135
    44  H    0.147011
    45  H    0.140937
    46  C   -0.183220
    47  O   -0.193038
    48  C   -0.186107
    49  H    0.105144
    50  C   -0.285774
    51  H    0.127780
    52  H    0.132771
    53  H    0.127135
    54  H    0.238768
 Sum of Mulliken charges =  -2.00000

 Dipole moment (field-independent basis, Debye):
    X=            -19.1329    Y=             -2.0445    Z=             -3.0492  Tot=             19.4819
 Quadrupole moment (field-independent basis, Debye-Ang):
   XX=           -423.9754   YY=           -317.2444   ZZ=           -230.1450
   XY=             -0.8037   XZ=             -2.2492   YZ=              3.2177

 Normal termination of Gaussian 16 at Fri Oct  8 19:01:06 2021.
