 Gaussian 16, Revision C.01,
 Gaussian 16:  ES64L-G16RevC.01  3-Jul-2019

 -------------------------------------
 # opt=modredundant b3lyp/6-311+g(d,p)
 -------------------------------------

 -----------
 NDI_145.pdb
 -----------
 Symbolic Z-matrix:
 Charge = -2 Multiplicity = 1

 SCF Done:  E(RB3LYP) =  -2359.36341909     A.U. after   23 cycles
 SCF Done:  E(RB3LYP) =  -2359.37922148     A.U. after   22 cycles
 SCF Done:  E(RB3LYP) =  -2359.38869254     A.U. after   17 cycles
 SCF Done:  E(RB3LYP) =  -2359.39245491     A.U. after   17 cycles
 SCF Done:  E(RB3LYP) =  -2359.39354864     A.U. after   16 cycles
 SCF Done:  E(RB3LYP) =  -2359.39430338     A.U. after   14 cycles
 SCF Done:  E(RB3LYP) =  -2359.39450002     A.U. after   15 cycles
 SCF Done:  E(RB3LYP) =  -2359.39456552     A.U. after   15 cycles
 SCF Done:  E(RB3LYP) =  -2359.39463029     A.U. after   12 cycles
 SCF Done:  E(RB3LYP) =  -2359.39465919     A.U. after   13 cycles
 SCF Done:  E(RB3LYP) =  -2359.39908231     A.U. after   13 cycles
 SCF Done:  E(RB3LYP) =  -2359.39909374     A.U. after   13 cycles
 SCF Done:  E(RB3LYP) =  -2359.39909531     A.U. after   12 cycles
 SCF Done:  E(RB3LYP) =  -2359.39909601     A.U. after   12 cycles
 SCF Done:  E(RB3LYP) =  -2359.39909537     A.U. after   13 cycles
 SCF Done:  E(RB3LYP) =  -2359.39909790     A.U. after   11 cycles
 SCF Done:  E(RB3LYP) =  -2359.39909867     A.U. after   11 cycles
 SCF Done:  E(RB3LYP) =  -2359.39909919     A.U. after   11 cycles
 SCF Done:  E(RB3LYP) =  -2359.39909924     A.U. after   10 cycles
 SCF Done:  E(RB3LYP) =  -2359.39909924     A.U. after    9 cycles
 Optimization completed.
    -- Stationary point found.

                         Standard orientation:
 ---------------------------------------------------------------------
 Center     Atomic      Atomic             Coordinates (Angstroms)
 Number     Number       Type             X           Y           Z
 ---------------------------------------------------------------------
      1          6           0        3.517179   -2.694363    0.223671
      2          6           0        2.783693   -1.471002    0.031635
      3          6           0        3.442747   -0.212016    0.123124
      4          6           0        4.824461   -0.131689    0.400557
      5          6           0        5.599409   -1.333577    0.604849
      6          6           0        1.389487   -1.520234   -0.184119
      7          6           0        2.672966    0.992914   -0.094910
      8          6           0        1.275374    0.912873   -0.383829
      9          6           0        0.613934   -0.387389   -0.354953
     10          6           0        0.602068    2.101998   -0.825566
     11          6           0        2.666787    3.465080   -0.338075
     12          6           0        3.360117    2.234858   -0.054643
     13          6           0        4.757537    2.282822    0.238295
     14          6           0        5.471042    1.141698    0.464517
     15          1           0        6.532049    1.162977    0.681393
     16          1           0        5.225198    3.259959    0.262788
     17          1           0        0.920464   -2.494242   -0.124510
     18          7           0        1.322873    3.320548   -0.719226
     19          7           0        4.893942   -2.553609    0.500526
     20          8           0        3.037935   -3.844755    0.163922
     21          8           0        6.820654   -1.348663    0.856889
     22          8           0        3.186513    4.600786   -0.288473
     23          8           0       -0.549915    2.162518   -1.303142
     24          6           0        0.591510    4.520182   -1.110260
     25          1           0        0.331019    4.481216   -2.172184
     26          1           0       -0.343284    4.586593   -0.549248
     27          1           0        1.233790    5.373538   -0.906831
     28          6           0        5.634840   -3.794450    0.695072
     29          1           0        5.212213   -4.360134    1.529812
     30          1           0        5.558365   -4.423287   -0.196017
     31          1           0        6.670285   -3.529249    0.893571
     32          6           0       -0.827437   -0.610013   -0.376079
     33          6           0       -1.486784   -1.663746   -0.998326
     34         16           0       -1.968771    0.334610    0.557027
     35          6           0       -2.868634   -1.699771   -0.738186
     36          1           0       -0.964540   -2.354893   -1.642843
     37          6           0       -3.339846   -0.677548    0.082352
     38          8           0       -3.758007   -2.616024   -1.250330
     39          6           0       -4.692188   -0.383216    0.451234
     40          6           0       -3.234219   -3.622731   -2.095565
     41          6           0       -5.211279    0.734197    1.103817
     42         16           0       -6.024352   -1.512349    0.140050
     43          1           0       -4.080449   -4.249413   -2.381734
     44          1           0       -2.778649   -3.193303   -2.995738
     45          1           0       -2.486667   -4.233758   -1.576513
     46          6           0       -6.607881    0.680935    1.356535
     47          8           0       -4.442235    1.796666    1.530772
     48          6           0       -7.194982   -0.464988    0.901169
     49          1           0       -7.133181    1.480302    1.865333
     50          6           0       -4.252117    2.832969    0.558319
     51          1           0       -8.232227   -0.759355    0.947545
     52          1           0       -5.219340    3.246062    0.243344
     53          1           0       -3.661425    3.607923    1.048009
     54          1           0       -3.697629    2.467328   -0.309433
 ---------------------------------------------------------------------

 The electronic state is 1-A.
 Alpha  occ. eigenvalues --  -88.71392 -88.67956 -18.99868 -18.98079 -18.87610
 Alpha  occ. eigenvalues --  -18.87285 -18.86631 -18.86120 -14.15323 -14.14472
 Alpha  occ. eigenvalues --  -10.07987 -10.06060 -10.06009 -10.05890 -10.05726
 Alpha  occ. eigenvalues --  -10.05693 -10.05122 -10.05032 -10.04784 -10.03808
 Alpha  occ. eigenvalues --  -10.02274 -10.02170 -10.02070 -10.00769  -9.99940
 Alpha  occ. eigenvalues --   -9.98681  -9.98270  -9.98230  -9.97998  -9.96754
 Alpha  occ. eigenvalues --   -9.96072  -9.95870  -9.95852  -9.95658  -9.95567
 Alpha  occ. eigenvalues --   -9.95532  -7.79947  -7.76519  -5.76260  -5.75888
 Alpha  occ. eigenvalues --   -5.75500  -5.72853  -5.72458  -5.72040  -0.91161
 Alpha  occ. eigenvalues --   -0.89226  -0.83339  -0.82431  -0.80909  -0.79939
 Alpha  occ. eigenvalues --   -0.71994  -0.71932  -0.71082  -0.69411  -0.66603
 Alpha  occ. eigenvalues --   -0.62238  -0.59864  -0.59275  -0.58353  -0.57813
 Alpha  occ. eigenvalues --   -0.55382  -0.53849  -0.53313  -0.52470  -0.52078
 Alpha  occ. eigenvalues --   -0.50254  -0.49721  -0.47535  -0.43706  -0.42757
 Alpha  occ. eigenvalues --   -0.42330  -0.41786  -0.40345  -0.39766  -0.38040
 Alpha  occ. eigenvalues --   -0.37239  -0.36578  -0.34075  -0.33753  -0.32124
 Alpha  occ. eigenvalues --   -0.31871  -0.31529  -0.30418  -0.30102  -0.29866
 Alpha  occ. eigenvalues --   -0.29273  -0.28279  -0.27338  -0.27233  -0.26559
 Alpha  occ. eigenvalues --   -0.26133  -0.25417  -0.25218  -0.24865  -0.24630
 Alpha  occ. eigenvalues --   -0.23449  -0.23126  -0.22460  -0.21930  -0.21482
 Alpha  occ. eigenvalues --   -0.21151  -0.20850  -0.20746  -0.20390  -0.19944
 Alpha  occ. eigenvalues --   -0.19525  -0.19138  -0.18787  -0.18619  -0.18093
 Alpha  occ. eigenvalues --   -0.17876  -0.17487  -0.16771  -0.16407  -0.16076
 Alpha  occ. eigenvalues --   -0.15441  -0.14820  -0.14726  -0.12342  -0.11822
 Alpha  occ. eigenvalues --   -0.11508  -0.09796  -0.08820  -0.06921  -0.06803
 Alpha  occ. eigenvalues --   -0.06359  -0.06035  -0.05658  -0.05068  -0.04575
 Alpha  occ. eigenvalues --   -0.04536  -0.03364  -0.01611  -0.00226   0.06646
 Alpha virt. eigenvalues --    0.12057   0.12820   0.13570   0.14485   0.15814
 Alpha virt. eigenvalues --    0.15917   0.16488   0.16777   0.16903   0.17349
 Alpha virt. eigenvalues --    0.17448   0.17920   0.18560   0.18663   0.19020

 Mulliken charges:
               1
     1  C    0.229425
     2  C   -0.103053
     3  C    0.092814
     4  C    0.330349
     5  C    0.151368
     6  C   -0.200639
     7  C    0.205695
     8  C    0.072000
     9  C    0.069662
    10  C   -0.412509
    11  C    0.241271
    12  C    0.252604
    13  C   -0.476842
    14  C   -0.630908
    15  H    0.103131
    16  H    0.106725
    17  H    0.124463
    18  N   -0.061852
    19  N   -0.136419
    20  O   -0.431331
    21  O   -0.410470
    22  O   -0.422898
    23  O   -0.349836
    24  C   -0.159589
    25  H    0.135100
    26  H    0.138207
    27  H    0.156895
    28  C   -0.180293
    29  H    0.135208
    30  H    0.132862
    31  H    0.157370
    32  C   -0.263022
    33  C   -0.240063
    34  S   -0.491754
    35  C   -0.429862
    36  H    0.116017
    37  C    0.236644
    38  O   -0.122707
    39  C    0.459380
    40  C   -0.234243
    41  C    0.075594
    42  S   -0.334731
    43  H    0.132060
    44  H    0.135615
    45  H    0.143318
    46  C   -0.048357
    47  O   -0.150321
    48  C   -0.194809
    49  H    0.094471
    50  C   -0.305207
    51  H    0.120374
    52  H    0.101579
    53  H    0.141864
    54  H    0.199648
 Sum of Mulliken charges =  -2.00000

 Dipole moment (field-independent basis, Debye):
    X=            -15.3770    Y=             -2.9208    Z=             -1.9905  Tot=             15.7780
 Quadrupole moment (field-independent basis, Debye-Ang):
   XX=           -421.9356   YY=           -304.7435   ZZ=           -240.9594
   XY=             -5.7447   XZ=             -2.9210   YZ=             11.2021

 Normal termination of Gaussian 16 at Fri Oct  8 21:56:55 2021.
