 Gaussian 16, Revision C.01,
 Gaussian 16:  ES64L-G16RevC.01  3-Jul-2019

 -------------------------------------
 # opt=modredundant b3lyp/6-311+g(d,p)
 -------------------------------------

 ------------
 NDI_-135.pdb
 ------------
 Symbolic Z-matrix:
 Charge = -2 Multiplicity = 1

 SCF Done:  E(RB3LYP) =  -2359.36737174     A.U. after   23 cycles
 SCF Done:  E(RB3LYP) =  -2359.38219169     A.U. after   20 cycles
 SCF Done:  E(RB3LYP) =  -2359.39087962     A.U. after   17 cycles
 SCF Done:  E(RB3LYP) =  -2359.39213417     A.U. after   15 cycles
 SCF Done:  E(RB3LYP) =  -2359.39258877     A.U. after   17 cycles
 SCF Done:  E(RB3LYP) =  -2359.39335092     A.U. after   17 cycles
 SCF Done:  E(RB3LYP) =  -2359.39345466     A.U. after   17 cycles
 SCF Done:  E(RB3LYP) =  -2359.39376935     A.U. after   17 cycles
 SCF Done:  E(RB3LYP) =  -2359.39391397     A.U. after   14 cycles
 SCF Done:  E(RB3LYP) =  -2359.39398833     A.U. after   13 cycles
 SCF Done:  E(RB3LYP) =  -2359.39854991     A.U. after   13 cycles
 SCF Done:  E(RB3LYP) =  -2359.39855495     A.U. after   13 cycles
 SCF Done:  E(RB3LYP) =  -2359.39855960     A.U. after   13 cycles
 SCF Done:  E(RB3LYP) =  -2359.39856887     A.U. after   13 cycles
 SCF Done:  E(RB3LYP) =  -2359.39858485     A.U. after   12 cycles
 SCF Done:  E(RB3LYP) =  -2359.39858784     A.U. after   12 cycles
 SCF Done:  E(RB3LYP) =  -2359.39858827     A.U. after   11 cycles
 SCF Done:  E(RB3LYP) =  -2359.39858856     A.U. after   10 cycles
 SCF Done:  E(RB3LYP) =  -2359.39858870     A.U. after   10 cycles
 SCF Done:  E(RB3LYP) =  -2359.39858870     A.U. after    8 cycles
 Optimization completed.
    -- Stationary point found.

                         Standard orientation:
 ---------------------------------------------------------------------
 Center     Atomic      Atomic             Coordinates (Angstroms)
 Number     Number       Type             X           Y           Z
 ---------------------------------------------------------------------
      1          6           0       -3.536535   -2.690089    0.290931
      2          6           0       -2.794318   -1.475499    0.083587
      3          6           0       -3.449672   -0.212567    0.130058
      4          6           0       -4.837099   -0.119882    0.378323
      5          6           0       -5.620426   -1.312190    0.598996
      6          6           0       -1.395160   -1.535264   -0.112783
      7          6           0       -2.673001    0.985290   -0.105355
      8          6           0       -1.270574    0.893568   -0.364626
      9          6           0       -0.618255   -0.407540   -0.292661
     10          6           0       -0.575271    2.071057   -0.803234
     11          6           0       -2.650158    3.449901   -0.409167
     12          6           0       -3.354922    2.230510   -0.110762
     13          6           0       -4.758656    2.290401    0.152225
     14          6           0       -5.479616    1.157655    0.394373
     15          1           0       -6.544772    1.187677    0.589071
     16          1           0       -5.223710    3.269021    0.141344
     17          1           0       -0.927047   -2.508970   -0.036411
     18          7           0       -1.296073    3.292161   -0.751387
     19          7           0       -4.917584   -2.536953    0.539258
     20          8           0       -3.061580   -3.844147    0.267526
     21          8           0       -6.846913   -1.317047    0.828337
     22          8           0       -3.165993    4.588762   -0.402371
     23          8           0        0.596193    2.118187   -1.233895
     24          6           0       -0.549422    4.480505   -1.147673
     25          1           0        0.357165    4.571460   -0.544776
     26          1           0       -0.237444    4.404696   -2.193420
     27          1           0       -1.202761    5.337676   -1.004362
     28          6           0       -5.666998   -3.769679    0.751106
     29          1           0       -5.579717   -4.419817   -0.123658
     30          1           0       -5.259744   -4.317471    1.605221
     31          1           0       -6.704194   -3.495370    0.926999
     32          6           0        0.825398   -0.630516   -0.328308
     33          6           0        1.492454   -1.590678   -1.072525
     34         16           0        1.958629    0.228493    0.692250
     35          6           0        2.881999   -1.621776   -0.838884
     36          1           0        0.971896   -2.212857   -1.785236
     37          6           0        3.343796   -0.683039    0.078508
     38          8           0        3.781307   -2.456737   -1.459857
     39          6           0        4.696314   -0.401822    0.462179
     40          6           0        3.267483   -3.362186   -2.418606
     41          6           0        5.205585    0.671431    1.190326
     42         16           0        6.036606   -1.492758    0.067812
     43          1           0        4.122119   -3.932948   -2.785308
     44          1           0        2.536173   -4.046435   -1.972964
     45          1           0        2.796059   -2.834199   -3.255845
     46          6           0        6.603662    0.613266    1.435963
     47          8           0        4.431093    1.697289    1.688820
     48          6           0        7.199029   -0.492472    0.899460
     49          1           0        7.123434    1.380906    1.996444
     50          6           0        4.192270    2.773850    0.770890
     51          1           0        8.239886   -0.777070    0.918027
     52          1           0        3.616123    2.439238   -0.095117
     53          1           0        3.605677    3.514729    1.315098
     54          1           0        5.142400    3.217655    0.446278
 ---------------------------------------------------------------------

 The electronic state is 1-A.
 Alpha  occ. eigenvalues --  -88.71608 -88.68118 -19.00019 -18.98216 -18.87367
 Alpha  occ. eigenvalues --  -18.87053 -18.86532 -18.86080 -14.15129 -14.14417
 Alpha  occ. eigenvalues --  -10.08114 -10.06201 -10.06130 -10.05822 -10.05768
 Alpha  occ. eigenvalues --  -10.05464 -10.05209 -10.05021 -10.04730 -10.04050
 Alpha  occ. eigenvalues --  -10.02456 -10.02297 -10.02278 -10.00602  -9.99897
 Alpha  occ. eigenvalues --   -9.98849  -9.98160  -9.98113  -9.97884  -9.96573
 Alpha  occ. eigenvalues --   -9.95865  -9.95829  -9.95672  -9.95510  -9.95441
 Alpha  occ. eigenvalues --   -9.95397  -7.80165  -7.76690  -5.76478  -5.76105
 Alpha  occ. eigenvalues --   -5.75721  -5.73023  -5.72630  -5.72211  -0.91314
 Alpha  occ. eigenvalues --   -0.89366  -0.83096  -0.82343  -0.80653  -0.79846
 Alpha  occ. eigenvalues --   -0.72155  -0.71776  -0.71009  -0.69580  -0.66484
 Alpha  occ. eigenvalues --   -0.62202  -0.59876  -0.59212  -0.58503  -0.57981
 Alpha  occ. eigenvalues --   -0.55357  -0.53963  -0.53192  -0.52379  -0.52154
 Alpha  occ. eigenvalues --   -0.50300  -0.49648  -0.47456  -0.43672  -0.42818
 Alpha  occ. eigenvalues --   -0.42244  -0.41775  -0.40274  -0.39804  -0.38172
 Alpha  occ. eigenvalues --   -0.37229  -0.36738  -0.33959  -0.33654  -0.32257
 Alpha  occ. eigenvalues --   -0.31814  -0.31583  -0.30493  -0.30204  -0.29925
 Alpha  occ. eigenvalues --   -0.29376  -0.28404  -0.27175  -0.27146  -0.26494
 Alpha  occ. eigenvalues --   -0.26090  -0.25506  -0.25120  -0.24762  -0.24676
 Alpha  occ. eigenvalues --   -0.23566  -0.23059  -0.22375  -0.21941  -0.21529
 Alpha  occ. eigenvalues --   -0.21093  -0.20790  -0.20636  -0.20359  -0.20062
 Alpha  occ. eigenvalues --   -0.19434  -0.19063  -0.18868  -0.18596  -0.17960
 Alpha  occ. eigenvalues --   -0.17830  -0.17300  -0.16896  -0.16309  -0.16004
 Alpha  occ. eigenvalues --   -0.15580  -0.14857  -0.14646  -0.12197  -0.12002
 Alpha  occ. eigenvalues --   -0.11354  -0.09871  -0.08958  -0.06759  -0.06649
 Alpha  occ. eigenvalues --   -0.06235  -0.05965  -0.05582  -0.05011  -0.04472
 Alpha  occ. eigenvalues --   -0.04360  -0.03387  -0.01558  -0.00366   0.06777
 Alpha virt. eigenvalues --    0.11934   0.12726   0.13476   0.14406   0.15762
 Alpha virt. eigenvalues --    0.16012   0.16412   0.16875   0.16923   0.17287
 Alpha virt. eigenvalues --    0.17410   0.17844   0.18440   0.18546   0.19012

 Mulliken charges:
               1
     1  C    0.247696
     2  C   -0.161228
     3  C    0.079310
     4  C    0.298373
     5  C    0.154918
     6  C   -0.332381
     7  C    0.206746
     8  C    0.087655
     9  C    0.216658
    10  C   -0.369804
    11  C    0.204350
    12  C    0.259003
    13  C   -0.508522
    14  C   -0.626013
    15  H    0.102922
    16  H    0.106097
    17  H    0.122675
    18  N   -0.078795
    19  N   -0.135099
    20  O   -0.432488
    21  O   -0.414383
    22  O   -0.424260
    23  O   -0.347912
    24  C   -0.161320
    25  H    0.136969
    26  H    0.135185
    27  H    0.157336
    28  C   -0.181240
    29  H    0.132292
    30  H    0.134745
    31  H    0.157316
    32  C   -0.082197
    33  C   -0.471551
    34  S   -0.337731
    35  C   -0.478404
    36  H    0.112817
    37  C    0.253298
    38  O   -0.119671
    39  C    0.434417
    40  C   -0.241145
    41  C    0.132826
    42  S   -0.336264
    43  H    0.132103
    44  H    0.142502
    45  H    0.137521
    46  C   -0.060690
    47  O   -0.155048
    48  C   -0.180992
    49  H    0.095502
    50  C   -0.311453
    51  H    0.121266
    52  H    0.202543
    53  H    0.141390
    54  H    0.102161
 Sum of Mulliken charges =  -2.00000

 Dipole moment (field-independent basis, Debye):
    X=             16.0537    Y=             -2.6884    Z=             -2.1549  Tot=             16.4192
 Quadrupole moment (field-independent basis, Debye-Ang):
   XX=           -422.6036   YY=           -305.7889   ZZ=           -239.9083
   XY=              5.5479   XZ=              2.0861   YZ=             13.4853

 Normal termination of Gaussian 16 at Wed Oct  6 02:54:33 2021.
