 Gaussian 16, Revision C.01,
 Gaussian 16:  ES64L-G16RevC.01  3-Jul-2019

 -------------------------------------
 # opt=modredundant b3lyp/6-311+g(d,p)
 -------------------------------------

 ------------
 NDI_-175.pdb
 ------------
 Symbolic Z-matrix:
 Charge = -2 Multiplicity = 1

 SCF Done:  E(RB3LYP) =  -2359.33382953     A.U. after   23 cycles
 SCF Done:  E(RB3LYP) =  -2359.37022095     A.U. after   20 cycles
 SCF Done:  E(RB3LYP) =  -2359.38517811     A.U. after   17 cycles
 SCF Done:  E(RB3LYP) =  -2359.38876675     A.U. after   15 cycles
 SCF Done:  E(RB3LYP) =  -2359.38949590     A.U. after   14 cycles
 SCF Done:  E(RB3LYP) =  -2359.38954389     A.U. after   13 cycles
 SCF Done:  E(RB3LYP) =  -2359.38969069     A.U. after   14 cycles
 SCF Done:  E(RB3LYP) =  -2359.38981046     A.U. after   17 cycles
 SCF Done:  E(RB3LYP) =  -2359.38995872     A.U. after   17 cycles
 SCF Done:  E(RB3LYP) =  -2359.39020542     A.U. after   14 cycles
 SCF Done:  E(RB3LYP) =  -2359.39705938     A.U. after   12 cycles
 SCF Done:  E(RB3LYP) =  -2359.39706071     A.U. after   11 cycles
 SCF Done:  E(RB3LYP) =  -2359.39706303     A.U. after   11 cycles
 SCF Done:  E(RB3LYP) =  -2359.39706428     A.U. after   12 cycles
 SCF Done:  E(RB3LYP) =  -2359.39706501     A.U. after   11 cycles
 SCF Done:  E(RB3LYP) =  -2359.39706523     A.U. after   10 cycles
 SCF Done:  E(RB3LYP) =  -2359.39706533     A.U. after   11 cycles
 SCF Done:  E(RB3LYP) =  -2359.39706538     A.U. after   10 cycles
 SCF Done:  E(RB3LYP) =  -2359.39706541     A.U. after   10 cycles
 SCF Done:  E(RB3LYP) =  -2359.39706544     A.U. after    9 cycles
 Optimization completed.
    -- Stationary point found.

                         Standard orientation:
 ---------------------------------------------------------------------
 Center     Atomic      Atomic             Coordinates (Angstroms)
 Number     Number       Type             X           Y           Z
 ---------------------------------------------------------------------
      1          6           0       -3.554655   -2.657397   -0.072497
      2          6           0       -2.807329   -1.427634   -0.160995
      3          6           0       -3.440581   -0.177783    0.091684
      4          6           0       -4.806361   -0.109458    0.432344
      5          6           0       -5.594883   -1.317917    0.534640
      6          6           0       -1.425748   -1.475998   -0.412753
      7          6           0       -2.651334    1.025791   -0.028097
      8          6           0       -1.267844    0.954969   -0.381989
      9          6           0       -0.612714   -0.353368   -0.502055
     10          6           0       -0.621234    2.174999   -0.768376
     11          6           0       -2.615918    3.512061   -0.013944
     12          6           0       -3.315635    2.266410    0.172599
     13          6           0       -4.695993    2.303368    0.531940
     14          6           0       -5.425378    1.156691    0.664573
     15          1           0       -6.475397    1.171666    0.929393
     16          1           0       -5.140694    3.279885    0.683057
     17          1           0       -0.999878   -2.468568   -0.452201
     18          7           0       -1.301308    3.388162   -0.484851
     19          7           0       -4.917163   -2.529364    0.268882
     20          8           0       -3.096369   -3.799591   -0.270499
     21          8           0       -6.804102   -1.342800    0.832006
     22          8           0       -3.110392    4.642176    0.184604
     23          8           0        0.481921    2.267315   -1.347976
     24          6           0       -0.571754    4.610596   -0.802716
     25          1           0        0.420317    4.576751   -0.348985
     26          1           0       -0.433477    4.707845   -1.884109
     27          1           0       -1.154312    5.445857   -0.421744
     28          6           0       -5.673238   -3.773610    0.355259
     29          1           0       -5.625421   -4.309478   -0.596169
     30          1           0       -5.242522   -4.426401    1.119409
     31          1           0       -6.699641   -3.516267    0.604222
     32          6           0        0.822671   -0.615079   -0.487533
     33          6           0        1.434821   -1.857923   -0.701640
     34         16           0        2.026624    0.516688    0.105207
     35          6           0        2.798946   -1.889399   -0.394042
     36          1           0        0.892304   -2.708643   -1.082759
     37          6           0        3.324919   -0.689021    0.084416
     38          8           0        3.632057   -2.974923   -0.550291
     39          6           0        4.684632   -0.375148    0.394363
     40          6           0        3.050566   -4.176066   -1.018585
     41          6           0        5.258553    0.844962    0.756976
     42         16           0        5.964635   -1.607438    0.398026
     43          1           0        3.857558   -4.909754   -1.057118
     44          1           0        2.265050   -4.532853   -0.342214
     45          1           0        2.623941   -4.052023   -2.021295
     46          6           0        6.649046    0.792028    1.037061
     47          8           0        4.533662    2.010606    0.903360
     48          6           0        7.183433   -0.456655    0.890965
     49          1           0        7.209575    1.666595    1.345639
     50          6           0        4.466910    2.830271   -0.267748
     51          1           0        8.202273   -0.779944    1.039606
     52          1           0        3.986064    2.301077   -1.094459
     53          1           0        3.854823    3.693841   -0.006063
     54          1           0        5.470986    3.160389   -0.566876
 ---------------------------------------------------------------------

 The electronic state is 1-A.
 Alpha  occ. eigenvalues --  -88.70862 -88.67554 -18.99432 -18.97701 -18.88179
 Alpha  occ. eigenvalues --  -18.87868 -18.86813 -18.86302 -14.15793 -14.14632
 Alpha  occ. eigenvalues --  -10.07632 -10.06612 -10.06258 -10.05580 -10.05468
 Alpha  occ. eigenvalues --  -10.05325 -10.05303 -10.04913 -10.04563 -10.03254
 Alpha  occ. eigenvalues --  -10.02088 -10.01832 -10.01325 -10.01175 -10.00043
 Alpha  occ. eigenvalues --   -9.98506  -9.98467  -9.98395  -9.98267  -9.97136
 Alpha  occ. eigenvalues --   -9.96542  -9.96292  -9.96025  -9.95992  -9.95836
 Alpha  occ. eigenvalues --   -9.95824  -7.79414  -7.76067  -5.75729  -5.75358
 Alpha  occ. eigenvalues --   -5.74963  -5.72403  -5.71997  -5.71596  -0.90716
 Alpha  occ. eigenvalues --   -0.88870  -0.83919  -0.82651  -0.81526  -0.80157
 Alpha  occ. eigenvalues --   -0.72517  -0.71389  -0.71280  -0.68935  -0.66868
 Alpha  occ. eigenvalues --   -0.62300  -0.59947  -0.59258  -0.57951  -0.57382
 Alpha  occ. eigenvalues --   -0.55424  -0.53616  -0.53517  -0.52735  -0.51798
 Alpha  occ. eigenvalues --   -0.50269  -0.49770  -0.47692  -0.43874  -0.42777
 Alpha  occ. eigenvalues --   -0.42370  -0.41773  -0.40539  -0.39561  -0.37711
 Alpha  occ. eigenvalues --   -0.37241  -0.36207  -0.34378  -0.33989  -0.32095
 Alpha  occ. eigenvalues --   -0.31745  -0.31434  -0.30200  -0.29801  -0.29556
 Alpha  occ. eigenvalues --   -0.29008  -0.27980  -0.27788  -0.27365  -0.26741
 Alpha  occ. eigenvalues --   -0.26272  -0.25548  -0.25197  -0.25146  -0.24366
 Alpha  occ. eigenvalues --   -0.23508  -0.22898  -0.22636  -0.22083  -0.21443
 Alpha  occ. eigenvalues --   -0.21344  -0.21055  -0.20827  -0.20319  -0.19894
 Alpha  occ. eigenvalues --   -0.19484  -0.19377  -0.18820  -0.18381  -0.18329
 Alpha  occ. eigenvalues --   -0.17954  -0.17797  -0.16773  -0.16498  -0.16321
 Alpha  occ. eigenvalues --   -0.15251  -0.14950  -0.14033  -0.12623  -0.11866
 Alpha  occ. eigenvalues --   -0.11317  -0.09625  -0.08448  -0.07366  -0.07107
 Alpha  occ. eigenvalues --   -0.06676  -0.06203  -0.05813  -0.05203  -0.04997
 Alpha  occ. eigenvalues --   -0.04750  -0.03310  -0.01868   0.00198   0.06394
 Alpha virt. eigenvalues --    0.12218   0.13061   0.13874   0.14666   0.15682
 Alpha virt. eigenvalues --    0.16022   0.16516   0.16564   0.16907   0.17456
 Alpha virt. eigenvalues --    0.17549   0.18136   0.18766   0.18938   0.19116

 Mulliken charges:
               1
     1  C    0.244462
     2  C   -0.099379
     3  C    0.163863
     4  C    0.231862
     5  C    0.106846
     6  C    0.137872
     7  C    0.047032
     8  C    0.270761
     9  C    0.282335
    10  C   -0.763007
    11  C    0.141613
    12  C    0.120993
    13  C   -0.482368
    14  C   -0.580504
    15  H    0.103190
    16  H    0.108204
    17  H    0.124099
    18  N   -0.032524
    19  N   -0.139116
    20  O   -0.426635
    21  O   -0.401840
    22  O   -0.421214
    23  O   -0.350090
    24  C   -0.151568
    25  H    0.141160
    26  H    0.133461
    27  H    0.155945
    28  C   -0.181107
    29  H    0.134967
    30  H    0.135449
    31  H    0.156786
    32  C    0.168335
    33  C   -0.416231
    34  S   -0.881561
    35  C   -0.637468
    36  H    0.106923
    37  C    0.624492
    38  O   -0.129904
    39  C    0.477541
    40  C   -0.233135
    41  C   -0.020426
    42  S   -0.357192
    43  H    0.132563
    44  H    0.142385
    45  H    0.133374
    46  C    0.002040
    47  O   -0.138051
    48  C   -0.226055
    49  H    0.092367
    50  C   -0.301547
    51  H    0.118141
    52  H    0.184622
    53  H    0.147260
    54  H    0.099981
 Sum of Mulliken charges =  -2.00000

 Dipole moment (field-independent basis, Debye):
    X=             13.7613    Y=             -3.6182    Z=             -1.5989  Tot=             14.3185
 Quadrupole moment (field-independent basis, Debye-Ang):
   XX=           -421.0675   YY=           -302.9131   ZZ=           -242.5618
   XY=              6.1754   XZ=              4.5628   YZ=              1.0028

 Normal termination of Gaussian 16 at Wed Oct  6 01:56:45 2021.
