 Gaussian 16, Revision C.01,
 Gaussian 16:  ES64L-G16RevC.01  3-Jul-2019

 -------------------------------------
 # opt=modredundant b3lyp/6-311+g(d,p)
 -------------------------------------

 -----------
 NDI_-70.pdb
 -----------
 Symbolic Z-matrix:
 Charge = -2 Multiplicity = 1

 SCF Done:  E(RB3LYP) =  -2359.37463038     A.U. after   23 cycles
 SCF Done:  E(RB3LYP) =  -2359.39101778     A.U. after   15 cycles
 SCF Done:  E(RB3LYP) =  -2359.39328912     A.U. after   14 cycles
 SCF Done:  E(RB3LYP) =  -2359.39325378     A.U. after   14 cycles
 SCF Done:  E(RB3LYP) =  -2359.39357767     A.U. after   13 cycles
 SCF Done:  E(RB3LYP) =  -2359.39360304     A.U. after   13 cycles
 SCF Done:  E(RB3LYP) =  -2359.39361404     A.U. after   13 cycles
 SCF Done:  E(RB3LYP) =  -2359.39362207     A.U. after   13 cycles
 SCF Done:  E(RB3LYP) =  -2359.39363097     A.U. after   13 cycles
 SCF Done:  E(RB3LYP) =  -2359.39363838     A.U. after   13 cycles
 SCF Done:  E(RB3LYP) =  -2359.39665959     A.U. after   13 cycles
 SCF Done:  E(RB3LYP) =  -2359.39666575     A.U. after   12 cycles
 SCF Done:  E(RB3LYP) =  -2359.39666850     A.U. after   12 cycles
 SCF Done:  E(RB3LYP) =  -2359.39666912     A.U. after   11 cycles
 SCF Done:  E(RB3LYP) =  -2359.39666968     A.U. after   11 cycles
 SCF Done:  E(RB3LYP) =  -2359.39666991     A.U. after   10 cycles
 SCF Done:  E(RB3LYP) =  -2359.39667026     A.U. after   10 cycles
 SCF Done:  E(RB3LYP) =  -2359.39667061     A.U. after   11 cycles
 SCF Done:  E(RB3LYP) =  -2359.39667079     A.U. after   11 cycles
 SCF Done:  E(RB3LYP) =  -2359.39667083     A.U. after   10 cycles
 Optimization completed.
    -- Stationary point found.

                         Standard orientation:
 ---------------------------------------------------------------------
 Center     Atomic      Atomic             Coordinates (Angstroms)
 Number     Number       Type             X           Y           Z
 ---------------------------------------------------------------------
      1          6           0        2.715558   -2.889838    0.524255
      2          6           0        2.338911   -1.520753    0.296955
      3          6           0        3.331873   -0.529919    0.063335
      4          6           0        4.705338   -0.864860    0.034671
      5          6           0        5.129063   -2.225664    0.252265
      6          6           0        0.969497   -1.158166    0.319397
      7          6           0        2.915571    0.839093   -0.152823
      8          6           0        1.529316    1.182675   -0.113058
      9          6           0        0.547260    0.146570    0.174846
     10          6           0        1.142650    2.542314   -0.367114
     11          6           0        3.565275    3.181078   -0.661572
     12          6           0        3.919043    1.809724   -0.413289
     13          6           0        5.300106    1.436362   -0.438139
     14          6           0        5.685054    0.146757   -0.218334
     15          1           0        6.726824   -0.149954   -0.234263
     16          1           0        6.021647    2.218964   -0.640495
     17          1           0        0.252276   -1.944850    0.517514
     18          7           0        2.186243    3.460662   -0.641143
     19          7           0        4.099195   -3.165993    0.484200
     20          8           0        1.927620   -3.832210    0.747585
     21          8           0        6.318966   -2.604656    0.247300
     22          8           0        4.384489    4.098380   -0.890158
     23          8           0       -0.025852    2.985883   -0.376039
     24          6           0        1.763675    4.829927   -0.911993
     25          1           0        1.040288    4.842300   -1.730403
     26          1           0        1.268614    5.258997   -0.035457
     27          1           0        2.654191    5.400922   -1.163150
     28          6           0        4.477241   -4.555850    0.710230
     29          1           0        4.142202   -4.884284    1.698189
     30          1           0        3.994510   -5.202016   -0.027650
     31          1           0        5.559876   -4.616725    0.631110
     32          6           0       -0.899005    0.392475    0.275878
     33          6           0       -1.614228    1.068948    1.241795
     34         16           0       -1.991996   -0.505098   -0.757282
     35          6           0       -3.007179    0.891258    1.142727
     36          1           0       -1.122576    1.692051    1.972645
     37          6           0       -3.426657    0.041056    0.122092
     38          8           0       -3.944536    1.452970    1.976155
     39          6           0       -4.761114   -0.353140   -0.219425
     40          6           0       -3.500781    2.493739    2.831315
     41          6           0       -5.191489   -1.319871   -1.124459
     42         16           0       -6.190351    0.424071    0.483921
     43          1           0       -4.395724    2.895119    3.309658
     44          1           0       -2.819112    2.115093    3.602130
     45          1           0       -2.995482    3.283082    2.265086
     46          6           0       -6.601181   -1.422490   -1.264930
     47          8           0       -4.325971   -2.092136   -1.873216
     48          6           0       -7.283060   -0.549488   -0.466387
     49          1           0       -7.066838   -2.124268   -1.946296
     50          6           0       -3.944328   -3.323943   -1.255173
     51          1           0       -8.349360   -0.418322   -0.364016
     52          1           0       -4.816377   -3.976891   -1.118605
     53          1           0       -3.228666   -3.800312   -1.926074
     54          1           0       -3.462987   -3.148976   -0.288929
 ---------------------------------------------------------------------

 The electronic state is 1-A.
 Alpha  occ. eigenvalues --  -88.71934 -88.68869 -18.99996 -18.98978 -18.87005
 Alpha  occ. eigenvalues --  -18.86726 -18.86408 -18.86027 -14.14847 -14.14404
 Alpha  occ. eigenvalues --  -10.07886 -10.06998 -10.06536 -10.06381 -10.05620
 Alpha  occ. eigenvalues --  -10.05469 -10.05146 -10.04883 -10.04719 -10.04386
 Alpha  occ. eigenvalues --  -10.02866 -10.02610 -10.02585 -10.00345  -9.99876
 Alpha  occ. eigenvalues --   -9.98823  -9.98053  -9.97962  -9.97947  -9.96327
 Alpha  occ. eigenvalues --   -9.95899  -9.95559  -9.95441  -9.95310  -9.95271
 Alpha  occ. eigenvalues --   -9.95210  -7.80487  -7.77434  -5.76799  -5.76427
 Alpha  occ. eigenvalues --   -5.76042  -5.73762  -5.73366  -5.72975  -0.91276
 Alpha  occ. eigenvalues --   -0.90196  -0.82752  -0.82261  -0.80291  -0.79738
 Alpha  occ. eigenvalues --   -0.72545  -0.71466  -0.70944  -0.69911  -0.66338
 Alpha  occ. eigenvalues --   -0.62158  -0.59987  -0.59107  -0.58993  -0.58161
 Alpha  occ. eigenvalues --   -0.55250  -0.54427  -0.52931  -0.52846  -0.52157
 Alpha  occ. eigenvalues --   -0.50417  -0.49553  -0.47285  -0.43932  -0.42882
 Alpha  occ. eigenvalues --   -0.42126  -0.41769  -0.40307  -0.39759  -0.38712
 Alpha  occ. eigenvalues --   -0.37250  -0.36953  -0.33829  -0.33517  -0.32119
 Alpha  occ. eigenvalues --   -0.31863  -0.31523  -0.31129  -0.31099  -0.30137
 Alpha  occ. eigenvalues --   -0.29548  -0.28941  -0.26966  -0.26867  -0.26446
 Alpha  occ. eigenvalues --   -0.26318  -0.25768  -0.24960  -0.24821  -0.24552
 Alpha  occ. eigenvalues --   -0.23751  -0.23020  -0.22316  -0.22216  -0.21557
 Alpha  occ. eigenvalues --   -0.20899  -0.20763  -0.20600  -0.20360  -0.20151
 Alpha  occ. eigenvalues --   -0.19446  -0.19186  -0.18843  -0.18654  -0.17815
 Alpha  occ. eigenvalues --   -0.17791  -0.17193  -0.17007  -0.16306  -0.16088
 Alpha  occ. eigenvalues --   -0.15493  -0.14776  -0.14688  -0.12700  -0.12030
 Alpha  occ. eigenvalues --   -0.11233  -0.10089  -0.09368  -0.06661  -0.06479
 Alpha  occ. eigenvalues --   -0.06172  -0.05851  -0.05419  -0.05194  -0.04293
 Alpha  occ. eigenvalues --   -0.04093  -0.03472  -0.01519  -0.00482   0.06977
 Alpha virt. eigenvalues --    0.11674   0.12509   0.13515   0.14072   0.15471
 Alpha virt. eigenvalues --    0.16110   0.16436   0.16867   0.16891   0.17083
 Alpha virt. eigenvalues --    0.17198   0.17743   0.18276   0.18319   0.18617

 Mulliken charges:
               1
     1  C    0.307703
     2  C   -0.098761
     3  C    0.052072
     4  C    0.227027
     5  C    0.128500
     6  C   -0.793302
     7  C    0.205249
     8  C    0.096072
     9  C    0.654074
    10  C   -0.364458
    11  C    0.215190
    12  C    0.172036
    13  C   -0.550319
    14  C   -0.636689
    15  H    0.102265
    16  H    0.105010
    17  H    0.134854
    18  N   -0.155934
    19  N   -0.136980
    20  O   -0.431921
    21  O   -0.417655
    22  O   -0.426041
    23  O   -0.302247
    24  C   -0.195075
    25  H    0.140049
    26  H    0.128911
    27  H    0.158297
    28  C   -0.180123
    29  H    0.132004
    30  H    0.134187
    31  H    0.157281
    32  C   -0.009317
    33  C   -0.362285
    34  S   -0.403695
    35  C   -0.506156
    36  H    0.107785
    37  C    0.479289
    38  O   -0.129430
    39  C    0.424690
    40  C   -0.265805
    41  C    0.163817
    42  S   -0.357634
    43  H    0.130125
    44  H    0.129379
    45  H    0.164009
    46  C   -0.144026
    47  O   -0.136303
    48  C   -0.177994
    49  H    0.095840
    50  C   -0.314098
    51  H    0.121947
    52  H    0.106661
    53  H    0.150470
    54  H    0.171455
 Sum of Mulliken charges =  -2.00000

 Dipole moment (field-independent basis, Debye):
    X=            -17.1656    Y=             -0.6286    Z=              2.6590  Tot=             17.3817
 Quadrupole moment (field-independent basis, Debye-Ang):
   XX=           -424.6530   YY=           -309.2135   ZZ=           -237.1863
   XY=              0.6623   XZ=             -2.2337   YZ=             19.0436

 Normal termination of Gaussian 16 at Thu Oct  7 20:32:37 2021.
