 Gaussian 16, Revision C.01,
 Gaussian 16:  ES64L-G16RevC.01  3-Jul-2019

 -------------------------------------
 # opt=modredundant b3lyp/6-311+g(d,p)
 -------------------------------------

 ------------
 NDI_-150.pdb
 ------------
 Symbolic Z-matrix:
 Charge = -2 Multiplicity = 1

 SCF Done:  E(RB3LYP) =  -2359.35707294     A.U. after   23 cycles
 SCF Done:  E(RB3LYP) =  -2359.37653928     A.U. after   20 cycles
 SCF Done:  E(RB3LYP) =  -2359.38902992     A.U. after   17 cycles
 SCF Done:  E(RB3LYP) =  -2359.39182590     A.U. after   15 cycles
 SCF Done:  E(RB3LYP) =  -2359.39229772     A.U. after   16 cycles
 SCF Done:  E(RB3LYP) =  -2359.39276316     A.U. after   15 cycles
 SCF Done:  E(RB3LYP) =  -2359.39313878     A.U. after   17 cycles
 SCF Done:  E(RB3LYP) =  -2359.39305038     A.U. after   18 cycles
 SCF Done:  E(RB3LYP) =  -2359.39389025     A.U. after   14 cycles
 SCF Done:  E(RB3LYP) =  -2359.39433505     A.U. after   14 cycles
 SCF Done:  E(RB3LYP) =  -2359.39911218     A.U. after   13 cycles
 SCF Done:  E(RB3LYP) =  -2359.39911620     A.U. after   12 cycles
 SCF Done:  E(RB3LYP) =  -2359.39912361     A.U. after   13 cycles
 SCF Done:  E(RB3LYP) =  -2359.39912731     A.U. after   12 cycles
 SCF Done:  E(RB3LYP) =  -2359.39912907     A.U. after   12 cycles
 SCF Done:  E(RB3LYP) =  -2359.39913001     A.U. after   11 cycles
 SCF Done:  E(RB3LYP) =  -2359.39913070     A.U. after   11 cycles
 SCF Done:  E(RB3LYP) =  -2359.39913109     A.U. after   11 cycles
 SCF Done:  E(RB3LYP) =  -2359.39913118     A.U. after   11 cycles
 SCF Done:  E(RB3LYP) =  -2359.39913120     A.U. after   10 cycles
 Optimization completed.
    -- Stationary point found.

                         Standard orientation:
 ---------------------------------------------------------------------
 Center     Atomic      Atomic             Coordinates (Angstroms)
 Number     Number       Type             X           Y           Z
 ---------------------------------------------------------------------
      1          6           0       -3.511159   -2.694667    0.185307
      2          6           0       -2.780584   -1.467509    0.003376
      3          6           0       -3.439931   -0.210548    0.118730
      4          6           0       -4.818660   -0.135648    0.410001
      5          6           0       -5.590896   -1.341571    0.603524
      6          6           0       -1.388939   -1.512550   -0.221638
      7          6           0       -2.671893    0.997100   -0.088164
      8          6           0       -1.276920    0.922093   -0.391283
      9          6           0       -0.612327   -0.378194   -0.386379
     10          6           0       -0.613035    2.117581   -0.829811
     11          6           0       -2.670638    3.472957   -0.295447
     12          6           0       -3.359887    2.237726   -0.022929
     13          6           0       -4.754050    2.280470    0.284229
     14          6           0       -5.465438    1.135803    0.499840
     15          1           0       -6.524279    1.153356    0.727237
     16          1           0       -5.221567    3.257003    0.328099
     17          1           0       -0.921562   -2.487659   -0.172657
     18          7           0       -1.331833    3.334726   -0.694548
     19          7           0       -4.885640   -2.559407    0.475161
     20          8           0       -3.031024   -3.843266    0.106236
     21          8           0       -6.809530   -1.361210    0.866098
     22          8           0       -3.190590    4.607179   -0.222750
     23          8           0        0.529596    2.185123   -1.328203
     24          6           0       -0.606184    4.540107   -1.078627
     25          1           0        0.341289    4.592343   -0.538054
     26          1           0       -0.370396    4.522259   -2.146963
     27          1           0       -1.241210    5.390897   -0.844053
     28          6           0       -5.623926   -3.803638    0.658038
     29          1           0       -5.549097   -4.421864   -0.240475
     30          1           0       -5.197970   -4.378235    1.485015
     31          1           0       -6.659075   -3.542487    0.863250
     32          6           0        0.828101   -0.602335   -0.402431
     33          6           0        1.482337   -1.696536   -0.961770
     34         16           0        1.975408    0.380220    0.483694
     35          6           0        2.860218   -1.734076   -0.688882
     36          1           0        0.958653   -2.418546   -1.570132
     37          6           0        3.337330   -0.675620    0.081945
     38          8           0        3.743197   -2.685785   -1.145015
     39          6           0        4.689836   -0.376825    0.444202
     40          6           0        3.212543   -3.736967   -1.929417
     41          6           0        5.215047    0.760043    1.058004
     42         16           0        6.016260   -1.524828    0.177404
     43          1           0        4.053593   -4.387831   -2.173928
     44          1           0        2.457403   -4.308189   -1.377085
     45          1           0        2.763857   -3.358985   -2.855815
     46          6           0        6.610570    0.707350    1.315776
     47          8           0        4.450186    1.840283    1.447040
     48          6           0        7.191967   -0.457545    0.903082
     49          1           0        7.139512    1.520560    1.798286
     50          6           0        4.284907    2.853789    0.447172
     51          1           0        8.226858   -0.757312    0.964748
     52          1           0        3.743204    2.470702   -0.421195
     53          1           0        3.691076    3.644476    0.907022
     54          1           0        5.260316    3.252668    0.138906
 ---------------------------------------------------------------------

 The electronic state is 1-A.
 Alpha  occ. eigenvalues --  -88.71291 -88.67881 -18.99791 -18.98016 -18.87722
 Alpha  occ. eigenvalues --  -18.87394 -18.86673 -18.86141 -14.15413 -14.14498
 Alpha  occ. eigenvalues --  -10.07923 -10.06169 -10.05913 -10.05801 -10.05780
 Alpha  occ. eigenvalues --  -10.05708 -10.05164 -10.04948 -10.04807 -10.03698
 Alpha  occ. eigenvalues --  -10.02190 -10.02129 -10.01954 -10.00847  -9.99959
 Alpha  occ. eigenvalues --   -9.98601  -9.98320  -9.98281  -9.98058  -9.96834
 Alpha  occ. eigenvalues --   -9.96166  -9.95936  -9.95892  -9.95725  -9.95623
 Alpha  occ. eigenvalues --   -9.95592  -7.79845  -7.76438  -5.76159  -5.75787
 Alpha  occ. eigenvalues --   -5.75397  -5.72773  -5.72377  -5.71960  -0.91083
 Alpha  occ. eigenvalues --   -0.89164  -0.83451  -0.82472  -0.81028  -0.79980
 Alpha  occ. eigenvalues --   -0.72095  -0.71829  -0.71117  -0.69328  -0.66656
 Alpha  occ. eigenvalues --   -0.62254  -0.59866  -0.59291  -0.58282  -0.57733
 Alpha  occ. eigenvalues --   -0.55393  -0.53793  -0.53369  -0.52520  -0.52033
 Alpha  occ. eigenvalues --   -0.50241  -0.49745  -0.47568  -0.43730  -0.42735
 Alpha  occ. eigenvalues --   -0.42360  -0.41788  -0.40384  -0.39736  -0.37978
 Alpha  occ. eigenvalues --   -0.37243  -0.36505  -0.34130  -0.33799  -0.32057
 Alpha  occ. eigenvalues --   -0.31908  -0.31504  -0.30381  -0.30055  -0.29825
 Alpha  occ. eigenvalues --   -0.29224  -0.28223  -0.27424  -0.27261  -0.26590
 Alpha  occ. eigenvalues --   -0.26155  -0.25387  -0.25256  -0.24921  -0.24590
 Alpha  occ. eigenvalues --   -0.23414  -0.23137  -0.22497  -0.21943  -0.21452
 Alpha  occ. eigenvalues --   -0.21185  -0.20876  -0.20795  -0.20387  -0.19891
 Alpha  occ. eigenvalues --   -0.19564  -0.19182  -0.18753  -0.18610  -0.18152
 Alpha  occ. eigenvalues --   -0.17889  -0.17574  -0.16714  -0.16452  -0.16127
 Alpha  occ. eigenvalues --   -0.15382  -0.14796  -0.14719  -0.12405  -0.11746
 Alpha  occ. eigenvalues --   -0.11574  -0.09760  -0.08753  -0.07004  -0.06868
 Alpha  occ. eigenvalues --   -0.06425  -0.06063  -0.05694  -0.05091  -0.04667
 Alpha  occ. eigenvalues --   -0.04571  -0.03347  -0.01650  -0.00146   0.06589
 Alpha virt. eigenvalues --    0.12105   0.12864   0.13617   0.14519   0.15815
 Alpha virt. eigenvalues --    0.15897   0.16524   0.16730   0.16887   0.17374
 Alpha virt. eigenvalues --    0.17468   0.17959   0.18594   0.18747   0.19014

 Mulliken charges:
               1
     1  C    0.222280
     2  C   -0.070692
     3  C    0.112217
     4  C    0.344919
     5  C    0.149869
     6  C   -0.145612
     7  C    0.205807
     8  C    0.070494
     9  C   -0.000335
    10  C   -0.460452
    11  C    0.257187
    12  C    0.255718
    13  C   -0.464043
    14  C   -0.634662
    15  H    0.103210
    16  H    0.107026
    17  H    0.124676
    18  N   -0.052784
    19  N   -0.137581
    20  O   -0.430470
    21  O   -0.408632
    22  O   -0.422163
    23  O   -0.349495
    24  C   -0.160931
    25  H    0.138906
    26  H    0.134951
    27  H    0.156676
    28  C   -0.179861
    29  H    0.133315
    30  H    0.135213
    31  H    0.157349
    32  C   -0.351555
    33  C   -0.118135
    34  S   -0.563924
    35  C   -0.401553
    36  H    0.116531
    37  C    0.238635
    38  O   -0.124446
    39  C    0.457523
    40  C   -0.230892
    41  C    0.050002
    42  S   -0.335859
    43  H    0.132071
    44  H    0.143653
    45  H    0.134744
    46  C   -0.042554
    47  O   -0.147820
    48  C   -0.200539
    49  H    0.094004
    50  C   -0.303491
    51  H    0.119948
    52  H    0.197962
    53  H    0.142323
    54  H    0.101271
 Sum of Mulliken charges =  -2.00000

 Dipole moment (field-independent basis, Debye):
    X=             15.0658    Y=             -3.0337    Z=             -1.9132  Tot=             15.4868
 Quadrupole moment (field-independent basis, Debye-Ang):
   XX=           -421.6009   YY=           -304.3152   ZZ=           -241.4020
   XY=              5.8537   XZ=              3.3463   YZ=              9.8712

 Normal termination of Gaussian 16 at Wed Oct  6 02:44:24 2021.
