 Gaussian 16, Revision C.01,
 Gaussian 16:  ES64L-G16RevC.01  3-Jul-2019

 -------------------------------------
 # opt=modredundant b3lyp/6-311+g(d,p)
 -------------------------------------

 -----------
 NDI_-35.pdb
 -----------
 Symbolic Z-matrix:
 Charge = -2 Multiplicity = 1

 SCF Done:  E(RB3LYP) =  -2359.38128061     A.U. after   23 cycles
 SCF Done:  E(RB3LYP) =  -2359.39544125     A.U. after   15 cycles
 SCF Done:  E(RB3LYP) =  -2359.39608680     A.U. after   16 cycles
 SCF Done:  E(RB3LYP) =  -2359.39637777     A.U. after   17 cycles
 SCF Done:  E(RB3LYP) =  -2359.39783573     A.U. after   15 cycles
 SCF Done:  E(RB3LYP) =  -2359.39792516     A.U. after   14 cycles
 SCF Done:  E(RB3LYP) =  -2359.39802055     A.U. after   14 cycles
 SCF Done:  E(RB3LYP) =  -2359.39804189     A.U. after   12 cycles
 SCF Done:  E(RB3LYP) =  -2359.39805227     A.U. after   13 cycles
 SCF Done:  E(RB3LYP) =  -2359.39805887     A.U. after   12 cycles
 SCF Done:  E(RB3LYP) =  -2359.40138660     A.U. after   10 cycles
 SCF Done:  E(RB3LYP) =  -2359.40138656     A.U. after   10 cycles
 SCF Done:  E(RB3LYP) =  -2359.40138676     A.U. after   10 cycles
 SCF Done:  E(RB3LYP) =  -2359.40138686     A.U. after   10 cycles
 SCF Done:  E(RB3LYP) =  -2359.40138694     A.U. after    9 cycles
 SCF Done:  E(RB3LYP) =  -2359.40138703     A.U. after   10 cycles
 SCF Done:  E(RB3LYP) =  -2359.40138707     A.U. after   10 cycles
 SCF Done:  E(RB3LYP) =  -2359.40138709     A.U. after    9 cycles
 SCF Done:  E(RB3LYP) =  -2359.40138710     A.U. after    9 cycles
 SCF Done:  E(RB3LYP) =  -2359.40138712     A.U. after   10 cycles
 Optimization completed.
    -- Stationary point found.

                         Standard orientation:
 ---------------------------------------------------------------------
 Center     Atomic      Atomic             Coordinates (Angstroms)
 Number     Number       Type             X           Y           Z
 ---------------------------------------------------------------------
      1          6           0        2.635905   -2.976304    0.170424
      2          6           0        2.299083   -1.582461    0.029524
      3          6           0        3.317110   -0.587135    0.048273
      4          6           0        4.675579   -0.941445    0.192087
      5          6           0        5.060611   -2.328182    0.326982
      6          6           0        0.945731   -1.201259   -0.057436
      7          6           0        2.934284    0.801314   -0.091137
      8          6           0        1.556861    1.163657   -0.236740
      9          6           0        0.533028    0.117682   -0.150247
     10          6           0        1.246365    2.528628   -0.563951
     11          6           0        3.674875    3.164371   -0.300845
     12          6           0        3.973754    1.769725   -0.107780
     13          6           0        5.338969    1.379329    0.047283
     14          6           0        5.686059    0.068592    0.196969
     15          1           0        6.717095   -0.242945    0.310833
     16          1           0        6.082790    2.167020    0.032458
     17          1           0        0.214090   -1.993779    0.037114
     18          7           0        2.322970    3.456621   -0.534189
     19          7           0        4.009878   -3.271063    0.301746
     20          8           0        1.822852   -3.920477    0.184080
     21          8           0        6.236549   -2.720071    0.459625
     22          8           0        4.524693    4.081420   -0.291601
     23          8           0        0.127134    2.984848   -0.880590
     24          6           0        1.966422    4.840259   -0.827442
     25          1           0        1.534559    4.916879   -1.828795
     26          1           0        1.210113    5.193745   -0.121646
     27          1           0        2.875025    5.432429   -0.750987
     28          6           0        4.349048   -4.683311    0.433560
     29          1           0        3.890005   -5.102123    1.333598
     30          1           0        3.960398   -5.243129   -0.420673
     31          1           0        5.432380   -4.756140    0.487299
     32          6           0       -0.893645    0.367543   -0.016406
     33          6           0       -1.555438    1.374443    0.666713
     34         16           0       -2.069573   -0.769737   -0.678881
     35          6           0       -2.950417    1.218093    0.694099
     36          1           0       -1.024428    2.200996    1.106879
     37          6           0       -3.443650    0.090345    0.039073
     38          8           0       -3.831771    2.066287    1.318384
     39          6           0       -4.797410   -0.348944   -0.086346
     40          6           0       -3.308474    3.293187    1.803114
     41          6           0       -5.300772   -1.530213   -0.631630
     42         16           0       -6.170513    0.642632    0.444680
     43          1           0       -4.166863    3.871990    2.148118
     44          1           0       -2.621008    3.130062    2.641431
     45          1           0       -2.782252    3.838933    1.013521
     46          6           0       -6.716553   -1.630517   -0.639633
     47          8           0       -4.496333   -2.514492   -1.173557
     48          6           0       -7.335858   -0.542008   -0.094100
     49          1           0       -7.234282   -2.490040   -1.048585
     50          6           0       -4.103393   -3.533475   -0.251770
     51          1           0       -8.391310   -0.356300    0.032818
     52          1           0       -4.978435   -4.089548    0.110388
     53          1           0       -3.437895   -4.205835   -0.794551
     54          1           0       -3.561993   -3.109035    0.598539
 ---------------------------------------------------------------------

 The electronic state is 1-A.
 Alpha  occ. eigenvalues --  -88.71351 -88.68216 -18.99498 -18.98494 -18.87793
 Alpha  occ. eigenvalues --  -18.87401 -18.86787 -18.86170 -14.15444 -14.14656
 Alpha  occ. eigenvalues --  -10.07267 -10.06590 -10.06240 -10.05902 -10.05901
 Alpha  occ. eigenvalues --  -10.05839 -10.05257 -10.05093 -10.04993 -10.03758
 Alpha  occ. eigenvalues --  -10.02352 -10.02054 -10.02037 -10.00852 -10.00138
 Alpha  occ. eigenvalues --   -9.98476  -9.98383  -9.98221  -9.98048  -9.96846
 Alpha  occ. eigenvalues --   -9.96244  -9.96159  -9.95992  -9.95796  -9.95728
 Alpha  occ. eigenvalues --   -9.95666  -7.79900  -7.76784  -5.76216  -5.75843
 Alpha  occ. eigenvalues --   -5.75451  -5.73120  -5.72737  -5.72298  -0.90777
 Alpha  occ. eigenvalues --   -0.89678  -0.83525  -0.82596  -0.81104  -0.80070
 Alpha  occ. eigenvalues --   -0.72149  -0.71925  -0.71210  -0.69298  -0.66710
 Alpha  occ. eigenvalues --   -0.62268  -0.59948  -0.59331  -0.58464  -0.57665
 Alpha  occ. eigenvalues --   -0.55252  -0.54200  -0.53201  -0.52675  -0.52280
 Alpha  occ. eigenvalues --   -0.50279  -0.49819  -0.47551  -0.44047  -0.42722
 Alpha  occ. eigenvalues --   -0.42408  -0.41885  -0.40494  -0.39717  -0.38196
 Alpha  occ. eigenvalues --   -0.37172  -0.36462  -0.34200  -0.33846  -0.31817
 Alpha  occ. eigenvalues --   -0.31524  -0.31367  -0.30864  -0.30668  -0.30045
 Alpha  occ. eigenvalues --   -0.29150  -0.28570  -0.27453  -0.27130  -0.26701
 Alpha  occ. eigenvalues --   -0.26326  -0.25512  -0.25303  -0.24984  -0.24441
 Alpha  occ. eigenvalues --   -0.23340  -0.23242  -0.22411  -0.22264  -0.21605
 Alpha  occ. eigenvalues --   -0.21207  -0.20930  -0.20677  -0.20383  -0.19892
 Alpha  occ. eigenvalues --   -0.19568  -0.19286  -0.19124  -0.18686  -0.18345
 Alpha  occ. eigenvalues --   -0.18003  -0.17639  -0.16842  -0.16362  -0.15964
 Alpha  occ. eigenvalues --   -0.15390  -0.15059  -0.14885  -0.12698  -0.11971
 Alpha  occ. eigenvalues --   -0.11648  -0.09880  -0.08896  -0.07064  -0.06945
 Alpha  occ. eigenvalues --   -0.06400  -0.06249  -0.05620  -0.05416  -0.04750
 Alpha  occ. eigenvalues --   -0.04679  -0.03472  -0.01724  -0.00151   0.06495
 Alpha virt. eigenvalues --    0.11941   0.12804   0.13909   0.14433   0.15713
 Alpha virt. eigenvalues --    0.15827   0.16598   0.16743   0.16853   0.17159
 Alpha virt. eigenvalues --    0.17377   0.17965   0.18511   0.18768   0.19039

 Mulliken charges:
               1
     1  C    0.213997
     2  C   -0.112778
     3  C    0.118791
     4  C    0.240891
     5  C    0.097004
     6  C   -0.197818
     7  C    0.258300
     8  C    0.330477
     9  C    0.324579
    10  C   -0.607073
    11  C    0.082139
    12  C    0.205856
    13  C   -0.458671
    14  C   -0.602378
    15  H    0.103167
    16  H    0.106920
    17  H    0.144437
    18  N   -0.093430
    19  N   -0.135792
    20  O   -0.426347
    21  O   -0.407632
    22  O   -0.418271
    23  O   -0.354705
    24  C   -0.175276
    25  H    0.137635
    26  H    0.129126
    27  H    0.155598
    28  C   -0.180273
    29  H    0.133687
    30  H    0.136404
    31  H    0.156297
    32  C   -0.029436
    33  C   -0.472191
    34  S   -0.717066
    35  C   -0.498430
    36  H    0.129070
    37  C    0.479251
    38  O   -0.126436
    39  C    0.511656
    40  C   -0.257933
    41  C    0.168083
    42  S   -0.386457
    43  H    0.128614
    44  H    0.130131
    45  H    0.168488
    46  C   -0.153935
    47  O   -0.137339
    48  C   -0.177866
    49  H    0.093695
    50  C   -0.302503
    51  H    0.119613
    52  H    0.105720
    53  H    0.150940
    54  H    0.169471
 Sum of Mulliken charges =  -2.00000

 Dipole moment (field-independent basis, Debye):
    X=            -15.0716    Y=             -0.0930    Z=              2.5009  Tot=             15.2780
 Quadrupole moment (field-independent basis, Debye-Ang):
   XX=           -426.6793   YY=           -307.0714   ZZ=           -238.6298
   XY=             -3.0940   XZ=             -9.6442   YZ=              9.8808

 Normal termination of Gaussian 16 at Fri Oct  8 10:44:18 2021.
