 Gaussian 16, Revision C.01,
 Gaussian 16:  ES64L-G16RevC.01  3-Jul-2019

 -------------------------------------
 # opt=modredundant b3lyp/6-311+g(d,p)
 -------------------------------------

 ----------
 NDI_85.pdb
 ----------
 Symbolic Z-matrix:
 Charge = -2 Multiplicity = 1

 SCF Done:  E(RB3LYP) =  -2359.36785982     A.U. after   30 cycles
 SCF Done:  E(RB3LYP) =  -2359.38668725     A.U. after   17 cycles
 SCF Done:  E(RB3LYP) =  -2359.39014044     A.U. after   16 cycles
 SCF Done:  E(RB3LYP) =  -2359.39059387     A.U. after   16 cycles
 SCF Done:  E(RB3LYP) =  -2359.39071309     A.U. after   15 cycles
 SCF Done:  E(RB3LYP) =  -2359.39083011     A.U. after   13 cycles
 SCF Done:  E(RB3LYP) =  -2359.39087136     A.U. after   13 cycles
 SCF Done:  E(RB3LYP) =  -2359.39091051     A.U. after   13 cycles
 SCF Done:  E(RB3LYP) =  -2359.39093778     A.U. after   13 cycles
 SCF Done:  E(RB3LYP) =  -2359.39097338     A.U. after   13 cycles
 SCF Done:  E(RB3LYP) =  -2359.39386195     A.U. after   13 cycles
 SCF Done:  E(RB3LYP) =  -2359.39386242     A.U. after   13 cycles
 SCF Done:  E(RB3LYP) =  -2359.39386228     A.U. after   11 cycles
 SCF Done:  E(RB3LYP) =  -2359.39386242     A.U. after   12 cycles
 SCF Done:  E(RB3LYP) =  -2359.39386344     A.U. after   11 cycles
 SCF Done:  E(RB3LYP) =  -2359.39386392     A.U. after   11 cycles
 SCF Done:  E(RB3LYP) =  -2359.39386420     A.U. after   11 cycles
 SCF Done:  E(RB3LYP) =  -2359.39386459     A.U. after   11 cycles
 SCF Done:  E(RB3LYP) =  -2359.39386483     A.U. after   11 cycles
 SCF Done:  E(RB3LYP) =  -2359.39386487     A.U. after   10 cycles
 Optimization completed.
    -- Stationary point found.

                         Standard orientation:
 ---------------------------------------------------------------------
 Center     Atomic      Atomic             Coordinates (Angstroms)
 Number     Number       Type             X           Y           Z
 ---------------------------------------------------------------------
      1          6           0       -3.250101   -2.846348    0.074290
      2          6           0       -2.638433   -1.547950    0.080226
      3          6           0       -3.435921   -0.378233   -0.038285
      4          6           0       -4.843444   -0.460058   -0.175052
      5          6           0       -5.499458   -1.740185   -0.191365
      6          6           0       -1.225831   -1.433671    0.223304
      7          6           0       -2.789774    0.917691   -0.020843
      8          6           0       -1.372479    1.005208    0.123133
      9          6           0       -0.597834   -0.215360    0.274005
     10          6           0       -0.744016    2.294195    0.110651
     11          6           0       -3.001723    3.385678   -0.156320
     12          6           0       -3.596171    2.078575   -0.155001
     13          6           0       -5.017786    1.958227   -0.294554
     14          6           0       -5.621271    0.736329   -0.302339
     15          1           0       -6.694498    0.630481   -0.407421
     16          1           0       -5.586711    2.875011   -0.394285
     17          1           0       -0.657699   -2.350645    0.325002
     18          7           0       -1.596622    3.412716   -0.030798
     19          7           0       -4.654995   -2.868315   -0.066347
     20          8           0       -2.646334   -3.936055    0.182792
     21          8           0       -6.734246   -1.905153   -0.305726
     22          8           0       -3.635405    4.460287   -0.262113
     23          8           0        0.485737    2.511885    0.208465
     24          6           0       -0.935072    4.711823   -0.044365
     25          1           0       -0.391484    4.872000    0.891247
     26          1           0       -0.202439    4.753593   -0.854673
     27          1           0       -1.706431    5.466783   -0.176155
     28          6           0       -5.271228   -4.189181   -0.077131
     29          1           0       -4.850983   -4.794387   -0.884910
     30          1           0       -5.064334   -4.712589    0.860892
     31          1           0       -6.340995   -4.048559   -0.211937
     32          6           0        0.864939   -0.200183    0.494425
     33          6           0        1.552088   -0.068500    1.675972
     34         16           0        1.964577   -0.564202   -0.810199
     35          6           0        2.952509   -0.199388    1.529817
     36          1           0        1.044347    0.154199    2.602436
     37          6           0        3.383532   -0.460971    0.236097
     38          8           0        3.873078   -0.109866    2.544486
     39          6           0        4.731537   -0.616914   -0.238520
     40          6           0        3.423241    0.430880    3.776509
     41          6           0        5.202501   -0.669221   -1.544322
     42         16           0        6.106857   -0.795925    0.859628
     43          1           0        4.308898    0.526614    4.406443
     44          1           0        2.963682    1.414352    3.632440
     45          1           0        2.702364   -0.234092    4.265857
     46          6           0        6.606987   -0.857474   -1.664667
     47          8           0        4.384168   -0.584294   -2.650835
     48          6           0        7.236871   -0.943847   -0.457173
     49          1           0        7.104051   -0.923525   -2.624673
     50          6           0        4.156548    0.750430   -3.117553
     51          1           0        8.289223   -1.068608   -0.252439
     52          1           0        5.097637    1.211022   -3.444628
     53          1           0        3.473384    0.668977   -3.963502
     54          1           0        3.693104    1.366851   -2.342738
 ---------------------------------------------------------------------

 The electronic state is 1-A.
 Alpha  occ. eigenvalues --  -88.72751 -88.69334 -19.00644 -18.99518 -18.86147
 Alpha  occ. eigenvalues --  -18.85955 -18.85911 -18.85813 -14.14144 -14.14105
 Alpha  occ. eigenvalues --  -10.08500 -10.07379 -10.07354 -10.07045 -10.06362
 Alpha  occ. eigenvalues --  -10.05250 -10.04625 -10.04422 -10.04377 -10.04340
 Alpha  occ. eigenvalues --  -10.03564 -10.03311 -10.03187  -9.99738  -9.99663
 Alpha  occ. eigenvalues --   -9.99431  -9.97568  -9.97458  -9.97393  -9.95721
 Alpha  occ. eigenvalues --   -9.95530  -9.94779  -9.94753  -9.94750  -9.94701
 Alpha  occ. eigenvalues --   -9.94636  -7.81308  -7.77906  -5.77617  -5.77242
 Alpha  occ. eigenvalues --   -5.76871  -5.74234  -5.73833  -5.73450  -0.91933
 Alpha  occ. eigenvalues --   -0.90773  -0.81897  -0.81849  -0.79389  -0.79301
 Alpha  occ. eigenvalues --   -0.73377  -0.70697  -0.70661  -0.70451  -0.65845
 Alpha  occ. eigenvalues --   -0.62225  -0.60069  -0.59648  -0.58799  -0.58548
 Alpha  occ. eigenvalues --   -0.55582  -0.54430  -0.53434  -0.52438  -0.51712
 Alpha  occ. eigenvalues --   -0.50636  -0.49112  -0.46941  -0.44217  -0.43124
 Alpha  occ. eigenvalues --   -0.41661  -0.41609  -0.40348  -0.39352  -0.39277
 Alpha  occ. eigenvalues --   -0.37731  -0.37084  -0.33398  -0.33109  -0.32745
 Alpha  occ. eigenvalues --   -0.32410  -0.31858  -0.31629  -0.31119  -0.30314
 Alpha  occ. eigenvalues --   -0.29645  -0.29174  -0.27007  -0.26499  -0.26250
 Alpha  occ. eigenvalues --   -0.26098  -0.25838  -0.25099  -0.24618  -0.24398
 Alpha  occ. eigenvalues --   -0.24026  -0.22872  -0.22530  -0.22057  -0.21589
 Alpha  occ. eigenvalues --   -0.21033  -0.20657  -0.20248  -0.20153  -0.19869
 Alpha  occ. eigenvalues --   -0.19710  -0.18919  -0.18383  -0.18351  -0.17681
 Alpha  occ. eigenvalues --   -0.17283  -0.17158  -0.16772  -0.16275  -0.15860
 Alpha  occ. eigenvalues --   -0.15665  -0.14266  -0.14165  -0.13282  -0.11747
 Alpha  occ. eigenvalues --   -0.11289  -0.10122  -0.09636  -0.06655  -0.05943
 Alpha  occ. eigenvalues --   -0.05767  -0.05266  -0.05196  -0.04641  -0.03860
 Alpha  occ. eigenvalues --   -0.03603  -0.03123  -0.01831  -0.00147   0.07483
 Alpha virt. eigenvalues --    0.11164   0.12114   0.13150   0.13693   0.15141
 Alpha virt. eigenvalues --    0.15911   0.16044   0.16683   0.16891   0.17104
 Alpha virt. eigenvalues --    0.17470   0.17582   0.17843   0.17949   0.18499

 Mulliken charges:
               1
     1  C    0.318496
     2  C   -0.015712
     3  C    0.182716
     4  C    0.234760
     5  C    0.109156
     6  C   -0.492666
     7  C    0.222011
     8  C   -0.073482
     9  C    0.527665
    10  C   -0.457265
    11  C    0.005036
    12  C    0.277877
    13  C   -0.537917
    14  C   -0.673196
    15  H    0.101176
    16  H    0.102449
    17  H    0.113326
    18  N   -0.155145
    19  N   -0.138348
    20  O   -0.437035
    21  O   -0.428163
    22  O   -0.427511
    23  O   -0.283678
    24  C   -0.213285
    25  H    0.128622
    26  H    0.132869
    27  H    0.157728
    28  C   -0.179102
    29  H    0.132657
    30  H    0.130049
    31  H    0.154866
    32  C    0.228710
    33  C   -0.571175
    34  S   -0.250312
    35  C   -0.485862
    36  H    0.096470
    37  C    0.314702
    38  O   -0.130828
    39  C    0.440770
    40  C   -0.241718
    41  C    0.039516
    42  S   -0.340357
    43  H    0.132138
    44  H    0.157897
    45  H    0.133689
    46  C   -0.009950
    47  O   -0.152698
    48  C   -0.206187
    49  H    0.098559
    50  C   -0.337327
    51  H    0.124632
    52  H    0.108062
    53  H    0.147572
    54  H    0.184741
 Sum of Mulliken charges =  -2.00000

 Dipole moment (field-independent basis, Debye):
    X=             19.8903    Y=              0.4344    Z=              2.0191  Tot=             19.9973
 Quadrupole moment (field-independent basis, Debye-Ang):
   XX=           -422.5468   YY=           -322.0231   ZZ=           -225.9283
   XY=              6.8102   XZ=             -3.5644   YZ=              0.3608

 Normal termination of Gaussian 16 at Fri Oct  8 13:23:06 2021.
