 Gaussian 16, Revision C.01,
 Gaussian 16:  ES64L-G16RevC.01  3-Jul-2019

 -------------------------------------
 # opt=modredundant b3lyp/6-311+g(d,p)
 -------------------------------------

 ------------
 NDI_-120.pdb
 ------------
 Symbolic Z-matrix:
 Charge = -2 Multiplicity = 1

 SCF Done:  E(RB3LYP) =  -2359.36998315     A.U. after   24 cycles
 SCF Done:  E(RB3LYP) =  -2359.38770200     A.U. after   18 cycles
 SCF Done:  E(RB3LYP) =  -2359.39058722     A.U. after   16 cycles
 SCF Done:  E(RB3LYP) =  -2359.39169912     A.U. after   18 cycles
 SCF Done:  E(RB3LYP) =  -2359.39206346     A.U. after   15 cycles
 SCF Done:  E(RB3LYP) =  -2359.39226589     A.U. after   16 cycles
 SCF Done:  E(RB3LYP) =  -2359.39235814     A.U. after   14 cycles
 SCF Done:  E(RB3LYP) =  -2359.39238460     A.U. after   14 cycles
 SCF Done:  E(RB3LYP) =  -2359.39239220     A.U. after   12 cycles
 SCF Done:  E(RB3LYP) =  -2359.39240260     A.U. after   13 cycles
 SCF Done:  E(RB3LYP) =  -2359.39693612     A.U. after   14 cycles
 SCF Done:  E(RB3LYP) =  -2359.39694375     A.U. after   14 cycles
 SCF Done:  E(RB3LYP) =  -2359.39695172     A.U. after   12 cycles
 SCF Done:  E(RB3LYP) =  -2359.39694495     A.U. after   13 cycles
 SCF Done:  E(RB3LYP) =  -2359.39696575     A.U. after   12 cycles
 SCF Done:  E(RB3LYP) =  -2359.39697023     A.U. after   13 cycles
 SCF Done:  E(RB3LYP) =  -2359.39697321     A.U. after   13 cycles
 SCF Done:  E(RB3LYP) =  -2359.39697358     A.U. after   11 cycles
 SCF Done:  E(RB3LYP) =  -2359.39697367     A.U. after   10 cycles
 SCF Done:  E(RB3LYP) =  -2359.39697369     A.U. after    9 cycles
 Optimization completed.
    -- Stationary point found.

                         Standard orientation:
 ---------------------------------------------------------------------
 Center     Atomic      Atomic             Coordinates (Angstroms)
 Number     Number       Type             X           Y           Z
 ---------------------------------------------------------------------
      1          6           0       -3.584330   -2.677950    0.354520
      2          6           0       -2.820530   -1.479713    0.139493
      3          6           0       -3.459867   -0.208918    0.131977
      4          6           0       -4.854348   -0.092037    0.335114
      5          6           0       -5.659108   -1.266397    0.563684
      6          6           0       -1.415148   -1.562874   -0.028691
      7          6           0       -2.662671    0.974763   -0.111240
      8          6           0       -1.254265    0.860137   -0.323714
      9          6           0       -0.626239   -0.448753   -0.212148
     10          6           0       -0.516825    2.025159   -0.723678
     11          6           0       -2.595022    3.431161   -0.463986
     12          6           0       -3.326088    2.228672   -0.166567
     13          6           0       -4.738051    2.312009    0.049122
     14          6           0       -5.479546    1.194433    0.296345
     15          1           0       -6.549924    1.242097    0.456372
     16          1           0       -5.190259    3.295425   -0.000452
     17          1           0       -0.959869   -2.542133    0.057984
     18          7           0       -1.226736    3.251602   -0.739516
     19          7           0       -4.969929   -2.500756    0.558442
     20          8           0       -3.124558   -3.839211    0.373876
     21          8           0       -6.893046   -1.251195    0.755733
     22          8           0       -3.095653    4.576607   -0.507353
     23          8           0        0.685699    2.056081   -1.065913
     24          6           0       -0.446927    4.425214   -1.114982
     25          1           0        0.402495    4.546371   -0.437723
     26          1           0       -0.042435    4.305542   -2.123896
     27          1           0       -1.110079    5.285307   -1.063861
     28          6           0       -5.741117   -3.717890    0.780672
     29          1           0       -5.643087   -4.389752   -0.076565
     30          1           0       -5.360990   -4.251198    1.656203
     31          1           0       -6.778189   -3.425318    0.925500
     32          6           0        0.820897   -0.680206   -0.278923
     33          6           0        1.496936   -1.460757   -1.194300
     34         16           0        1.943936    0.006611    0.872807
     35          6           0        2.895945   -1.482555   -0.993324
     36          1           0        0.980038   -1.950195   -2.006347
     37          6           0        3.343897   -0.708466    0.069147
     38          8           0        3.806540   -2.161232   -1.768152
     39          6           0        4.696114   -0.450072    0.479953
     40          6           0        3.307466   -2.842062   -2.904704
     41          6           0        5.191786    0.560655    1.298259
     42         16           0        6.042552   -1.494191    0.000298
     43          1           0        4.172323   -3.299474   -3.387766
     44          1           0        2.592646   -3.623886   -2.622726
     45          1           0        2.822310   -2.151173   -3.603846
     46          6           0        6.589754    0.488667    1.546656
     47          8           0        4.417308    1.543174    1.873522
     48          6           0        7.193147   -0.564872    0.921703
     49          1           0        7.102627    1.212127    2.168484
     50          6           0        4.077296    2.636722    1.005007
     51          1           0        8.237226   -0.838127    0.913917
     52          1           0        3.437623    2.312449    0.180992
     53          1           0        3.522961    3.348281    1.617628
     54          1           0        4.988178    3.110811    0.617870
 ---------------------------------------------------------------------

 The electronic state is 1-A.
 Alpha  occ. eigenvalues --  -88.71974 -88.68399 -19.00211 -18.98382 -18.86964
 Alpha  occ. eigenvalues --  -18.86679 -18.86348 -18.86027 -14.14811 -14.14334
 Alpha  occ. eigenvalues --  -10.08284 -10.06561 -10.06484 -10.05688 -10.05474
 Alpha  occ. eigenvalues --  -10.05428 -10.05092 -10.04833 -10.04651 -10.04491
 Alpha  occ. eigenvalues --  -10.02755 -10.02619 -10.02504 -10.00328  -9.99831
 Alpha  occ. eigenvalues --   -9.99118  -9.97986  -9.97901  -9.97725  -9.96268
 Alpha  occ. eigenvalues --   -9.95780  -9.95515  -9.95369  -9.95260  -9.95220
 Alpha  occ. eigenvalues --   -9.95162  -7.80537  -7.76984  -5.76847  -5.76475
 Alpha  occ. eigenvalues --   -5.76097  -5.73315  -5.72921  -5.72511  -0.91509
 Alpha  occ. eigenvalues --   -0.89526  -0.82699  -0.82195  -0.80233  -0.79680
 Alpha  occ. eigenvalues --   -0.72531  -0.71421  -0.70890  -0.69865  -0.66279
 Alpha  occ. eigenvalues --   -0.62147  -0.59917  -0.59061  -0.58719  -0.58243
 Alpha  occ. eigenvalues --   -0.55323  -0.54129  -0.53004  -0.52363  -0.52078
 Alpha  occ. eigenvalues --   -0.50393  -0.49496  -0.47310  -0.43697  -0.42893
 Alpha  occ. eigenvalues --   -0.42076  -0.41737  -0.40229  -0.39747  -0.38350
 Alpha  occ. eigenvalues --   -0.37203  -0.37001  -0.33774  -0.33487  -0.32435
 Alpha  occ. eigenvalues --   -0.31903  -0.31551  -0.30532  -0.30285  -0.29953
 Alpha  occ. eigenvalues --   -0.29503  -0.28587  -0.27062  -0.26849  -0.26398
 Alpha  occ. eigenvalues --   -0.26037  -0.25630  -0.24997  -0.24742  -0.24509
 Alpha  occ. eigenvalues --   -0.23779  -0.22920  -0.22220  -0.22071  -0.21532
 Alpha  occ. eigenvalues --   -0.21059  -0.20653  -0.20469  -0.20307  -0.20117
 Alpha  occ. eigenvalues --   -0.19384  -0.19053  -0.18785  -0.18532  -0.17761
 Alpha  occ. eigenvalues --   -0.17729  -0.17090  -0.16990  -0.16142  -0.16076
 Alpha  occ. eigenvalues --   -0.15701  -0.14750  -0.14496  -0.12355  -0.11921
 Alpha  occ. eigenvalues --   -0.11090  -0.09958  -0.09112  -0.06537  -0.06390
 Alpha  occ. eigenvalues --   -0.06126  -0.05788  -0.05457  -0.04912  -0.04315
 Alpha  occ. eigenvalues --   -0.04035  -0.03397  -0.01622  -0.00462   0.06998
 Alpha virt. eigenvalues --    0.11687   0.12578   0.13350   0.14298   0.15695
 Alpha virt. eigenvalues --    0.16159   0.16311   0.16877   0.17026   0.17179
 Alpha virt. eigenvalues --    0.17339   0.17765   0.18214   0.18425   0.19000

 Mulliken charges:
               1
     1  C    0.274686
     2  C   -0.162932
     3  C    0.085445
     4  C    0.263486
     5  C    0.151168
     6  C   -0.566825
     7  C    0.209347
     8  C    0.043321
     9  C    0.421348
    10  C   -0.353002
    11  C    0.176456
    12  C    0.277037
    13  C   -0.571570
    14  C   -0.635006
    15  H    0.102516
    16  H    0.105188
    17  H    0.116939
    18  N   -0.103688
    19  N   -0.135340
    20  O   -0.434032
    21  O   -0.420073
    22  O   -0.426285
    23  O   -0.338022
    24  C   -0.176952
    25  H    0.134890
    26  H    0.135417
    27  H    0.158072
    28  C   -0.182592
    29  H    0.131280
    30  H    0.133991
    31  H    0.156978
    32  C    0.187883
    33  C   -0.639397
    34  S   -0.154888
    35  C   -0.513686
    36  H    0.104612
    37  C    0.269731
    38  O   -0.119848
    39  C    0.319827
    40  C   -0.245005
    41  C    0.197296
    42  S   -0.346449
    43  H    0.131918
    44  H    0.140032
    45  H    0.141554
    46  C   -0.082779
    47  O   -0.162636
    48  C   -0.148450
    49  H    0.097573
    50  C   -0.326856
    51  H    0.122857
    52  H    0.213446
    53  H    0.139798
    54  H    0.102218
 Sum of Mulliken charges =  -2.00000

 Dipole moment (field-independent basis, Debye):
    X=             17.1596    Y=             -2.3093    Z=             -2.4842  Tot=             17.4916
 Quadrupole moment (field-independent basis, Debye-Ang):
   XX=           -423.2950   YY=           -308.3145   ZZ=           -237.6571
   XY=              5.1586   XZ=              0.5803   YZ=             15.2150

 Normal termination of Gaussian 16 at Thu Oct  7 04:45:50 2021.
