 Gaussian 16, Revision C.01,
 Gaussian 16:  ES64L-G16RevC.01  3-Jul-2019

 -------------------------------------
 # opt=modredundant b3lyp/6-311+g(d,p)
 -------------------------------------

 ---------
 NDI_5.pdb
 ---------
 Symbolic Z-matrix:
 Charge = -2 Multiplicity = 1

 SCF Done:  E(RB3LYP) =  -2359.36127528     A.U. after   22 cycles
 SCF Done:  E(RB3LYP) =  -2359.36731751     A.U. after   20 cycles
 SCF Done:  E(RB3LYP) =  -2359.37861004     A.U. after   15 cycles
 SCF Done:  E(RB3LYP) =  -2359.38857595     A.U. after   16 cycles
 SCF Done:  E(RB3LYP) =  -2359.39272748     A.U. after   16 cycles
 SCF Done:  E(RB3LYP) =  -2359.39389418     A.U. after   16 cycles
 SCF Done:  E(RB3LYP) =  -2359.39439791     A.U. after   17 cycles
 SCF Done:  E(RB3LYP) =  -2359.39467926     A.U. after   18 cycles
 SCF Done:  E(RB3LYP) =  -2359.39516718     A.U. after   14 cycles
 SCF Done:  E(RB3LYP) =  -2359.39536522     A.U. after   13 cycles
 SCF Done:  E(RB3LYP) =  -2359.39843740     A.U. after   12 cycles
 SCF Done:  E(RB3LYP) =  -2359.39844428     A.U. after   12 cycles
 SCF Done:  E(RB3LYP) =  -2359.39845011     A.U. after   12 cycles
 SCF Done:  E(RB3LYP) =  -2359.39845232     A.U. after   11 cycles
 SCF Done:  E(RB3LYP) =  -2359.39845395     A.U. after   11 cycles
 SCF Done:  E(RB3LYP) =  -2359.39845641     A.U. after   11 cycles
 SCF Done:  E(RB3LYP) =  -2359.39845884     A.U. after   12 cycles
 SCF Done:  E(RB3LYP) =  -2359.39845942     A.U. after   11 cycles
 SCF Done:  E(RB3LYP) =  -2359.39845942     A.U. after   10 cycles
 SCF Done:  E(RB3LYP) =  -2359.39845954     A.U. after   11 cycles
 Optimization completed.
    -- Stationary point found.

                         Standard orientation:
 ---------------------------------------------------------------------
 Center     Atomic      Atomic             Coordinates (Angstroms)
 Number     Number       Type             X           Y           Z
 ---------------------------------------------------------------------
      1          6           0       -2.561930   -2.969292    0.431056
      2          6           0       -2.257567   -1.561178    0.345447
      3          6           0       -3.264902   -0.623441   -0.022709
      4          6           0       -4.572363   -1.049038   -0.329174
      5          6           0       -4.918219   -2.454132   -0.274600
      6          6           0       -0.936078   -1.127357    0.524840
      7          6           0       -2.920894    0.780853   -0.045235
      8          6           0       -1.594599    1.215462    0.279560
      9          6           0       -0.528971    0.198526    0.444519
     10          6           0       -1.420431    2.611322    0.562214
     11          6           0       -3.734596    3.116254   -0.300436
     12          6           0       -3.965806    1.696855   -0.350035
     13          6           0       -5.274300    1.234054   -0.680078
     14          6           0       -5.577391   -0.096474   -0.676605
     15          1           0       -6.569079   -0.461593   -0.913049
     16          1           0       -6.017298    1.986230   -0.917275
     17          1           0       -0.206890   -1.916590    0.669684
     18          7           0       -2.472309    3.487898    0.178718
     19          7           0       -3.887051   -3.336099    0.113388
     20          8           0       -1.759211   -3.864943    0.749159
     21          8           0       -6.048048   -2.905710   -0.538316
     22          8           0       -4.574831    3.987631   -0.612634
     23          8           0       -0.442259    3.149936    1.131681
     24          6           0       -2.220275    4.908392    0.394958
     25          1           0       -2.097731    5.118396    1.461312
     26          1           0       -1.293988    5.204971   -0.102433
     27          1           0       -3.071697    5.452593   -0.006418
     28          6           0       -4.191312   -4.760364    0.194495
     29          1           0       -3.556717   -5.322708   -0.495747
     30          1           0       -3.986343   -5.131689    1.201744
     31          1           0       -5.240828   -4.886186   -0.059056
     32          6           0        0.896707    0.427898    0.289378
     33          6           0        1.610879    1.597871    0.056783
     34         16           0        2.046632   -0.934080    0.367238
     35          6           0        2.997592    1.414889   -0.061175
     36          1           0        1.116554    2.554038    0.059912
     37          6           0        3.452742    0.106429    0.070691
     38          8           0        3.906705    2.419114   -0.281526
     39          6           0        4.786830   -0.390225   -0.031158
     40          6           0        3.397461    3.741255   -0.377669
     41          6           0        5.256811   -1.703543    0.025457
     42         16           0        6.184124    0.685614   -0.245692
     43          1           0        4.265755    4.387305   -0.517461
     44          1           0        2.720574    3.844842   -1.232776
     45          1           0        2.860553    4.029801    0.531365
     46          6           0        6.664663   -1.841511   -0.087126
     47          8           0        4.429671   -2.791297    0.230734
     48          6           0        7.312275   -0.648760   -0.243094
     49          1           0        7.158073   -2.805329   -0.043306
     50          6           0        4.002070   -3.449788   -0.962068
     51          1           0        8.369195   -0.461519   -0.354745
     52          1           0        4.857999   -3.878036   -1.501063
     53          1           0        3.325633   -4.247354   -0.652007
     54          1           0        3.463065   -2.761902   -1.620372
 ---------------------------------------------------------------------

 The electronic state is 1-A.
 Alpha  occ. eigenvalues --  -88.71143 -88.67716 -18.99239 -18.98310 -18.88311
 Alpha  occ. eigenvalues --  -18.87852 -18.86928 -18.86413 -14.15819 -14.14816
 Alpha  occ. eigenvalues --  -10.06873 -10.06740 -10.06512 -10.06302 -10.05689
 Alpha  occ. eigenvalues --  -10.05592 -10.05384 -10.05208 -10.04896 -10.03543
 Alpha  occ. eigenvalues --  -10.02172 -10.02025 -10.01784 -10.01164 -10.00301
 Alpha  occ. eigenvalues --   -9.98670  -9.98594  -9.98384  -9.97196  -9.97088
 Alpha  occ. eigenvalues --   -9.96671  -9.96377  -9.96355  -9.96089  -9.95945
 Alpha  occ. eigenvalues --   -9.95905  -7.79689  -7.76292  -5.76006  -5.75633
 Alpha  occ. eigenvalues --   -5.75238  -5.72638  -5.72253  -5.71784  -0.90500
 Alpha  occ. eigenvalues --   -0.89513  -0.84035  -0.82785  -0.81650  -0.80238
 Alpha  occ. eigenvalues --   -0.72590  -0.71685  -0.71390  -0.68871  -0.66914
 Alpha  occ. eigenvalues --   -0.62337  -0.60052  -0.59340  -0.58288  -0.57393
 Alpha  occ. eigenvalues --   -0.55282  -0.54119  -0.53278  -0.52877  -0.52028
 Alpha  occ. eigenvalues --   -0.50377  -0.49852  -0.47690  -0.44213  -0.42850
 Alpha  occ. eigenvalues --   -0.42469  -0.41936  -0.40655  -0.39634  -0.37990
 Alpha  occ. eigenvalues --   -0.37127  -0.36154  -0.34448  -0.34040  -0.31996
 Alpha  occ. eigenvalues --   -0.31347  -0.31160  -0.30768  -0.30531  -0.29863
 Alpha  occ. eigenvalues --   -0.28922  -0.28446  -0.27817  -0.27232  -0.26895
 Alpha  occ. eigenvalues --   -0.26306  -0.25717  -0.25326  -0.25129  -0.24284
 Alpha  occ. eigenvalues --   -0.23619  -0.23037  -0.22691  -0.22487  -0.21525
 Alpha  occ. eigenvalues --   -0.21397  -0.20996  -0.20877  -0.20343  -0.19782
 Alpha  occ. eigenvalues --   -0.19534  -0.19396  -0.19271  -0.18687  -0.18552
 Alpha  occ. eigenvalues --   -0.18129  -0.17734  -0.16883  -0.16401  -0.16130
 Alpha  occ. eigenvalues --   -0.15448  -0.15040  -0.14434  -0.12846  -0.11990
 Alpha  occ. eigenvalues --   -0.11559  -0.09785  -0.08742  -0.07403  -0.07199
 Alpha  occ. eigenvalues --   -0.06689  -0.06229  -0.05764  -0.05313  -0.05131
 Alpha  occ. eigenvalues --   -0.05001  -0.03707  -0.02021   0.00121   0.06264
 Alpha virt. eigenvalues --    0.11833   0.12905   0.14056   0.14595   0.15489
 Alpha virt. eigenvalues --    0.15835   0.16510   0.16628   0.16762   0.17259
 Alpha virt. eigenvalues --    0.17633   0.18076   0.18638   0.18860   0.18952

 Mulliken charges:
               1
     1  C    0.141239
     2  C    0.077597
     3  C    0.214267
     4  C    0.258843
     5  C    0.128816
     6  C    0.158872
     7  C    0.085186
     8  C    0.417072
     9  C    0.139651
    10  C   -0.789727
    11  C    0.113745
    12  C    0.252949
    13  C   -0.490812
    14  C   -0.583015
    15  H    0.103695
    16  H    0.109375
    17  H    0.134683
    18  N   -0.052223
    19  N   -0.131285
    20  O   -0.414333
    21  O   -0.404616
    22  O   -0.422627
    23  O   -0.410904
    24  C   -0.141070
    25  H    0.135943
    26  H    0.130340
    27  H    0.157071
    28  C   -0.178642
    29  H    0.137413
    30  H    0.136578
    31  H    0.156378
    32  C   -0.131098
    33  C    0.141914
    34  S   -0.991481
    35  C   -0.787900
    36  H    0.180250
    37  C    0.232308
    38  O   -0.126323
    39  C    0.432118
    40  C   -0.250269
    41  C    0.079231
    42  S   -0.353597
    43  H    0.128740
    44  H    0.138843
    45  H    0.161297
    46  C   -0.008334
    47  O   -0.138362
    48  C   -0.218438
    49  H    0.092457
    50  C   -0.287387
    51  H    0.119022
    52  H    0.102890
    53  H    0.150996
    54  H    0.162665
 Sum of Mulliken charges =  -2.00000

 Dipole moment (field-independent basis, Debye):
    X=             14.0414    Y=              0.1495    Z=             -1.8778  Tot=             14.1672
 Quadrupole moment (field-independent basis, Debye-Ang):
   XX=           -420.8923   YY=           -307.2573   ZZ=           -241.8040
   XY=              6.2428   XZ=            -16.7970   YZ=              4.8424

 Normal termination of Gaussian 16 at Fri Oct  8 12:26:21 2021.
