 Gaussian 16, Revision C.01,
 Gaussian 16:  ES64L-G16RevC.01  3-Jul-2019

 -------------------------------------
 # opt=modredundant b3lyp/6-311+g(d,p)
 -------------------------------------

 ------------
 NDI_-105.pdb
 ------------
 Symbolic Z-matrix:
 Charge = -2 Multiplicity = 1

 SCF Done:  E(RB3LYP) =  -2359.36853282     A.U. after   29 cycles
 SCF Done:  E(RB3LYP) =  -2359.38687080     A.U. after   16 cycles
 SCF Done:  E(RB3LYP) =  -2359.39011880     A.U. after   18 cycles
 SCF Done:  E(RB3LYP) =  -2359.39046349     A.U. after   17 cycles
 SCF Done:  E(RB3LYP) =  -2359.39051552     A.U. after   15 cycles
 SCF Done:  E(RB3LYP) =  -2359.39064363     A.U. after   15 cycles
 SCF Done:  E(RB3LYP) =  -2359.39065489     A.U. after   15 cycles
 SCF Done:  E(RB3LYP) =  -2359.39066251     A.U. after   13 cycles
 SCF Done:  E(RB3LYP) =  -2359.39066770     A.U. after   13 cycles
 SCF Done:  E(RB3LYP) =  -2359.39067581     A.U. after   15 cycles
 SCF Done:  E(RB3LYP) =  -2359.39593672     A.U. after   14 cycles
 SCF Done:  E(RB3LYP) =  -2359.39595686     A.U. after   13 cycles
 SCF Done:  E(RB3LYP) =  -2359.39596932     A.U. after   13 cycles
 SCF Done:  E(RB3LYP) =  -2359.39598597     A.U. after   13 cycles
 SCF Done:  E(RB3LYP) =  -2359.39599684     A.U. after   12 cycles
 SCF Done:  E(RB3LYP) =  -2359.39599886     A.U. after   11 cycles
 SCF Done:  E(RB3LYP) =  -2359.39600049     A.U. after   12 cycles
 SCF Done:  E(RB3LYP) =  -2359.39600120     A.U. after   12 cycles
 SCF Done:  E(RB3LYP) =  -2359.39600134     A.U. after   10 cycles
 SCF Done:  E(RB3LYP) =  -2359.39600143     A.U. after   10 cycles
 Optimization completed.
    -- Stationary point found.

                         Standard orientation:
 ---------------------------------------------------------------------
 Center     Atomic      Atomic             Coordinates (Angstroms)
 Number     Number       Type             X           Y           Z
 ---------------------------------------------------------------------
      1          6           0        3.603098   -2.698892   -0.113501
      2          6           0        2.833255   -1.490336   -0.037774
      3          6           0        3.470745   -0.223775   -0.129594
      4          6           0        4.872771   -0.120774   -0.300188
      5          6           0        5.684586   -1.305984   -0.389312
      6          6           0        1.420165   -1.561794    0.115034
      7          6           0        2.666797    0.977419   -0.031045
      8          6           0        1.252011    0.879635    0.146607
      9          6           0        0.635206   -0.438829    0.184653
     10          6           0        0.488574    2.078673    0.332552
     11          6           0        2.579294    3.455831    0.035071
     12          6           0        3.323644    2.234184   -0.092873
     13          6           0        4.744179    2.301580   -0.269642
     14          6           0        5.493249    1.167840   -0.372674
     15          1           0        6.568215    1.203315   -0.503601
     16          1           0        5.192876    3.286870   -0.312856
     17          1           0        0.969026   -2.546493    0.141996
     18          7           0        1.194319    3.300507    0.247606
     19          7           0        4.994666   -2.536553   -0.289867
     20          8           0        3.145141   -3.860268   -0.036747
     21          8           0        6.925876   -1.306684   -0.541923
     22          8           0        3.074739    4.604039   -0.018965
     23          8           0       -0.742786    2.142822    0.567588
     24          6           0        0.392699    4.506680    0.417511
     25          1           0       -0.406255    4.537049   -0.327865
     26          1           0       -0.081731    4.512395    1.402989
     27          1           0        1.060827    5.357234    0.306300
     28          6           0        5.772721   -3.766438   -0.371164
     29          1           0        5.652534   -4.352306    0.544609
     30          1           0        5.416580   -4.384378   -1.199987
     31          1           0        6.813011   -3.484996   -0.515733
     32          6           0       -0.820823   -0.636655    0.317310
     33          6           0       -1.515402   -1.043216    1.429340
     34         16           0       -1.922348   -0.382356   -1.017546
     35          6           0       -2.924244   -1.095783    1.234346
     36          1           0       -1.011355   -1.227965    2.366473
     37          6           0       -3.334883   -0.738764   -0.030996
     38          8           0       -3.855966   -1.410802    2.196331
     39          6           0       -4.688831   -0.592987   -0.541994
     40          6           0       -3.365085   -1.690638    3.494685
     41          6           0       -5.418404    0.539770   -0.851329
     42         16           0       -5.634376   -2.026097   -0.982683
     43          1           0       -4.240555   -1.910352    4.108091
     44          1           0       -2.696218   -2.559518    3.495121
     45          1           0       -2.831319   -0.831962    3.918372
     46          6           0       -6.698423    0.264094   -1.432986
     47          8           0       -5.087829    1.847574   -0.683610
     48          6           0       -6.954718   -1.067985   -1.561127
     49          1           0       -7.381190    1.054878   -1.716238
     50          6           0       -4.113262    2.220564    0.313890
     51          1           0       -7.850624   -1.537416   -1.939768
     52          1           0       -3.089698    2.003676    0.009855
     53          1           0       -4.235361    3.297686    0.432738
     54          1           0       -4.330992    1.715879    1.258806
 ---------------------------------------------------------------------

 The electronic state is 1-A.
 Alpha  occ. eigenvalues --  -88.72607 -88.68853 -19.00093 -18.99718 -18.86312
 Alpha  occ. eigenvalues --  -18.86064 -18.86023 -18.85954 -14.14289 -14.14206
 Alpha  occ. eigenvalues --  -10.08556 -10.08290 -10.06627 -10.06021 -10.05410
 Alpha  occ. eigenvalues --  -10.05108 -10.04793 -10.04536 -10.04501 -10.04481
 Alpha  occ. eigenvalues --  -10.03536 -10.02842 -10.02476  -9.99881  -9.99712
 Alpha  occ. eigenvalues --   -9.99321  -9.97686  -9.97503  -9.97422  -9.95766
 Alpha  occ. eigenvalues --   -9.95620  -9.94930  -9.94872  -9.94828  -9.94809
 Alpha  occ. eigenvalues --   -9.94742  -7.81205  -7.77457  -5.77504  -5.77137
 Alpha  occ. eigenvalues --   -5.76780  -5.73768  -5.73391  -5.73011  -0.91348
 Alpha  occ. eigenvalues --   -0.90743  -0.82054  -0.81948  -0.79547  -0.79387
 Alpha  occ. eigenvalues --   -0.73347  -0.70843  -0.70710  -0.70205  -0.65905
 Alpha  occ. eigenvalues --   -0.62011  -0.59980  -0.59567  -0.58780  -0.58458
 Alpha  occ. eigenvalues --   -0.55358  -0.54182  -0.53007  -0.52455  -0.51775
 Alpha  occ. eigenvalues --   -0.50461  -0.49193  -0.47006  -0.43901  -0.42599
 Alpha  occ. eigenvalues --   -0.41790  -0.41598  -0.40449  -0.39425  -0.38927
 Alpha  occ. eigenvalues --   -0.37868  -0.37022  -0.33454  -0.33174  -0.32567
 Alpha  occ. eigenvalues --   -0.32410  -0.31191  -0.30922  -0.30400  -0.29945
 Alpha  occ. eigenvalues --   -0.29406  -0.28761  -0.26802  -0.26380  -0.26204
 Alpha  occ. eigenvalues --   -0.25785  -0.25341  -0.24842  -0.24412  -0.24194
 Alpha  occ. eigenvalues --   -0.24097  -0.22861  -0.22488  -0.22202  -0.21322
 Alpha  occ. eigenvalues --   -0.21000  -0.20816  -0.20322  -0.20098  -0.19902
 Alpha  occ. eigenvalues --   -0.19364  -0.18637  -0.18467  -0.18427  -0.17910
 Alpha  occ. eigenvalues --   -0.17463  -0.17122  -0.16741  -0.16383  -0.16253
 Alpha  occ. eigenvalues --   -0.15753  -0.15140  -0.14393  -0.14164  -0.11478
 Alpha  occ. eigenvalues --   -0.10065  -0.09741  -0.07164  -0.06691  -0.06137
 Alpha  occ. eigenvalues --   -0.05998  -0.05491  -0.05303  -0.04701  -0.04390
 Alpha  occ. eigenvalues --   -0.03655  -0.03311  -0.02392  -0.00250   0.07336
 Alpha virt. eigenvalues --    0.11935   0.12268   0.13223   0.13814   0.14970
 Alpha virt. eigenvalues --    0.15393   0.16210   0.16458   0.16898   0.17276
 Alpha virt. eigenvalues --    0.17336   0.17585   0.17858   0.18262   0.18427

 Mulliken charges:
               1
     1  C    0.316426
     2  C   -0.070290
     3  C    0.076200
     4  C    0.250493
     5  C    0.180846
     6  C   -0.700152
     7  C    0.181015
     8  C   -0.049543
     9  C    0.440867
    10  C   -0.186333
    11  C    0.117034
    12  C    0.317759
    13  C   -0.628961
    14  C   -0.638171
    15  H    0.101886
    16  H    0.103414
    17  H    0.110452
    18  N   -0.141892
    19  N   -0.134354
    20  O   -0.439395
    21  O   -0.427526
    22  O   -0.426413
    23  O   -0.341752
    24  C   -0.195124
    25  H    0.137256
    26  H    0.131808
    27  H    0.159119
    28  C   -0.184063
    29  H    0.129636
    30  H    0.132220
    31  H    0.156234
    32  C    0.411571
    33  C   -0.513675
    34  S    0.004389
    35  C   -0.806969
    36  H    0.099860
    37  C    0.288313
    38  O   -0.123949
    39  C    0.272001
    40  C   -0.229971
    41  C   -0.016453
    42  S   -0.161838
    43  H    0.127120
    44  H    0.140838
    45  H    0.147076
    46  C   -0.183762
    47  O   -0.192880
    48  C   -0.186022
    49  H    0.105140
    50  C   -0.285959
    51  H    0.127781
    52  H    0.238885
    53  H    0.127125
    54  H    0.132678
 Sum of Mulliken charges =  -2.00000

 Dipole moment (field-independent basis, Debye):
    X=            -19.1315    Y=             -2.0401    Z=              3.0498  Tot=             19.4802
 Quadrupole moment (field-independent basis, Debye-Ang):
   XX=           -423.9671   YY=           -317.2505   ZZ=           -230.1441
   XY=             -0.8211   XZ=              2.2408   YZ=             -3.2097

 Normal termination of Gaussian 16 at Thu Oct  7 15:53:19 2021.
