 Gaussian 16, Revision C.01,
 Gaussian 16:  ES64L-G16RevC.01  3-Jul-2019

 -------------------------------------
 # opt=modredundant b3lyp/6-311+g(d,p)
 -------------------------------------

 -----------
 NDI_180.pdb
 -----------
 Symbolic Z-matrix:
 Charge = -2 Multiplicity = 1

 SCF Done:  E(RB3LYP) =  -2359.33255012     A.U. after   22 cycles
 SCF Done:  E(RB3LYP) =  -2359.36972809     A.U. after   20 cycles
 SCF Done:  E(RB3LYP) =  -2359.38468109     A.U. after   16 cycles
 SCF Done:  E(RB3LYP) =  -2359.38865072     A.U. after   15 cycles
 SCF Done:  E(RB3LYP) =  -2359.38960495     A.U. after   15 cycles
 SCF Done:  E(RB3LYP) =  -2359.39027906     A.U. after   17 cycles
 SCF Done:  E(RB3LYP) =  -2359.38785411     A.U. after   18 cycles
 SCF Done:  E(RB3LYP) =  -2359.39097935     A.U. after   14 cycles
 SCF Done:  E(RB3LYP) =  -2359.39155899     A.U. after   17 cycles
 SCF Done:  E(RB3LYP) =  -2359.39211857     A.U. after   14 cycles
 SCF Done:  E(RB3LYP) =  -2359.39636823     A.U. after   12 cycles
 SCF Done:  E(RB3LYP) =  -2359.39636810     A.U. after   12 cycles
 SCF Done:  E(RB3LYP) =  -2359.39636944     A.U. after   11 cycles
 SCF Done:  E(RB3LYP) =  -2359.39636921     A.U. after   12 cycles
 SCF Done:  E(RB3LYP) =  -2359.39636258     A.U. after   13 cycles
 SCF Done:  E(RB3LYP) =  -2359.39636923     A.U. after   12 cycles
 SCF Done:  E(RB3LYP) =  -2359.39636956     A.U. after   10 cycles
 SCF Done:  E(RB3LYP) =  -2359.39637016     A.U. after   11 cycles
 SCF Done:  E(RB3LYP) =  -2359.39637029     A.U. after   11 cycles
 SCF Done:  E(RB3LYP) =  -2359.39637033     A.U. after   11 cycles
 Optimization completed.
    -- Stationary point found.

                         Standard orientation:
 ---------------------------------------------------------------------
 Center     Atomic      Atomic             Coordinates (Angstroms)
 Number     Number       Type             X           Y           Z
 ---------------------------------------------------------------------
      1          6           0       -3.577036   -2.640670    0.144009
      2          6           0       -2.820275   -1.414377    0.199944
      3          6           0       -3.444192   -0.167142   -0.086291
      4          6           0       -4.808456   -0.097576   -0.431433
      5          6           0       -5.605417   -1.302744   -0.504616
      6          6           0       -1.439401   -1.467048    0.450445
      7          6           0       -2.646219    1.032508    0.007773
      8          6           0       -1.264135    0.959873    0.366274
      9          6           0       -0.614152   -0.350569    0.508127
     10          6           0       -0.615836    2.183030    0.736731
     11          6           0       -2.595104    3.517825   -0.057997
     12          6           0       -3.301926    2.273111   -0.221446
     13          6           0       -4.680666    2.311190   -0.586400
     14          6           0       -5.417961    1.167003   -0.695297
     15          1           0       -6.467087    1.183354   -0.963494
     16          1           0       -5.118022    3.287138   -0.760932
     17          1           0       -1.026971   -2.463332    0.520349
     18          7           0       -1.284491    3.394752    0.424155
     19          7           0       -4.937276   -2.511865   -0.205185
     20          8           0       -3.127669   -3.780304    0.374119
     21          8           0       -6.813909   -1.326650   -0.804386
     22          8           0       -3.080434    4.646834   -0.283352
     23          8           0        0.480925    2.278706    1.328792
     24          6           0       -0.549560    4.618443    0.724491
     25          1           0       -0.425470    4.739532    1.805252
     26          1           0        0.448069    4.566360    0.285157
     27          1           0       -1.120301    5.449326    0.316968
     28          6           0       -5.702269   -3.752435   -0.261109
     29          1           0       -5.268987   -4.431115   -1.000730
     30          1           0       -5.668259   -4.259689    0.706549
     31          1           0       -6.724272   -3.495021   -0.527451
     32          6           0        0.819622   -0.624588    0.480515
     33          6           0        1.418867   -1.885909    0.618239
     34         16           0        2.041688    0.527592   -0.035224
     35          6           0        2.783643   -1.914363    0.316793
     36          1           0        0.867179   -2.756610    0.934528
     37          6           0        3.325225   -0.694107   -0.087371
     38          8           0        3.602611   -3.018099    0.408754
     39          6           0        4.688831   -0.379338   -0.377487
     40          6           0        3.004722   -4.238897    0.798914
     41          6           0        5.277386    0.852046   -0.673034
     42         16           0        5.955993   -1.623555   -0.443114
     43          1           0        3.803205   -4.982858    0.796900
     44          1           0        2.572807   -4.171953    1.804788
     45          1           0        2.219715   -4.544561    0.097344
     46          6           0        6.668139    0.799097   -0.951369
     47          8           0        4.564481    2.031043   -0.759900
     48          6           0        7.188893   -0.461261   -0.870214
     49          1           0        7.238986    1.682598   -1.211915
     50          6           0        4.507925    2.792030    0.450283
     51          1           0        8.204493   -0.787314   -1.034224
     52          1           0        5.514547    3.107621    0.756778
     53          1           0        3.892732    3.666653    0.237383
     54          1           0        4.035180    2.222049    1.254315
 ---------------------------------------------------------------------

 The electronic state is 1-A.
 Alpha  occ. eigenvalues --  -88.70807 -88.67509 -18.99385 -18.97655 -18.88236
 Alpha  occ. eigenvalues --  -18.87934 -18.86823 -18.86346 -14.15843 -14.14653
 Alpha  occ. eigenvalues --  -10.07594 -10.06667 -10.06319 -10.05566 -10.05408
 Alpha  occ. eigenvalues --  -10.05313 -10.05268 -10.04932 -10.04510 -10.03201
 Alpha  occ. eigenvalues --  -10.02119 -10.01787 -10.01219 -10.01205 -10.00051
 Alpha  occ. eigenvalues --   -9.98526  -9.98486  -9.98457  -9.98226  -9.97172
 Alpha  occ. eigenvalues --   -9.96588  -9.96346  -9.96050  -9.96027  -9.95858
 Alpha  occ. eigenvalues --   -9.95848  -7.79359  -7.76009  -5.75674  -5.75303
 Alpha  occ. eigenvalues --   -5.74908  -5.72346  -5.71938  -5.71538  -0.90665
 Alpha  occ. eigenvalues --   -0.88830  -0.83979  -0.82676  -0.81590  -0.80182
 Alpha  occ. eigenvalues --   -0.72572  -0.71353  -0.71284  -0.68871  -0.66896
 Alpha  occ. eigenvalues --   -0.62304  -0.59965  -0.59244  -0.57905  -0.57335
 Alpha  occ. eigenvalues --   -0.55428  -0.53640  -0.53485  -0.52760  -0.51768
 Alpha  occ. eigenvalues --   -0.50283  -0.49768  -0.47708  -0.43898  -0.42799
 Alpha  occ. eigenvalues --   -0.42364  -0.41770  -0.40555  -0.39535  -0.37681
 Alpha  occ. eigenvalues --   -0.37240  -0.36172  -0.34416  -0.34014  -0.32125
 Alpha  occ. eigenvalues --   -0.31703  -0.31429  -0.30178  -0.29763  -0.29507
 Alpha  occ. eigenvalues --   -0.28983  -0.27952  -0.27835  -0.27376  -0.26763
 Alpha  occ. eigenvalues --   -0.26293  -0.25587  -0.25211  -0.25151  -0.24333
 Alpha  occ. eigenvalues --   -0.23535  -0.22837  -0.22665  -0.22118  -0.21463
 Alpha  occ. eigenvalues --   -0.21364  -0.21096  -0.20791  -0.20314  -0.19923
 Alpha  occ. eigenvalues --   -0.19469  -0.19390  -0.18846  -0.18354  -0.18337
 Alpha  occ. eigenvalues --   -0.17988  -0.17760  -0.16853  -0.16514  -0.16301
 Alpha  occ. eigenvalues --   -0.15241  -0.14974  -0.13879  -0.12646  -0.11893
 Alpha  occ. eigenvalues --   -0.11249  -0.09614  -0.08409  -0.07413  -0.07136
 Alpha  occ. eigenvalues --   -0.06691  -0.06219  -0.05812  -0.05240  -0.05003
 Alpha  occ. eigenvalues --   -0.04794  -0.03334  -0.01904   0.00234   0.06381
 Alpha virt. eigenvalues --    0.12215   0.13086   0.13899   0.14677   0.15665
 Alpha virt. eigenvalues --    0.16043   0.16484   0.16537   0.16938   0.17455
 Alpha virt. eigenvalues --    0.17554   0.18149   0.18793   0.18929   0.19088

 Mulliken charges:
               1
     1  C    0.243946
     2  C   -0.105020
     3  C    0.159565
     4  C    0.230853
     5  C    0.107249
     6  C    0.149370
     7  C    0.040880
     8  C    0.277655
     9  C    0.277507
    10  C   -0.785105
    11  C    0.118392
    12  C    0.141599
    13  C   -0.473483
    14  C   -0.576698
    15  H    0.103184
    16  H    0.108458
    17  H    0.125205
    18  N   -0.031514
    19  N   -0.139840
    20  O   -0.425165
    21  O   -0.401063
    22  O   -0.421562
    23  O   -0.348409
    24  C   -0.150034
    25  H    0.132920
    26  H    0.141794
    27  H    0.155846
    28  C   -0.182046
    29  H    0.136025
    30  H    0.134831
    31  H    0.156689
    32  C    0.161398
    33  C   -0.296220
    34  S   -0.908171
    35  C   -0.644811
    36  H    0.104018
    37  C    0.564783
    38  O   -0.131270
    39  C    0.480988
    40  C   -0.233981
    41  C   -0.031476
    42  S   -0.362952
    43  H    0.132615
    44  H    0.133845
    45  H    0.141914
    46  C    0.017581
    47  O   -0.136773
    48  C   -0.231023
    49  H    0.092149
    50  C   -0.302381
    51  H    0.117877
    52  H    0.099914
    53  H    0.149154
    54  H    0.180791
 Sum of Mulliken charges =  -2.00000

 Dipole moment (field-independent basis, Debye):
    X=             13.5934    Y=             -3.7421    Z=              1.5223  Tot=             14.1810
 Quadrupole moment (field-independent basis, Debye-Ang):
   XX=           -421.4016   YY=           -302.7063   ZZ=           -242.6153
   XY=              6.1186   XZ=             -4.5909   YZ=              1.2999

 Normal termination of Gaussian 16 at Fri Oct  8 19:04:02 2021.
