 Gaussian 16, Revision C.01,
 Gaussian 16:  ES64L-G16RevC.01  3-Jul-2019

 -------------------------------------
 # opt=modredundant b3lyp/6-311+g(d,p)
 -------------------------------------

 -----------
 NDI_155.pdb
 -----------
 Symbolic Z-matrix:
 Charge = -2 Multiplicity = 1

 SCF Done:  E(RB3LYP) =  -2359.35285141     A.U. after   22 cycles
 SCF Done:  E(RB3LYP) =  -2359.37517332     A.U. after   20 cycles
 SCF Done:  E(RB3LYP) =  -2359.38736987     A.U. after   16 cycles
 SCF Done:  E(RB3LYP) =  -2359.39185445     A.U. after   17 cycles
 SCF Done:  E(RB3LYP) =  -2359.39296800     A.U. after   17 cycles
 SCF Done:  E(RB3LYP) =  -2359.39392025     A.U. after   14 cycles
 SCF Done:  E(RB3LYP) =  -2359.39428813     A.U. after   14 cycles
 SCF Done:  E(RB3LYP) =  -2359.39448926     A.U. after   15 cycles
 SCF Done:  E(RB3LYP) =  -2359.39459772     A.U. after   13 cycles
 SCF Done:  E(RB3LYP) =  -2359.39467479     A.U. after   14 cycles
 SCF Done:  E(RB3LYP) =  -2359.39893776     A.U. after   13 cycles
 SCF Done:  E(RB3LYP) =  -2359.39894527     A.U. after   12 cycles
 SCF Done:  E(RB3LYP) =  -2359.39894851     A.U. after   12 cycles
 SCF Done:  E(RB3LYP) =  -2359.39894945     A.U. after   11 cycles
 SCF Done:  E(RB3LYP) =  -2359.39895027     A.U. after   11 cycles
 SCF Done:  E(RB3LYP) =  -2359.39895071     A.U. after   10 cycles
 SCF Done:  E(RB3LYP) =  -2359.39895101     A.U. after   10 cycles
 SCF Done:  E(RB3LYP) =  -2359.39895130     A.U. after   11 cycles
 SCF Done:  E(RB3LYP) =  -2359.39895138     A.U. after   11 cycles
 SCF Done:  E(RB3LYP) =  -2359.39895142     A.U. after   10 cycles
 Optimization completed.
    -- Stationary point found.

                         Standard orientation:
 ---------------------------------------------------------------------
 Center     Atomic      Atomic             Coordinates (Angstroms)
 Number     Number       Type             X           Y           Z
 ---------------------------------------------------------------------
      1          6           0       -3.509191   -2.692913   -0.144523
      2          6           0       -2.779920   -1.462781    0.025427
      3          6           0       -3.438072   -0.207618   -0.113950
      4          6           0       -4.814003   -0.136983   -0.417287
      5          6           0       -5.585184   -1.346043   -0.598162
      6          6           0       -1.390721   -1.504954    0.258574
      7          6           0       -2.670024    1.001741    0.080251
      8          6           0       -1.277516    0.930612    0.395957
      9          6           0       -0.611244   -0.370203    0.415651
     10          6           0       -0.621352    2.132182    0.828695
     11          6           0       -2.670306    3.480968    0.249301
     12          6           0       -3.357297    2.241447   -0.010147
     13          6           0       -4.748394    2.280144   -0.329829
     14          6           0       -5.459364    1.132789   -0.533129
     15          1           0       -6.516189    1.147547   -0.769771
     16          1           0       -5.214469    3.256289   -0.393331
     17          1           0       -0.926948   -2.481984    0.221518
     18          7           0       -1.336404    3.348148    0.664370
     19          7           0       -4.881478   -2.561991   -0.445980
     20          8           0       -3.029549   -3.839943   -0.045702
     21          8           0       -6.801512   -1.369224   -0.869570
     22          8           0       -3.189058    4.613889    0.153234
     23          8           0        0.512427    2.206274    1.346025
     24          6           0       -0.614328    4.558706    1.038914
     25          1           0       -0.402948    4.563780    2.112586
     26          1           0        0.345159    4.594681    0.518949
     27          1           0       -1.240248    5.406787    0.772231
     28          6           0       -5.618818   -3.808745   -0.615386
     29          1           0       -5.188948   -4.394637   -1.432360
     30          1           0       -5.548240   -4.414381    0.291945
     31          1           0       -6.652943   -3.550644   -0.829353
     32          6           0        0.828325   -0.597782    0.427539
     33          6           0        1.476215   -1.729148    0.921764
     34         16           0        1.983594    0.420365   -0.407604
     35          6           0        2.850332   -1.767344    0.637622
     36          1           0        0.950295   -2.480548    1.491142
     37          6           0        3.334730   -0.675154   -0.080862
     38          8           0        3.725604   -2.751904    1.036006
     39          6           0        4.687751   -0.372678   -0.435870
     40          6           0        3.187433   -3.841158    1.760846
     41          6           0        5.220071    0.782243   -1.009296
     42         16           0        6.007545   -1.538600   -0.214036
     43          1           0        4.022804   -4.513261    1.963981
     44          1           0        2.745893   -3.512949    2.709443
     45          1           0        2.424481   -4.372246    1.179925
     46          6           0        6.614602    0.729783   -1.271640
     47          8           0        4.459996    1.879215   -1.359846
     48          6           0        7.189349   -0.452929   -0.902490
     49          1           0        7.147883    1.555885   -1.726795
     50          6           0        4.320004    2.869023   -0.333516
     51          1           0        8.221562   -0.758204   -0.979947
     52          1           0        5.303256    3.255527   -0.034224
     53          1           0        3.721546    3.673605   -0.762203
     54          1           0        3.793254    2.467716    0.535891
 ---------------------------------------------------------------------

 The electronic state is 1-A.
 Alpha  occ. eigenvalues --  -88.71194 -88.67806 -18.99713 -18.97955 -18.87827
 Alpha  occ. eigenvalues --  -18.87499 -18.86709 -18.86163 -14.15500 -14.14524
 Alpha  occ. eigenvalues --  -10.07859 -10.06272 -10.05903 -10.05814 -10.05695
 Alpha  occ. eigenvalues --  -10.05675 -10.05200 -10.04863 -10.04828 -10.03595
 Alpha  occ. eigenvalues --  -10.02111 -10.02096 -10.01832 -10.00921  -9.99978
 Alpha  occ. eigenvalues --   -9.98521  -9.98365  -9.98326  -9.98121  -9.96907
 Alpha  occ. eigenvalues --   -9.96254  -9.96014  -9.95915  -9.95787  -9.95675
 Alpha  occ. eigenvalues --   -9.95647  -7.79747  -7.76357  -5.76061  -5.75689
 Alpha  occ. eigenvalues --   -5.75298  -5.72692  -5.72294  -5.71880  -0.91003
 Alpha  occ. eigenvalues --   -0.89106  -0.83558  -0.82510  -0.81142  -0.80019
 Alpha  occ. eigenvalues --   -0.72191  -0.71729  -0.71152  -0.69245  -0.66705
 Alpha  occ. eigenvalues --   -0.62266  -0.59874  -0.59298  -0.58213  -0.57655
 Alpha  occ. eigenvalues --   -0.55402  -0.53737  -0.53421  -0.52569  -0.51987
 Alpha  occ. eigenvalues --   -0.50234  -0.49762  -0.47598  -0.43757  -0.42723
 Alpha  occ. eigenvalues --   -0.42380  -0.41787  -0.40421  -0.39702  -0.37920
 Alpha  occ. eigenvalues --   -0.37245  -0.36435  -0.34183  -0.33841  -0.31991
 Alpha  occ. eigenvalues --   -0.31944  -0.31482  -0.30346  -0.30011  -0.29777
 Alpha  occ. eigenvalues --   -0.29177  -0.28170  -0.27507  -0.27286  -0.26621
 Alpha  occ. eigenvalues --   -0.26178  -0.25386  -0.25271  -0.24974  -0.24545
 Alpha  occ. eigenvalues --   -0.23406  -0.23121  -0.22530  -0.21963  -0.21427
 Alpha  occ. eigenvalues --   -0.21220  -0.20899  -0.20840  -0.20376  -0.19848
 Alpha  occ. eigenvalues --   -0.19588  -0.19226  -0.18744  -0.18577  -0.18205
 Alpha  occ. eigenvalues --   -0.17895  -0.17654  -0.16662  -0.16491  -0.16184
 Alpha  occ. eigenvalues --   -0.15339  -0.14821  -0.14628  -0.12462  -0.11706
 Alpha  occ. eigenvalues --   -0.11602  -0.09726  -0.08686  -0.07084  -0.06927
 Alpha  occ. eigenvalues --   -0.06488  -0.06092  -0.05727  -0.05110  -0.04757
 Alpha  occ. eigenvalues --   -0.04602  -0.03329  -0.01692  -0.00065   0.06538
 Alpha virt. eigenvalues --    0.12146   0.12906   0.13730   0.14556   0.15793
 Alpha virt. eigenvalues --    0.15921   0.16557   0.16684   0.16871   0.17402
 Alpha virt. eigenvalues --    0.17491   0.18002   0.18625   0.18851   0.19026

 Mulliken charges:
               1
     1  C    0.218321
     2  C   -0.073922
     3  C    0.088277
     4  C    0.240731
     5  C    0.093295
     6  C   -0.042771
     7  C    0.152854
     8  C    0.190349
     9  C    0.229609
    10  C   -0.535767
    11  C    0.238630
    12  C    0.110708
    13  C   -0.512944
    14  C   -0.582166
    15  H    0.103044
    16  H    0.107091
    17  H    0.124702
    18  N   -0.046466
    19  N   -0.135199
    20  O   -0.430945
    21  O   -0.408050
    22  O   -0.422305
    23  O   -0.352345
    24  C   -0.157837
    25  H    0.134867
    26  H    0.140143
    27  H    0.156403
    28  C   -0.179667
    29  H    0.135300
    30  H    0.133707
    31  H    0.157164
    32  C    0.105857
    33  C   -0.807964
    34  S   -0.666750
    35  C   -0.367892
    36  H    0.116499
    37  C    0.625628
    38  O   -0.133130
    39  C    0.386534
    40  C   -0.225245
    41  C    0.125102
    42  S   -0.368020
    43  H    0.132020
    44  H    0.133980
    45  H    0.143893
    46  C   -0.085372
    47  O   -0.145869
    48  C   -0.199302
    49  H    0.093702
    50  C   -0.296041
    51  H    0.119111
    52  H    0.100686
    53  H    0.142911
    54  H    0.194849
 Sum of Mulliken charges =  -2.00000

 Dipole moment (field-independent basis, Debye):
    X=             14.7733    Y=             -3.1432    Z=              1.8386  Tot=             15.2155
 Quadrupole moment (field-independent basis, Debye-Ang):
   XX=           -421.3203   YY=           -303.9241   ZZ=           -241.7689
   XY=              5.9928   XZ=             -3.7169   YZ=             -8.4411

 Normal termination of Gaussian 16 at Fri Oct  8 15:02:29 2021.
