 Gaussian 16, Revision C.01,
 Gaussian 16:  ES64L-G16RevC.01  3-Jul-2019

 -------------------------------------
 # opt=modredundant b3lyp/6-311+g(d,p)
 -------------------------------------

 ------------
 NDI_-110.pdb
 ------------
 Symbolic Z-matrix:
 Charge = -2 Multiplicity = 1

 SCF Done:  E(RB3LYP) =  -2359.36916116     A.U. after   26 cycles
 SCF Done:  E(RB3LYP) =  -2359.38722180     A.U. after   16 cycles
 SCF Done:  E(RB3LYP) =  -2359.39052234     A.U. after   16 cycles
 SCF Done:  E(RB3LYP) =  -2359.39082106     A.U. after   16 cycles
 SCF Done:  E(RB3LYP) =  -2359.39098394     A.U. after   15 cycles
 SCF Done:  E(RB3LYP) =  -2359.39114115     A.U. after   15 cycles
 SCF Done:  E(RB3LYP) =  -2359.39115815     A.U. after   15 cycles
 SCF Done:  E(RB3LYP) =  -2359.39116940     A.U. after   12 cycles
 SCF Done:  E(RB3LYP) =  -2359.39117572     A.U. after   13 cycles
 SCF Done:  E(RB3LYP) =  -2359.39118467     A.U. after   15 cycles
 SCF Done:  E(RB3LYP) =  -2359.39562198     A.U. after   13 cycles
 SCF Done:  E(RB3LYP) =  -2359.39564106     A.U. after   14 cycles
 SCF Done:  E(RB3LYP) =  -2359.39564333     A.U. after   12 cycles
 SCF Done:  E(RB3LYP) =  -2359.39564508     A.U. after   12 cycles
 SCF Done:  E(RB3LYP) =  -2359.39564522     A.U. after   13 cycles
 SCF Done:  E(RB3LYP) =  -2359.39564616     A.U. after   12 cycles
 SCF Done:  E(RB3LYP) =  -2359.39564727     A.U. after   13 cycles
 SCF Done:  E(RB3LYP) =  -2359.39564741     A.U. after   11 cycles
 SCF Done:  E(RB3LYP) =  -2359.39564746     A.U. after    9 cycles
 SCF Done:  E(RB3LYP) =  -2359.39564746     A.U. after    9 cycles
 Optimization completed.
    -- Stationary point found.

                         Standard orientation:
 ---------------------------------------------------------------------
 Center     Atomic      Atomic             Coordinates (Angstroms)
 Number     Number       Type             X           Y           Z
 ---------------------------------------------------------------------
      1          6           0       -3.607965   -2.678822    0.358447
      2          6           0       -2.833466   -1.486739    0.153726
      3          6           0       -3.464608   -0.213029    0.128964
      4          6           0       -4.862943   -0.086697    0.305634
      5          6           0       -5.678630   -1.254125    0.522705
      6          6           0       -1.424717   -1.580028   -0.001672
      7          6           0       -2.656572    0.966491   -0.101368
      8          6           0       -1.245066    0.843549   -0.285939
      9          6           0       -0.630522   -0.471923   -0.178392
     10          6           0       -0.483643    2.010269   -0.629968
     11          6           0       -2.564163    3.423517   -0.439826
     12          6           0       -3.309566    2.225486   -0.166111
     13          6           0       -4.726115    2.317536    0.021039
     14          6           0       -5.478550    1.204528    0.252739
     15          1           0       -6.551575    1.258820    0.392122
     16          1           0       -5.171082    3.303848   -0.035808
     17          1           0       -0.977569   -2.564007    0.074159
     18          7           0       -1.186875    3.238289   -0.669264
     19          7           0       -4.996011   -2.492453    0.536157
     20          8           0       -3.155668   -3.843507    0.390105
     21          8           0       -6.916800   -1.231970    0.690676
     22          8           0       -3.056195    4.572560   -0.497261
     23          8           0        0.737922    2.040495   -0.903938
     24          6           0       -0.387798    4.411628   -1.002391
     25          1           0        0.415253    4.543576   -0.272048
     26          1           0        0.082236    4.283618   -1.981142
     27          1           0       -1.055649    5.269621   -1.000660
     28          6           0       -5.778258   -3.704028    0.748908
     29          1           0       -5.674955   -4.377072   -0.106980
     30          1           0       -5.412066   -4.239849    1.628801
     31          1           0       -6.814974   -3.403955    0.880688
     32          6           0        0.819541   -0.702126   -0.278977
     33          6           0        1.499731   -1.324411   -1.300818
     34         16           0        1.936978   -0.177704    0.958648
     35          6           0        2.903605   -1.344521   -1.115167
     36          1           0        0.984960   -1.693705   -2.175348
     37          6           0        3.342300   -0.726855    0.046127
     38          8           0        3.819170   -1.884138   -1.987072
     39          6           0        4.693676   -0.500622    0.487561
     40          6           0        3.329721   -2.338940   -3.235788
     41          6           0        5.186015    0.470348    1.352060
     42         16           0        6.030172   -1.547116   -0.006471
     43          1           0        4.200003   -2.690709   -3.792046
     44          1           0        2.619920   -3.165327   -3.112763
     45          1           0        2.842636   -1.530348   -3.792605
     46          6           0        6.578734    0.364739    1.624024
     47          8           0        4.426054    1.448182    1.949678
     48          6           0        7.176308   -0.674367    0.970288
     49          1           0        7.091750    1.058243    2.278665
     50          6           0        4.013559    2.523754    1.086768
     51          1           0        8.217421   -0.959023    0.965881
     52          1           0        3.319031    2.183802    0.315678
     53          1           0        3.499419    3.240669    1.727283
     54          1           0        4.891532    2.997401    0.630100
 ---------------------------------------------------------------------

 The electronic state is 1-A.
 Alpha  occ. eigenvalues --  -88.72268 -88.68632 -19.00286 -18.98513 -18.86664
 Alpha  occ. eigenvalues --  -18.86404 -18.86201 -18.85988 -14.14575 -14.14275
 Alpha  occ. eigenvalues --  -10.08357 -10.06950 -10.06665 -10.05655 -10.05579
 Alpha  occ. eigenvalues --  -10.05136 -10.04889 -10.04818 -10.04683 -10.04592
 Alpha  occ. eigenvalues --  -10.03004 -10.02809 -10.02698 -10.00125  -9.99788
 Alpha  occ. eigenvalues --   -9.99286  -9.97857  -9.97731  -9.97614  -9.96045
 Alpha  occ. eigenvalues --   -9.95735  -9.95249  -9.95140  -9.95078  -9.95041
 Alpha  occ. eigenvalues --   -9.94977  -7.80839  -7.77225  -5.77146  -5.76775
 Alpha  occ. eigenvalues --   -5.76404  -5.73554  -5.73159  -5.72758  -0.91585
 Alpha  occ. eigenvalues --   -0.89652  -0.82406  -0.82083  -0.79922  -0.79549
 Alpha  occ. eigenvalues --   -0.72840  -0.71159  -0.70807  -0.70077  -0.66120
 Alpha  occ. eigenvalues --   -0.62118  -0.59948  -0.58948  -0.58877  -0.58417
 Alpha  occ. eigenvalues --   -0.55325  -0.54220  -0.52889  -0.52397  -0.51948
 Alpha  occ. eigenvalues --   -0.50463  -0.49371  -0.47189  -0.43795  -0.42904
 Alpha  occ. eigenvalues --   -0.41944  -0.41691  -0.40243  -0.39626  -0.38481
 Alpha  occ. eigenvalues --   -0.37258  -0.37132  -0.33639  -0.33356  -0.32513
 Alpha  occ. eigenvalues --   -0.32088  -0.31451  -0.30517  -0.30336  -0.29979
 Alpha  occ. eigenvalues --   -0.29542  -0.28730  -0.26973  -0.26629  -0.26331
 Alpha  occ. eigenvalues --   -0.26015  -0.25691  -0.24953  -0.24665  -0.24353
 Alpha  occ. eigenvalues --   -0.23941  -0.22834  -0.22208  -0.22114  -0.21514
 Alpha  occ. eigenvalues --   -0.21023  -0.20517  -0.20467  -0.20229  -0.20031
 Alpha  occ. eigenvalues --   -0.19475  -0.18991  -0.18652  -0.18494  -0.17748
 Alpha  occ. eigenvalues --   -0.17581  -0.17131  -0.16824  -0.16232  -0.16005
 Alpha  occ. eigenvalues --   -0.15671  -0.14606  -0.14374  -0.12716  -0.11719
 Alpha  occ. eigenvalues --   -0.10939  -0.09937  -0.09144  -0.06439  -0.06234
 Alpha  occ. eigenvalues --   -0.06049  -0.05613  -0.05372  -0.04831  -0.04176
 Alpha  occ. eigenvalues --   -0.03824  -0.03378  -0.01806  -0.00409   0.07162
 Alpha virt. eigenvalues --    0.11487   0.12456   0.13286   0.14192   0.15622
 Alpha virt. eigenvalues --    0.16153   0.16263   0.16850   0.16987   0.17209
 Alpha virt. eigenvalues --    0.17267   0.17707   0.18076   0.18292   0.18973

 Mulliken charges:
               1
     1  C    0.291650
     2  C   -0.109491
     3  C    0.086783
     4  C    0.256205
     5  C    0.148687
     6  C   -0.693429
     7  C    0.204927
     8  C   -0.053656
     9  C    0.487682
    10  C   -0.308094
    11  C    0.159159
    12  C    0.297632
    13  C   -0.613613
    14  C   -0.631091
    15  H    0.102176
    16  H    0.104514
    17  H    0.112155
    18  N   -0.122018
    19  N   -0.135909
    20  O   -0.435664
    21  O   -0.423687
    22  O   -0.427414
    23  O   -0.331415
    24  C   -0.193617
    25  H    0.133335
    26  H    0.134974
    27  H    0.158649
    28  C   -0.183324
    29  H    0.130389
    30  H    0.133540
    31  H    0.156531
    32  C    0.339468
    33  C   -0.638418
    34  S   -0.088800
    35  C   -0.516734
    36  H    0.100592
    37  C    0.275046
    38  O   -0.122733
    39  C    0.264775
    40  C   -0.242531
    41  C    0.178426
    42  S   -0.351218
    43  H    0.130949
    44  H    0.138391
    45  H    0.144653
    46  C   -0.118417
    47  O   -0.164748
    48  C   -0.117858
    49  H    0.099490
    50  C   -0.338100
    51  H    0.124259
    52  H    0.227234
    53  H    0.138362
    54  H    0.101346
 Sum of Mulliken charges =  -2.00000

 Dipole moment (field-independent basis, Debye):
    X=             18.0274    Y=             -1.9657    Z=             -2.7507  Tot=             18.3417
 Quadrupole moment (field-independent basis, Debye-Ang):
   XX=           -423.1855   YY=           -310.9285   ZZ=           -235.6345
   XY=              4.8617   XZ=             -0.2302   YZ=             14.4457

 Normal termination of Gaussian 16 at Thu Oct  7 02:18:20 2021.
