 Gaussian 16, Revision C.01,
 Gaussian 16:  ES64L-G16RevC.01  3-Jul-2019

 -------------------------------------
 # opt=modredundant b3lyp/6-311+g(d,p)
 -------------------------------------

 ---------
 NDI_0.pdb
 ---------
 Symbolic Z-matrix:
 Charge = -2 Multiplicity = 1

 SCF Done:  E(RB3LYP) =  -2359.36273736     A.U. after   23 cycles
 SCF Done:  E(RB3LYP) =  -2359.36727846     A.U. after   20 cycles
 SCF Done:  E(RB3LYP) =  -2359.37884223     A.U. after   15 cycles
 SCF Done:  E(RB3LYP) =  -2359.38874861     A.U. after   14 cycles
 SCF Done:  E(RB3LYP) =  -2359.39339207     A.U. after   16 cycles
 SCF Done:  E(RB3LYP) =  -2359.39457879     A.U. after   18 cycles
 SCF Done:  E(RB3LYP) =  -2359.39503306     A.U. after   16 cycles
 SCF Done:  E(RB3LYP) =  -2359.39542829     A.U. after   15 cycles
 SCF Done:  E(RB3LYP) =  -2359.39569724     A.U. after   14 cycles
 SCF Done:  E(RB3LYP) =  -2359.39578129     A.U. after   13 cycles
 SCF Done:  E(RB3LYP) =  -2359.39868604     A.U. after   11 cycles
 SCF Done:  E(RB3LYP) =  -2359.39868884     A.U. after   11 cycles
 SCF Done:  E(RB3LYP) =  -2359.39869101     A.U. after   12 cycles
 SCF Done:  E(RB3LYP) =  -2359.39869180     A.U. after   11 cycles
 SCF Done:  E(RB3LYP) =  -2359.39869233     A.U. after   11 cycles
 SCF Done:  E(RB3LYP) =  -2359.39869271     A.U. after   11 cycles
 SCF Done:  E(RB3LYP) =  -2359.39869292     A.U. after   10 cycles
 SCF Done:  E(RB3LYP) =  -2359.39869300     A.U. after   11 cycles
 SCF Done:  E(RB3LYP) =  -2359.39869306     A.U. after   10 cycles
 SCF Done:  E(RB3LYP) =  -2359.39869308     A.U. after   10 cycles
 Optimization completed.
    -- Stationary point found.

                         Standard orientation:
 ---------------------------------------------------------------------
 Center     Atomic      Atomic             Coordinates (Angstroms)
 Number     Number       Type             X           Y           Z
 ---------------------------------------------------------------------
      1          6           0       -2.574147   -2.983892    0.333772
      2          6           0       -2.264976   -1.575276    0.291886
      3          6           0       -3.273279   -0.621800   -0.031007
      4          6           0       -4.589002   -1.030790   -0.325766
      5          6           0       -4.941822   -2.435430   -0.306772
      6          6           0       -0.938242   -1.152686    0.464495
      7          6           0       -2.921775    0.780482   -0.024158
      8          6           0       -1.587634    1.200101    0.289748
      9          6           0       -0.528419    0.173771    0.421672
     10          6           0       -1.390010    2.584556    0.610998
     11          6           0       -3.715789    3.124236   -0.199417
     12          6           0       -3.965305    1.709214   -0.285620
     13          6           0       -5.283084    1.265407   -0.600459
     14          6           0       -5.594355   -0.063523   -0.627391
     15          1           0       -6.592553   -0.416523   -0.854706
     16          1           0       -6.025904    2.028324   -0.801795
     17          1           0       -0.208718   -1.948490    0.562458
     18          7           0       -2.446985    3.479146    0.261340
     19          7           0       -3.908016   -3.333921    0.032114
     20          8           0       -1.769749   -3.893904    0.603734
     21          8           0       -6.079190   -2.872829   -0.561535
     22          8           0       -4.545937    4.020471   -0.462819
     23          8           0       -0.391014    3.080813    1.180537
     24          6           0       -2.225856    4.905841    0.470115
     25          1           0       -2.868105    5.283116    1.272920
     26          1           0       -1.182226    5.043589    0.739024
     27          1           0       -2.486113    5.451971   -0.438956
     28          6           0       -4.218246   -4.758626    0.073215
     29          1           0       -3.604989   -5.300771   -0.651675
     30          1           0       -3.989514   -5.164291    1.061863
     31          1           0       -5.274556   -4.870916   -0.157464
     32          6           0        0.893913    0.405610    0.250785
     33          6           0        1.589208    1.568588   -0.059672
     34         16           0        2.064497   -0.925586    0.439783
     35          6           0        2.978197    1.398809   -0.169533
     36          1           0        1.085518    2.515790   -0.132542
     37          6           0        3.453098    0.109797    0.054840
     38          8           0        3.871853    2.396252   -0.469542
     39          6           0        4.793812   -0.373763   -0.017202
     40          6           0        3.347709    3.705576   -0.633352
     41          6           0        5.281769   -1.674248    0.123222
     42         16           0        6.176472    0.705412   -0.298875
     43          1           0        4.207713    4.352332   -0.814775
     44          1           0        2.664321    3.755958   -1.488321
     45          1           0        2.814487    4.036789    0.263277
     46          6           0        6.691604   -1.799424    0.021578
     47          8           0        4.469587   -2.758718    0.395512
     48          6           0        7.323160   -0.610096   -0.208697
     49          1           0        7.197974   -2.751677    0.126975
     50          6           0        4.042805   -3.488209   -0.755777
     51          1           0        8.377593   -0.415509   -0.330708
     52          1           0        4.900764   -3.936731   -1.274675
     53          1           0        3.376900   -4.274271   -0.397359
     54          1           0        3.492480   -2.844510   -1.448375
 ---------------------------------------------------------------------

 The electronic state is 1-A.
 Alpha  occ. eigenvalues --  -88.71135 -88.67729 -18.99281 -18.98301 -18.88330
 Alpha  occ. eigenvalues --  -18.87847 -18.86915 -18.86413 -14.15825 -14.14770
 Alpha  occ. eigenvalues --  -10.06942 -10.06762 -10.06482 -10.06298 -10.05674
 Alpha  occ. eigenvalues --  -10.05637 -10.05302 -10.05223 -10.04892 -10.03531
 Alpha  occ. eigenvalues --  -10.02163 -10.01986 -10.01790 -10.01171 -10.00290
 Alpha  occ. eigenvalues --   -9.98649  -9.98593  -9.98329  -9.97264  -9.97210
 Alpha  occ. eigenvalues --   -9.96695  -9.96361  -9.96286  -9.96127  -9.95951
 Alpha  occ. eigenvalues --   -9.95941  -7.79682  -7.76305  -5.75999  -5.75626
 Alpha  occ. eigenvalues --   -5.75231  -5.72651  -5.72268  -5.71796  -0.90548
 Alpha  occ. eigenvalues --   -0.89495  -0.84042  -0.82761  -0.81654  -0.80222
 Alpha  occ. eigenvalues --   -0.72593  -0.71679  -0.71374  -0.68896  -0.66923
 Alpha  occ. eigenvalues --   -0.62352  -0.60061  -0.59339  -0.58278  -0.57425
 Alpha  occ. eigenvalues --   -0.55298  -0.54136  -0.53280  -0.52869  -0.52043
 Alpha  occ. eigenvalues --   -0.50399  -0.49831  -0.47690  -0.44203  -0.42853
 Alpha  occ. eigenvalues --   -0.42476  -0.41921  -0.40642  -0.39642  -0.37992
 Alpha  occ. eigenvalues --   -0.37143  -0.36195  -0.34474  -0.34017  -0.31995
 Alpha  occ. eigenvalues --   -0.31373  -0.31219  -0.30754  -0.30514  -0.29865
 Alpha  occ. eigenvalues --   -0.28940  -0.28451  -0.27822  -0.27257  -0.26895
 Alpha  occ. eigenvalues --   -0.26332  -0.25700  -0.25281  -0.25128  -0.24316
 Alpha  occ. eigenvalues --   -0.23654  -0.23041  -0.22650  -0.22486  -0.21513
 Alpha  occ. eigenvalues --   -0.21439  -0.21000  -0.20876  -0.20401  -0.19814
 Alpha  occ. eigenvalues --   -0.19508  -0.19394  -0.19211  -0.18697  -0.18550
 Alpha  occ. eigenvalues --   -0.18096  -0.17782  -0.16848  -0.16398  -0.16214
 Alpha  occ. eigenvalues --   -0.15515  -0.14992  -0.14541  -0.12865  -0.11973
 Alpha  occ. eigenvalues --   -0.11591  -0.09771  -0.08738  -0.07422  -0.07184
 Alpha  occ. eigenvalues --   -0.06698  -0.06284  -0.05709  -0.05348  -0.05141
 Alpha  occ. eigenvalues --   -0.04943  -0.03676  -0.02006   0.00145   0.06244
 Alpha virt. eigenvalues --    0.11861   0.12912   0.14057   0.14569   0.15493
 Alpha virt. eigenvalues --    0.15846   0.16534   0.16617   0.16773   0.17276
 Alpha virt. eigenvalues --    0.17619   0.18103   0.18631   0.18838   0.18937

 Mulliken charges:
               1
     1  C    0.128198
     2  C    0.034621
     3  C    0.233439
     4  C    0.286418
     5  C    0.115367
     6  C    0.184111
     7  C    0.143042
     8  C    0.447187
     9  C    0.091503
    10  C   -0.850609
    11  C    0.064978
    12  C    0.246132
    13  C   -0.452572
    14  C   -0.569655
    15  H    0.103898
    16  H    0.109035
    17  H    0.133676
    18  N   -0.032218
    19  N   -0.132679
    20  O   -0.415883
    21  O   -0.403980
    22  O   -0.432074
    23  O   -0.396435
    24  C   -0.142079
    25  H    0.124305
    26  H    0.155470
    27  H    0.138575
    28  C   -0.179371
    29  H    0.137061
    30  H    0.136722
    31  H    0.156437
    32  C   -0.237318
    33  C    0.149954
    34  S   -0.934837
    35  C   -0.763769
    36  H    0.167067
    37  C    0.297929
    38  O   -0.122041
    39  C    0.464884
    40  C   -0.252147
    41  C    0.028197
    42  S   -0.351442
    43  H    0.129065
    44  H    0.136779
    45  H    0.162637
    46  C   -0.010129
    47  O   -0.141420
    48  C   -0.227787
    49  H    0.092501
    50  C   -0.287986
    51  H    0.119065
    52  H    0.103174
    53  H    0.150974
    54  H    0.164031
 Sum of Mulliken charges =  -2.00000

 Dipole moment (field-independent basis, Debye):
    X=             14.0271    Y=              0.0814    Z=             -2.0934  Tot=             14.1827
 Quadrupole moment (field-independent basis, Debye-Ang):
   XX=           -421.7422   YY=           -307.1409   ZZ=           -241.6250
   XY=              6.4164   XZ=            -16.0227   YZ=              2.1958

 Normal termination of Gaussian 16 at Fri Oct  8 08:23:39 2021.
