 Gaussian 16, Revision C.01,
 Gaussian 16:  ES64L-G16RevC.01  3-Jul-2019

 -------------------------------------
 # opt=modredundant b3lyp/6-311+g(d,p)
 -------------------------------------

 -----------
 NDI_-90.pdb
 -----------
 Symbolic Z-matrix:
 Charge = -2 Multiplicity = 1

 SCF Done:  E(RB3LYP) =  -2359.36879209     A.U. after   29 cycles
 SCF Done:  E(RB3LYP) =  -2359.38733073     A.U. after   17 cycles
 SCF Done:  E(RB3LYP) =  -2359.39018580     A.U. after   16 cycles
 SCF Done:  E(RB3LYP) =  -2359.39027906     A.U. after   14 cycles
 SCF Done:  E(RB3LYP) =  -2359.39039274     A.U. after   15 cycles
 SCF Done:  E(RB3LYP) =  -2359.39043172     A.U. after   13 cycles
 SCF Done:  E(RB3LYP) =  -2359.39044083     A.U. after   12 cycles
 SCF Done:  E(RB3LYP) =  -2359.39044698     A.U. after   12 cycles
 SCF Done:  E(RB3LYP) =  -2359.39051718     A.U. after   13 cycles
 SCF Done:  E(RB3LYP) =  -2359.39052328     A.U. after   12 cycles
 SCF Done:  E(RB3LYP) =  -2359.39364074     A.U. after   17 cycles
 SCF Done:  E(RB3LYP) =  -2359.39365002     A.U. after   15 cycles
 SCF Done:  E(RB3LYP) =  -2359.39365521     A.U. after   15 cycles
 SCF Done:  E(RB3LYP) =  -2359.39366402     A.U. after   15 cycles
 SCF Done:  E(RB3LYP) =  -2359.39366537     A.U. after   14 cycles
 SCF Done:  E(RB3LYP) =  -2359.39366778     A.U. after   13 cycles
 SCF Done:  E(RB3LYP) =  -2359.39366969     A.U. after   15 cycles
 SCF Done:  E(RB3LYP) =  -2359.39367105     A.U. after   15 cycles
 SCF Done:  E(RB3LYP) =  -2359.39367163     A.U. after   13 cycles
 SCF Done:  E(RB3LYP) =  -2359.39367188     A.U. after   13 cycles
 Optimization completed.
    -- Stationary point found.

                         Standard orientation:
 ---------------------------------------------------------------------
 Center     Atomic      Atomic             Coordinates (Angstroms)
 Number     Number       Type             X           Y           Z
 ---------------------------------------------------------------------
      1          6           0        3.383258   -2.801419   -0.137567
      2          6           0        2.712473   -1.537531   -0.034236
      3          6           0        3.452513   -0.325897   -0.077854
      4          6           0        4.861016   -0.331223   -0.230657
      5          6           0        5.575453   -1.574046   -0.344020
      6          6           0        1.296588   -1.499888    0.124312
      7          6           0        2.747103    0.933894    0.039623
      8          6           0        1.328509    0.944696    0.197965
      9          6           0        0.611064   -0.319304    0.245393
     10          6           0        0.644178    2.199385    0.310307
     11          6           0        2.846273    3.411576    0.108654
     12          6           0        3.498486    2.137888   -0.004919
     13          6           0        4.923110    2.094819   -0.163048
     14          6           0        5.581514    0.906873   -0.271587
     15          1           0        6.657417    0.859475   -0.391163
     16          1           0        5.448586    3.042003   -0.192044
     17          1           0        0.771898   -2.447322    0.157665
     18          7           0        1.443905    3.363333    0.259467
     19          7           0        4.785708   -2.747010   -0.292187
     20          8           0        2.831940   -3.923951   -0.100733
     21          8           0        6.815456   -1.672596   -0.480471
     22          8           0        3.428813    4.519795    0.082567
     23          8           0       -0.592497    2.351594    0.447372
     24          6           0        0.726336    4.627097    0.374899
     25          1           0       -0.008840    4.720266   -0.429241
     26          1           0        0.177866    4.666733    1.320180
     27          1           0        1.463866    5.424251    0.320510
     28          6           0        5.462684   -4.033026   -0.402325
     29          1           0        5.294647   -4.629553    0.499201
     30          1           0        5.059106   -4.600214   -1.245422
     31          1           0        6.522614   -3.832460   -0.539182
     32          6           0       -0.852215   -0.389044    0.458155
     33          6           0       -1.535127   -0.477958    1.644833
     34         16           0       -1.957075   -0.482608   -0.888240
     35          6           0       -2.939051   -0.566998    1.480849
     36          1           0       -1.023495   -0.432710    2.594546
     37          6           0       -3.371539   -0.563215    0.163278
     38          8           0       -3.857685   -0.663155    2.496467
     39          6           0       -4.722588   -0.605969   -0.332081
     40          6           0       -3.392787   -0.411633    3.812698
     41          6           0       -5.201002   -0.307155   -1.600694
     42         16           0       -6.082560   -1.112715    0.676367
     43          1           0       -4.273484   -0.443904    4.455789
     44          1           0       -2.679075   -1.177013    4.138322
     45          1           0       -2.919971    0.573614    3.884560
     46          6           0       -6.601928   -0.493049   -1.766133
     47          8           0       -4.402071    0.103649   -2.644938
     48          6           0       -7.218428   -0.926639   -0.628682
     49          1           0       -7.105097   -0.301320   -2.705701
     50          6           0       -4.114199    1.508880   -2.658553
     51          1           0       -8.266434   -1.125042   -0.463395
     52          1           0       -3.592759    1.817225   -1.749161
     53          1           0       -3.462575    1.679611   -3.515734
     54          1           0       -5.039205    2.087890   -2.774488
 ---------------------------------------------------------------------

 The electronic state is 1-A.
 Alpha  occ. eigenvalues --  -88.72938 -88.69352 -19.00764 -18.99476 -18.85999
 Alpha  occ. eigenvalues --  -18.85837 -18.85783 -18.85738 -14.14031 -14.14024
 Alpha  occ. eigenvalues --  -10.08634 -10.07580 -10.07191 -10.07060 -10.06470
 Alpha  occ. eigenvalues --  -10.05488 -10.04481 -10.04304 -10.04292 -10.04205
 Alpha  occ. eigenvalues --  -10.03691 -10.03433 -10.03280  -9.99648  -9.99600
 Alpha  occ. eigenvalues --   -9.99570  -9.97481  -9.97367  -9.97292  -9.95606
 Alpha  occ. eigenvalues --   -9.95460  -9.94638  -9.94633  -9.94616  -9.94578
 Alpha  occ. eigenvalues --   -9.94513  -7.81501  -7.77932  -5.77808  -5.77434
 Alpha  occ. eigenvalues --   -5.77067  -5.74260  -5.73858  -5.73475  -0.92058
 Alpha  occ. eigenvalues --   -0.90718  -0.81761  -0.81734  -0.79233  -0.79186
 Alpha  occ. eigenvalues --   -0.73557  -0.70702  -0.70565  -0.70433  -0.65743
 Alpha  occ. eigenvalues --   -0.62259  -0.60057  -0.59700  -0.58889  -0.58474
 Alpha  occ. eigenvalues --   -0.55633  -0.54399  -0.53417  -0.52355  -0.51626
 Alpha  occ. eigenvalues --   -0.50651  -0.49022  -0.46877  -0.44292  -0.43134
 Alpha  occ. eigenvalues --   -0.41614  -0.41529  -0.40351  -0.39298  -0.39224
 Alpha  occ. eigenvalues --   -0.37852  -0.37078  -0.33318  -0.33031  -0.32864
 Alpha  occ. eigenvalues --   -0.32545  -0.31775  -0.31489  -0.31087  -0.30327
 Alpha  occ. eigenvalues --   -0.29648  -0.29114  -0.27001  -0.26483  -0.26161
 Alpha  occ. eigenvalues --   -0.26009  -0.25836  -0.25084  -0.24649  -0.24353
 Alpha  occ. eigenvalues --   -0.23924  -0.22903  -0.22582  -0.22018  -0.21607
 Alpha  occ. eigenvalues --   -0.21009  -0.20648  -0.20217  -0.20083  -0.19801
 Alpha  occ. eigenvalues --   -0.19629  -0.18921  -0.18325  -0.18262  -0.17669
 Alpha  occ. eigenvalues --   -0.17232  -0.17109  -0.16757  -0.16178  -0.15943
 Alpha  occ. eigenvalues --   -0.15556  -0.14164  -0.14048  -0.13349  -0.11689
 Alpha  occ. eigenvalues --   -0.11215  -0.10158  -0.09556  -0.06670  -0.05835
 Alpha  occ. eigenvalues --   -0.05702  -0.05148  -0.05118  -0.04529  -0.03771
 Alpha  occ. eigenvalues --   -0.03556  -0.03030  -0.01943  -0.00051   0.07572
 Alpha virt. eigenvalues --    0.11026   0.12054   0.13051   0.13688   0.15185
 Alpha virt. eigenvalues --    0.15831   0.15997   0.16663   0.16851   0.17161
 Alpha virt. eigenvalues --    0.17512   0.17541   0.17753   0.17961   0.18504

 Mulliken charges:
               1
     1  C    0.308678
     2  C    0.034578
     3  C    0.125461
     4  C    0.215348
     5  C    0.136204
     6  C   -0.753509
     7  C    0.212698
     8  C   -0.073308
     9  C    0.638025
    10  C   -0.421228
    11  C    0.101440
    12  C    0.281194
    13  C   -0.622175
    14  C   -0.623084
    15  H    0.100838
    16  H    0.102435
    17  H    0.106975
    18  N   -0.152715
    19  N   -0.139321
    20  O   -0.438289
    21  O   -0.430073
    22  O   -0.428540
    23  O   -0.287360
    24  C   -0.213976
    25  H    0.132641
    26  H    0.130174
    27  H    0.158848
    28  C   -0.180891
    29  H    0.129278
    30  H    0.132553
    31  H    0.156144
    32  C    0.430020
    33  C   -0.775853
    34  S   -0.105236
    35  C   -0.480468
    36  H    0.097732
    37  C    0.293962
    38  O   -0.125606
    39  C    0.278883
    40  C   -0.239298
    41  C    0.169473
    42  S   -0.338901
    43  H    0.132626
    44  H    0.136560
    45  H    0.154624
    46  C   -0.080401
    47  O   -0.156690
    48  C   -0.162526
    49  H    0.100330
    50  C   -0.349051
    51  H    0.125994
    52  H    0.199855
    53  H    0.147072
    54  H    0.107856
 Sum of Mulliken charges =  -2.00000

 Dipole moment (field-independent basis, Debye):
    X=            -20.3535    Y=             -0.2152    Z=              2.4403  Tot=             20.5004
 Quadrupole moment (field-independent basis, Debye-Ang):
   XX=           -422.1733   YY=           -319.9664   ZZ=           -228.1595
   XY=             -6.2364   XZ=              2.0403   YZ=             -7.7521

 Normal termination of Gaussian 16 at Thu Oct  7 23:08:35 2021.
