 Gaussian 16, Revision C.01,
 Gaussian 16:  ES64L-G16RevC.01  3-Jul-2019

 -------------------------------------
 # opt=modredundant b3lyp/6-311+g(d,p)
 -------------------------------------

 ------------
 NDI_-140.pdb
 ------------
 Symbolic Z-matrix:
 Charge = -2 Multiplicity = 1

 SCF Done:  E(RB3LYP) =  -2359.36487712     A.U. after   22 cycles
 SCF Done:  E(RB3LYP) =  -2359.37993618     A.U. after   20 cycles
 SCF Done:  E(RB3LYP) =  -2359.39016585     A.U. after   18 cycles
 SCF Done:  E(RB3LYP) =  -2359.39198316     A.U. after   17 cycles
 SCF Done:  E(RB3LYP) =  -2359.39233374     A.U. after   17 cycles
 SCF Done:  E(RB3LYP) =  -2359.39313553     A.U. after   15 cycles
 SCF Done:  E(RB3LYP) =  -2359.39290441     A.U. after   18 cycles
 SCF Done:  E(RB3LYP) =  -2359.39405418     A.U. after   15 cycles
 SCF Done:  E(RB3LYP) =  -2359.39419677     A.U. after   14 cycles
 SCF Done:  E(RB3LYP) =  -2359.39423591     A.U. after   14 cycles
 SCF Done:  E(RB3LYP) =  -2359.39889934     A.U. after   14 cycles
 SCF Done:  E(RB3LYP) =  -2359.39890733     A.U. after   13 cycles
 SCF Done:  E(RB3LYP) =  -2359.39891344     A.U. after   13 cycles
 SCF Done:  E(RB3LYP) =  -2359.39891436     A.U. after   12 cycles
 SCF Done:  E(RB3LYP) =  -2359.39891491     A.U. after   12 cycles
 SCF Done:  E(RB3LYP) =  -2359.39891506     A.U. after   10 cycles
 SCF Done:  E(RB3LYP) =  -2359.39891522     A.U. after   10 cycles
 SCF Done:  E(RB3LYP) =  -2359.39891541     A.U. after   11 cycles
 SCF Done:  E(RB3LYP) =  -2359.39891551     A.U. after   11 cycles
 SCF Done:  E(RB3LYP) =  -2359.39891553     A.U. after    9 cycles
 Optimization completed.
    -- Stationary point found.

                         Standard orientation:
 ---------------------------------------------------------------------
 Center     Atomic      Atomic             Coordinates (Angstroms)
 Number     Number       Type             X           Y           Z
 ---------------------------------------------------------------------
      1          6           0       -3.525601   -2.692759    0.259114
      2          6           0       -2.788279   -1.473551    0.058704
      3          6           0       -3.446121   -0.212640    0.126987
      4          6           0       -4.830799   -0.126485    0.389803
      5          6           0       -5.609403   -1.323872    0.603049
      6          6           0       -1.391520   -1.527587   -0.147210
      7          6           0       -2.673498    0.989049   -0.100503
      8          6           0       -1.273361    0.903521   -0.374594
      9          6           0       -0.615904   -0.396919   -0.323022
     10          6           0       -0.589586    2.086655   -0.816324
     11          6           0       -2.660228    3.457412   -0.375963
     12          6           0       -3.358717    2.232452   -0.083983
     13          6           0       -4.759394    2.286035    0.193967
     14          6           0       -5.476061    1.148865    0.428978
     15          1           0       -6.539219    1.174223    0.634759
     16          1           0       -5.226299    3.263817    0.200061
     17          1           0       -0.922200   -2.501079   -0.078388
     18          7           0       -1.311128    3.306468   -0.737870
     19          7           0       -4.904672   -2.546146    0.521628
     20          8           0       -3.047965   -3.844921    0.218199
     21          8           0       -6.833310   -1.334107    0.843836
     22          8           0       -3.178645    4.594621   -0.348496
     23          8           0        0.572079    2.140409   -1.271218
     24          6           0       -0.572756    4.500471   -1.132795
     25          1           0        0.348540    4.579547   -0.551181
     26          1           0       -0.287069    4.442519   -2.187259
     27          1           0       -1.221065    5.355905   -0.959431
     28          6           0       -5.649291   -3.783193    0.725470
     29          1           0       -5.566089   -4.423574   -0.156785
     30          1           0       -5.234880   -4.338896    1.570993
     31          1           0       -6.685984   -3.513766    0.911469
     32          6           0        0.826554   -0.619218   -0.350772
     33          6           0        1.489967   -1.628449   -1.034746
     34         16           0        1.963548    0.284548    0.626480
     35          6           0        2.875774   -1.662354   -0.788087
     36          1           0        0.968495   -2.286537   -1.713680
     37          6           0        3.342158   -0.679829    0.081041
     38          8           0        3.770405   -2.539866   -1.355308
     39          6           0        4.694597   -0.391483    0.456848
     40          6           0        3.251753   -3.499184   -2.257164
     41          6           0        5.208635    0.704749    1.147330
     42         16           0        6.031155   -1.501879    0.103324
     43          1           0        4.102403   -4.099392   -2.584011
     44          1           0        2.512654   -4.147473   -1.772338
     45          1           0        2.787835   -3.020898   -3.127877
     46          6           0        6.606079    0.649474    1.396001
     47          8           0        4.436573    1.749269    1.610568
     48          6           0        7.197579   -0.476930    0.899611
     49          1           0        7.128491    1.433642    1.930659
     50          6           0        4.222183    2.806436    0.665227
     51          1           0        8.236784   -0.766306    0.931457
     52          1           0        3.656678    2.456708   -0.201897
     53          1           0        3.633576    3.564730    1.182667
     54          1           0        5.181049    3.234626    0.345158
 ---------------------------------------------------------------------

 The electronic state is 1-A.
 Alpha  occ. eigenvalues --  -88.71498 -88.68035 -18.99944 -18.98146 -18.87491
 Alpha  occ. eigenvalues --  -18.87171 -18.86584 -18.86101 -14.15228 -14.14445
 Alpha  occ. eigenvalues --  -10.08051 -10.06105 -10.06006 -10.05944 -10.05747
 Alpha  occ. eigenvalues --  -10.05581 -10.05119 -10.05075 -10.04758 -10.03925
 Alpha  occ. eigenvalues --  -10.02363 -10.02219 -10.02184 -10.00687  -9.99919
 Alpha  occ. eigenvalues --   -9.98764  -9.98217  -9.98175  -9.97940  -9.96667
 Alpha  occ. eigenvalues --   -9.95972  -9.95849  -9.95765  -9.95587  -9.95507
 Alpha  occ. eigenvalues --   -9.95467  -7.80053  -7.76602  -5.76366  -5.75994
 Alpha  occ. eigenvalues --   -5.75608  -5.72936  -5.72542  -5.72123  -0.91238
 Alpha  occ. eigenvalues --   -0.89294  -0.83220  -0.82388  -0.80784  -0.79895
 Alpha  occ. eigenvalues --   -0.72041  -0.71888  -0.71047  -0.69494  -0.66546
 Alpha  occ. eigenvalues --   -0.62221  -0.59867  -0.59248  -0.58427  -0.57896
 Alpha  occ. eigenvalues --   -0.55370  -0.53906  -0.53254  -0.52420  -0.52121
 Alpha  occ. eigenvalues --   -0.50274  -0.49688  -0.47498  -0.43686  -0.42786
 Alpha  occ. eigenvalues --   -0.42291  -0.41782  -0.40307  -0.39790  -0.38104
 Alpha  occ. eigenvalues --   -0.37235  -0.36656  -0.34018  -0.33705  -0.32191
 Alpha  occ. eigenvalues --   -0.31838  -0.31557  -0.30456  -0.30152  -0.29899
 Alpha  occ. eigenvalues --   -0.29324  -0.28340  -0.27249  -0.27201  -0.26527
 Alpha  occ. eigenvalues --   -0.26111  -0.25459  -0.25170  -0.24808  -0.24663
 Alpha  occ. eigenvalues --   -0.23502  -0.23097  -0.22420  -0.21928  -0.21509
 Alpha  occ. eigenvalues --   -0.21119  -0.20822  -0.20693  -0.20380  -0.20004
 Alpha  occ. eigenvalues --   -0.19480  -0.19096  -0.18832  -0.18611  -0.18029
 Alpha  occ. eigenvalues --   -0.17856  -0.17396  -0.16834  -0.16360  -0.16033
 Alpha  occ. eigenvalues --   -0.15508  -0.14851  -0.14690  -0.12272  -0.11909
 Alpha  occ. eigenvalues --   -0.11433  -0.09834  -0.08889  -0.06840  -0.06729
 Alpha  occ. eigenvalues --   -0.06295  -0.06003  -0.05621  -0.05041  -0.04513
 Alpha  occ. eigenvalues --   -0.04463  -0.03377  -0.01579  -0.00300   0.06709
 Alpha virt. eigenvalues --    0.11999   0.12774   0.13523   0.14447   0.15791
 Alpha virt. eigenvalues --    0.15960   0.16451   0.16826   0.16916   0.17320
 Alpha virt. eigenvalues --    0.17429   0.17881   0.18511   0.18593   0.19018

 Mulliken charges:
               1
     1  C    0.238224
     2  C   -0.134968
     3  C    0.082413
     4  C    0.314363
     5  C    0.153667
     6  C   -0.262911
     7  C    0.205882
     8  C    0.078975
     9  C    0.141908
    10  C   -0.382934
    11  C    0.222396
    12  C    0.254626
    13  C   -0.491593
    14  C   -0.627351
    15  H    0.103037
    16  H    0.106414
    17  H    0.123801
    18  N   -0.070483
    19  N   -0.135561
    20  O   -0.431985
    21  O   -0.412415
    22  O   -0.423592
    23  O   -0.349427
    24  C   -0.159643
    25  H    0.137579
    26  H    0.135148
    27  H    0.157119
    28  C   -0.180788
    29  H    0.132628
    30  H    0.134942
    31  H    0.157360
    32  C   -0.173701
    33  C   -0.361757
    34  S   -0.414598
    35  C   -0.456427
    36  H    0.114758
    37  C    0.243602
    38  O   -0.121054
    39  C    0.452618
    40  C   -0.237841
    41  C    0.103800
    42  S   -0.334902
    43  H    0.132069
    44  H    0.142985
    45  H    0.136501
    46  C   -0.054315
    47  O   -0.152698
    48  C   -0.188355
    49  H    0.094970
    50  C   -0.307838
    51  H    0.120815
    52  H    0.201070
    53  H    0.141586
    54  H    0.101884
 Sum of Mulliken charges =  -2.00000

 Dipole moment (field-independent basis, Debye):
    X=             15.7061    Y=             -2.8068    Z=             -2.0708  Tot=             16.0887
 Quadrupole moment (field-independent basis, Debye-Ang):
   XX=           -422.2872   YY=           -305.2257   ZZ=           -240.4643
   XY=              5.6454   XZ=              2.5042   YZ=             12.4122

 Normal termination of Gaussian 16 at Tue Oct  5 23:36:31 2021.
