 Gaussian 16, Revision C.01,
 Gaussian 16:  ES64L-G16RevC.01  3-Jul-2019

 -------------------------------------
 # opt=modredundant b3lyp/6-311+g(d,p)
 -------------------------------------

 ----------
 NDI_25.pdb
 ----------
 Symbolic Z-matrix:
 Charge = -2 Multiplicity = 1

 SCF Done:  E(RB3LYP) =  -2359.36960482     A.U. after   23 cycles
 SCF Done:  E(RB3LYP) =  -2359.37495518     A.U. after   20 cycles
 SCF Done:  E(RB3LYP) =  -2359.39066048     A.U. after   18 cycles
 SCF Done:  E(RB3LYP) =  -2359.39332949     A.U. after   17 cycles
 SCF Done:  E(RB3LYP) =  -2359.39422255     A.U. after   14 cycles
 SCF Done:  E(RB3LYP) =  -2359.39461224     A.U. after   14 cycles
 SCF Done:  E(RB3LYP) =  -2359.39501606     A.U. after   15 cycles
 SCF Done:  E(RB3LYP) =  -2359.39496368     A.U. after   13 cycles
 SCF Done:  E(RB3LYP) =  -2359.39511325     A.U. after   18 cycles
 SCF Done:  E(RB3LYP) =  -2359.39714071     A.U. after   16 cycles
 SCF Done:  E(RB3LYP) =  -2359.40131511     A.U. after   13 cycles
 SCF Done:  E(RB3LYP) =  -2359.40132244     A.U. after   12 cycles
 SCF Done:  E(RB3LYP) =  -2359.40132637     A.U. after   12 cycles
 SCF Done:  E(RB3LYP) =  -2359.40132897     A.U. after   11 cycles
 SCF Done:  E(RB3LYP) =  -2359.40133081     A.U. after   11 cycles
 SCF Done:  E(RB3LYP) =  -2359.40133192     A.U. after   12 cycles
 SCF Done:  E(RB3LYP) =  -2359.40133227     A.U. after   10 cycles
 SCF Done:  E(RB3LYP) =  -2359.40133248     A.U. after   10 cycles
 SCF Done:  E(RB3LYP) =  -2359.40133261     A.U. after   10 cycles
 SCF Done:  E(RB3LYP) =  -2359.40133267     A.U. after   10 cycles
 Optimization completed.
    -- Stationary point found.

                         Standard orientation:
 ---------------------------------------------------------------------
 Center     Atomic      Atomic             Coordinates (Angstroms)
 Number     Number       Type             X           Y           Z
 ---------------------------------------------------------------------
      1          6           0       -2.629886   -2.988373    0.051665
      2          6           0       -2.296537   -1.589631   -0.050912
      3          6           0       -3.311747   -0.595191    0.044866
      4          6           0       -4.662851   -0.954215    0.232252
      5          6           0       -5.044216   -2.345711    0.333068
      6          6           0       -0.947627   -1.205336   -0.160822
      7          6           0       -2.931577    0.796391   -0.064434
      8          6           0       -1.561042    1.163145   -0.257490
      9          6           0       -0.531189    0.115414   -0.228929
     10          6           0       -1.274021    2.529601   -0.598637
     11          6           0       -3.680664    3.163611   -0.180271
     12          6           0       -3.970955    1.764008   -0.009505
     13          6           0       -5.328119    1.369165    0.192285
     14          6           0       -5.671067    0.054256    0.314363
     15          1           0       -6.696812   -0.260686    0.461319
     16          1           0       -6.070665    2.157143    0.233459
     17          1           0       -0.217719   -2.003327   -0.103069
     18          7           0       -2.344113    3.459547   -0.482606
     19          7           0       -3.997763   -3.287508    0.228484
     20          8           0       -1.818847   -3.932083   -0.002303
     21          8           0       -6.213920   -2.741096    0.500811
     22          8           0       -4.527115    4.080252   -0.101074
     23          8           0       -0.181642    2.988424   -0.996249
     24          6           0       -2.004308    4.847356   -0.776037
     25          1           0       -1.188754    5.180775   -0.129316
     26          1           0       -1.658304    4.944838   -1.808669
     27          1           0       -2.899496    5.442094   -0.611620
     28          6           0       -4.333854   -4.703649    0.322003
     29          1           0       -3.979600   -5.231833   -0.566557
     30          1           0       -3.840953   -5.155044    1.187702
     31          1           0       -5.414344   -4.778343    0.415330
     32          6           0        0.892142    0.358167   -0.073905
     33          6           0        1.551504    1.425202    0.516762
     34         16           0        2.079960   -0.829608   -0.631735
     35          6           0        2.946021    1.273565    0.568739
     36          1           0        1.020137    2.290057    0.872864
     37          6           0        3.446908    0.095252    0.017670
     38          8           0        3.820672    2.176689    1.120267
     39          6           0        4.801169   -0.352004   -0.054187
     40          6           0        3.286011    3.430493    1.516500
     41          6           0        5.312705   -1.570033   -0.503650
     42         16           0        6.166910    0.675284    0.427450
     43          1           0        4.139299    4.039681    1.819197
     44          1           0        2.755104    3.914037    0.690451
     45          1           0        2.599411    3.320885    2.364043
     46          6           0        6.728049   -1.671359   -0.478279
     47          8           0        4.516029   -2.589488   -0.989512
     48          6           0        7.339671   -0.546724   -0.001552
     49          1           0        7.251606   -2.558271   -0.815078
     50          6           0        4.119673   -3.551504   -0.010322
     51          1           0        8.393037   -0.352551    0.129908
     52          1           0        3.569701   -3.077927    0.808052
     53          1           0        3.461301   -4.258864   -0.516132
     54          1           0        4.993674   -4.080698    0.392576
 ---------------------------------------------------------------------

 The electronic state is 1-A.
 Alpha  occ. eigenvalues --  -88.71261 -88.68057 -18.99421 -18.98422 -18.87967
 Alpha  occ. eigenvalues --  -18.87551 -18.86847 -18.86212 -14.15572 -14.14697
 Alpha  occ. eigenvalues --  -10.07148 -10.06546 -10.06408 -10.05995 -10.05822
 Alpha  occ. eigenvalues --  -10.05804 -10.05316 -10.05030 -10.05011 -10.03661
 Alpha  occ. eigenvalues --  -10.02275 -10.01977 -10.01961 -10.00961 -10.00195
 Alpha  occ. eigenvalues --   -9.98541  -9.98461  -9.98249  -9.97857  -9.96975
 Alpha  occ. eigenvalues --   -9.96388  -9.96181  -9.96119  -9.95896  -9.95807
 Alpha  occ. eigenvalues --   -9.95751  -7.79810  -7.76627  -5.76125  -5.75753
 Alpha  occ. eigenvalues --   -5.75359  -5.72966  -5.72584  -5.72132  -0.90698
 Alpha  occ. eigenvalues --   -0.89606  -0.83696  -0.82650  -0.81285  -0.80122
 Alpha  occ. eigenvalues --   -0.72297  -0.71826  -0.71259  -0.69169  -0.66782
 Alpha  occ. eigenvalues --   -0.62298  -0.59977  -0.59341  -0.58388  -0.57577
 Alpha  occ. eigenvalues --   -0.55268  -0.54174  -0.53237  -0.52737  -0.52213
 Alpha  occ. eigenvalues --   -0.50296  -0.49836  -0.47599  -0.44098  -0.42756
 Alpha  occ. eigenvalues --   -0.42424  -0.41898  -0.40547  -0.39685  -0.38121
 Alpha  occ. eigenvalues --   -0.37165  -0.36377  -0.34275  -0.33911  -0.31863
 Alpha  occ. eigenvalues --   -0.31415  -0.31367  -0.30821  -0.30609  -0.29990
 Alpha  occ. eigenvalues --   -0.29075  -0.28516  -0.27577  -0.27170  -0.26756
 Alpha  occ. eigenvalues --   -0.26341  -0.25541  -0.25292  -0.25067  -0.24383
 Alpha  occ. eigenvalues --   -0.23404  -0.23189  -0.22464  -0.22301  -0.21569
 Alpha  occ. eigenvalues --   -0.21302  -0.20982  -0.20727  -0.20370  -0.19829
 Alpha  occ. eigenvalues --   -0.19563  -0.19351  -0.19176  -0.18638  -0.18466
 Alpha  occ. eigenvalues --   -0.18011  -0.17761  -0.16824  -0.16332  -0.16026
 Alpha  occ. eigenvalues --   -0.15420  -0.15013  -0.14865  -0.12773  -0.11886
 Alpha  occ. eigenvalues --   -0.11748  -0.09827  -0.08829  -0.07173  -0.07037
 Alpha  occ. eigenvalues --   -0.06510  -0.06254  -0.05686  -0.05406  -0.04867
 Alpha  occ. eigenvalues --   -0.04772  -0.03484  -0.01813  -0.00040   0.06404
 Alpha virt. eigenvalues --    0.11945   0.12848   0.13970   0.14491   0.15668
 Alpha virt. eigenvalues --    0.15815   0.16589   0.16691   0.16813   0.17205
 Alpha virt. eigenvalues --    0.17454   0.18022   0.18554   0.18878   0.18998

 Mulliken charges:
               1
     1  C    0.164682
     2  C   -0.073227
     3  C    0.159690
     4  C    0.253123
     5  C    0.085740
     6  C   -0.024170
     7  C    0.275571
     8  C    0.476582
     9  C    0.194610
    10  C   -0.826114
    11  C    0.102022
    12  C    0.220424
    13  C   -0.459037
    14  C   -0.610236
    15  H    0.103362
    16  H    0.107585
    17  H    0.140079
    18  N   -0.072310
    19  N   -0.134478
    20  O   -0.424317
    21  O   -0.405595
    22  O   -0.418729
    23  O   -0.366096
    24  C   -0.159351
    25  H    0.129124
    26  H    0.137656
    27  H    0.155897
    28  C   -0.180857
    29  H    0.136663
    30  H    0.134139
    31  H    0.156214
    32  C   -0.139378
    33  C   -0.449513
    34  S   -0.806287
    35  C   -0.461437
    36  H    0.136535
    37  C    0.522940
    38  O   -0.124561
    39  C    0.503379
    40  C   -0.257148
    41  C    0.176121
    42  S   -0.384850
    43  H    0.128722
    44  H    0.169031
    45  H    0.131128
    46  C   -0.140767
    47  O   -0.138705
    48  C   -0.182409
    49  H    0.093325
    50  C   -0.297687
    51  H    0.119263
    52  H    0.167630
    53  H    0.150825
    54  H    0.105199
 Sum of Mulliken charges =  -2.00000

 Dipole moment (field-independent basis, Debye):
    X=             14.6879    Y=             -0.0480    Z=              2.4105  Tot=             14.8844
 Quadrupole moment (field-independent basis, Debye-Ang):
   XX=           -425.9869   YY=           -306.8022   ZZ=           -239.2892
   XY=              3.9307   XZ=             11.5822   YZ=              6.9327

 Normal termination of Gaussian 16 at Fri Oct  8 17:04:40 2021.
