 Gaussian 16, Revision C.01,
 Gaussian 16:  ES64L-G16RevC.01  3-Jul-2019

 -------------------------------------
 # opt=modredundant b3lyp/6-311+g(d,p)
 -------------------------------------

 -----------
 NDI_-20.pdb
 -----------
 Symbolic Z-matrix:
 Charge = -2 Multiplicity = 1

 SCF Done:  E(RB3LYP) =  -2359.37625494     A.U. after   23 cycles
 SCF Done:  E(RB3LYP) =  -2359.38101020     A.U. after   18 cycles
 SCF Done:  E(RB3LYP) =  -2359.39347479     A.U. after   18 cycles
 SCF Done:  E(RB3LYP) =  -2359.39544573     A.U. after   15 cycles
 SCF Done:  E(RB3LYP) =  -2359.39668441     A.U. after   18 cycles
 SCF Done:  E(RB3LYP) =  -2359.39723321     A.U. after   15 cycles
 SCF Done:  E(RB3LYP) =  -2359.39754291     A.U. after   14 cycles
 SCF Done:  E(RB3LYP) =  -2359.39765359     A.U. after   14 cycles
 SCF Done:  E(RB3LYP) =  -2359.39767598     A.U. after   13 cycles
 SCF Done:  E(RB3LYP) =  -2359.39769161     A.U. after   14 cycles
 SCF Done:  E(RB3LYP) =  -2359.40102069     A.U. after   13 cycles
 SCF Done:  E(RB3LYP) =  -2359.40103515     A.U. after   12 cycles
 SCF Done:  E(RB3LYP) =  -2359.40104328     A.U. after   12 cycles
 SCF Done:  E(RB3LYP) =  -2359.40104793     A.U. after   12 cycles
 SCF Done:  E(RB3LYP) =  -2359.40104962     A.U. after   11 cycles
 SCF Done:  E(RB3LYP) =  -2359.40105142     A.U. after   12 cycles
 SCF Done:  E(RB3LYP) =  -2359.40105224     A.U. after   11 cycles
 SCF Done:  E(RB3LYP) =  -2359.40105298     A.U. after   11 cycles
 SCF Done:  E(RB3LYP) =  -2359.40105323     A.U. after   11 cycles
 SCF Done:  E(RB3LYP) =  -2359.40105339     A.U. after   10 cycles
 Optimization completed.
    -- Stationary point found.

                         Standard orientation:
 ---------------------------------------------------------------------
 Center     Atomic      Atomic             Coordinates (Angstroms)
 Number     Number       Type             X           Y           Z
 ---------------------------------------------------------------------
      1          6           0        2.622369   -2.992219   -0.010583
      2          6           0        2.292802   -1.590825   -0.091685
      3          6           0        3.307372   -0.600018    0.043279
      4          6           0        4.653492   -0.964804    0.251385
      5          6           0        5.030836   -2.359011    0.333514
      6          6           0        0.947009   -1.202131   -0.212554
      7          6           0        2.930710    0.793532   -0.049633
      8          6           0        1.564989    1.165993   -0.265068
      9          6           0        0.530371    0.119949   -0.265814
     10          6           0        1.293095    2.534582   -0.609005
     11          6           0        3.687555    3.160370   -0.116733
     12          6           0        3.970973    1.757800    0.041335
     13          6           0        5.322658    1.357245    0.265514
     14          6           0        5.661387    0.039843    0.372572
     15          1           0        6.683378   -0.279402    0.535367
     16          1           0        6.065241    2.143205    0.335040
     17          1           0        0.217344   -2.001802   -0.176137
     18          7           0        2.360482    3.462038   -0.451690
     19          7           0        3.986012   -3.297003    0.187977
     20          8           0        1.811545   -3.933106   -0.099506
     21          8           0        6.196058   -2.759172    0.518443
     22          8           0        4.533042    4.074190   -0.002730
     23          8           0        0.216357    2.998772   -1.042327
     24          6           0        2.031935    4.853040   -0.742754
     25          1           0        1.722154    4.961666   -1.785757
     26          1           0        1.194734    5.180591   -0.121264
     27          1           0        2.921321    5.445163   -0.541476
     28          6           0        4.318689   -4.715246    0.259861
     29          1           0        3.816897   -5.181366    1.112690
     30          1           0        3.971960   -5.226373   -0.641368
     31          1           0        5.397990   -4.793802    0.363145
     32          6           0       -0.891728    0.359802   -0.101697
     33          6           0       -1.553540    1.452649    0.438504
     34         16           0       -2.082159   -0.854707   -0.602154
     35          6           0       -2.947582    1.301168    0.501384
     36          1           0       -1.024833    2.336304    0.748230
     37          6           0       -3.448697    0.098916    0.005876
     38          8           0       -3.821723    2.228583    1.011403
     39          6           0       -4.802022   -0.353580   -0.039684
     40          6           0       -3.283835    3.493292    1.366930
     41          6           0       -5.314119   -1.588773   -0.439458
     42         16           0       -6.166713    0.687591    0.415026
     43          1           0       -4.135970    4.114597    1.647400
     44          1           0       -2.599069    3.409409    2.218789
     45          1           0       -2.749768    3.947819    0.526608
     46          6           0       -6.728820   -1.692706   -0.397660
     47          8           0       -4.518551   -2.622769   -0.895490
     48          6           0       -7.339653   -0.552899    0.042748
     49          1           0       -7.252923   -2.592611   -0.697152
     50          6           0       -4.120706   -3.555020    0.111340
     51          1           0       -8.392501   -0.356187    0.174561
     52          1           0       -4.993923   -4.072334    0.531081
     53          1           0       -3.462746   -4.276925   -0.374082
     54          1           0       -3.569862   -3.057021    0.914547
 ---------------------------------------------------------------------

 The electronic state is 1-A.
 Alpha  occ. eigenvalues --  -88.71225 -88.67979 -18.99388 -18.98392 -18.88047
 Alpha  occ. eigenvalues --  -18.87622 -18.86871 -18.86234 -14.15631 -14.14716
 Alpha  occ. eigenvalues --  -10.07096 -10.06530 -10.06485 -10.06068 -10.05784
 Alpha  occ. eigenvalues --  -10.05764 -10.05338 -10.05047 -10.04977 -10.03621
 Alpha  occ. eigenvalues --  -10.02243 -10.01963 -10.01920 -10.01011 -10.00220
 Alpha  occ. eigenvalues --   -9.98569  -9.98495  -9.98265  -9.97754  -9.97035
 Alpha  occ. eigenvalues --   -9.96453  -9.96194  -9.96178  -9.95941  -9.95840
 Alpha  occ. eigenvalues --   -9.95789  -7.79773  -7.76550  -5.76089  -5.75716
 Alpha  occ. eigenvalues --   -5.75322  -5.72891  -5.72509  -5.72051  -0.90664
 Alpha  occ. eigenvalues --   -0.89577  -0.83774  -0.82673  -0.81369  -0.80143
 Alpha  occ. eigenvalues --   -0.72365  -0.71785  -0.71281  -0.69107  -0.66814
 Alpha  occ. eigenvalues --   -0.62311  -0.59994  -0.59341  -0.58358  -0.57538
 Alpha  occ. eigenvalues --   -0.55275  -0.54163  -0.53249  -0.52769  -0.52177
 Alpha  occ. eigenvalues --   -0.50310  -0.49839  -0.47620  -0.44123  -0.42776
 Alpha  occ. eigenvalues --   -0.42430  -0.41903  -0.40571  -0.39671  -0.38089
 Alpha  occ. eigenvalues --   -0.37162  -0.36338  -0.34309  -0.33941  -0.31887
 Alpha  occ. eigenvalues --   -0.31375  -0.31361  -0.30803  -0.30585  -0.29961
 Alpha  occ. eigenvalues --   -0.29041  -0.28495  -0.27634  -0.27187  -0.26781
 Alpha  occ. eigenvalues --   -0.26346  -0.25571  -0.25277  -0.25102  -0.24358
 Alpha  occ. eigenvalues --   -0.23445  -0.23156  -0.22492  -0.22328  -0.21545
 Alpha  occ. eigenvalues --   -0.21345  -0.21000  -0.20756  -0.20365  -0.19812
 Alpha  occ. eigenvalues --   -0.19539  -0.19382  -0.19203  -0.18615  -0.18521
 Alpha  occ. eigenvalues --   -0.18004  -0.17815  -0.16823  -0.16314  -0.16066
 Alpha  occ. eigenvalues --   -0.15437  -0.14992  -0.14832  -0.12803  -0.11869
 Alpha  occ. eigenvalues --   -0.11765  -0.09806  -0.08801  -0.07229  -0.07073
 Alpha  occ. eigenvalues --   -0.06557  -0.06256  -0.05713  -0.05396  -0.04927
 Alpha  occ. eigenvalues --   -0.04811  -0.03497  -0.01856   0.00011   0.06365
 Alpha virt. eigenvalues --    0.11939   0.12866   0.13997   0.14512   0.15634
 Alpha virt. eigenvalues --    0.15823   0.16583   0.16667   0.16798   0.17227
 Alpha virt. eigenvalues --    0.17491   0.18051   0.18572   0.18932   0.18970

 Mulliken charges:
               1
     1  C    0.142912
     2  C   -0.038115
     3  C    0.199128
     4  C    0.259519
     5  C    0.087630
     6  C    0.068280
     7  C    0.281352
     8  C    0.523556
     9  C    0.111096
    10  C   -0.929840
    11  C    0.103145
    12  C    0.235966
    13  C   -0.465349
    14  C   -0.613949
    15  H    0.103460
    16  H    0.107954
    17  H    0.137553
    18  N   -0.064935
    19  N   -0.134079
    20  O   -0.423098
    21  O   -0.404842
    22  O   -0.419306
    23  O   -0.373016
    24  C   -0.152641
    25  H    0.137917
    26  H    0.128961
    27  H    0.156184
    28  C   -0.181085
    29  H    0.133998
    30  H    0.137193
    31  H    0.156189
    32  C   -0.222812
    33  C   -0.362285
    34  S   -0.841434
    35  C   -0.468678
    36  H    0.141266
    37  C    0.523575
    38  O   -0.123113
    39  C    0.483489
    40  C   -0.257368
    41  C    0.179171
    42  S   -0.379688
    43  H    0.128808
    44  H    0.131884
    45  H    0.168804
    46  C   -0.126089
    47  O   -0.139905
    48  C   -0.187319
    49  H    0.093114
    50  C   -0.294363
    51  H    0.119132
    52  H    0.104725
    53  H    0.150808
    54  H    0.166544
 Sum of Mulliken charges =  -2.00000

 Dipole moment (field-independent basis, Debye):
    X=            -14.5228    Y=             -0.0295    Z=              2.3473  Tot=             14.7113
 Quadrupole moment (field-independent basis, Debye-Ang):
   XX=           -425.4719   YY=           -306.7096   ZZ=           -239.6512
   XY=             -4.3234   XZ=            -12.5062   YZ=              5.4071

 Normal termination of Gaussian 16 at Fri Oct  8 12:54:58 2021.
