 Gaussian 16, Revision C.01,
 Gaussian 16:  ES64L-G16RevC.01  3-Jul-2019

 -------------------------------------
 # opt=modredundant b3lyp/6-311+g(d,p)
 -------------------------------------

 -----------
 NDI_120.pdb
 -----------
 Symbolic Z-matrix:
 Charge = -2 Multiplicity = 1

 SCF Done:  E(RB3LYP) =  -2359.37304079     A.U. after   23 cycles
 SCF Done:  E(RB3LYP) =  -2359.38910570     A.U. after   17 cycles
 SCF Done:  E(RB3LYP) =  -2359.39137524     A.U. after   15 cycles
 SCF Done:  E(RB3LYP) =  -2359.39162370     A.U. after   16 cycles
 SCF Done:  E(RB3LYP) =  -2359.39222962     A.U. after   15 cycles
 SCF Done:  E(RB3LYP) =  -2359.39230522     A.U. after   13 cycles
 SCF Done:  E(RB3LYP) =  -2359.39234178     A.U. after   13 cycles
 SCF Done:  E(RB3LYP) =  -2359.39237632     A.U. after   13 cycles
 SCF Done:  E(RB3LYP) =  -2359.39240970     A.U. after   13 cycles
 SCF Done:  E(RB3LYP) =  -2359.39250569     A.U. after   14 cycles
 SCF Done:  E(RB3LYP) =  -2359.39695392     A.U. after   14 cycles
 SCF Done:  E(RB3LYP) =  -2359.39696511     A.U. after   13 cycles
 SCF Done:  E(RB3LYP) =  -2359.39697495     A.U. after   12 cycles
 SCF Done:  E(RB3LYP) =  -2359.39697695     A.U. after   12 cycles
 SCF Done:  E(RB3LYP) =  -2359.39697797     A.U. after   12 cycles
 SCF Done:  E(RB3LYP) =  -2359.39697892     A.U. after   13 cycles
 SCF Done:  E(RB3LYP) =  -2359.39697953     A.U. after   12 cycles
 SCF Done:  E(RB3LYP) =  -2359.39697981     A.U. after   12 cycles
 SCF Done:  E(RB3LYP) =  -2359.39697987     A.U. after   11 cycles
 SCF Done:  E(RB3LYP) =  -2359.39697989     A.U. after    9 cycles
 Optimization completed.
    -- Stationary point found.

                         Standard orientation:
 ---------------------------------------------------------------------
 Center     Atomic      Atomic             Coordinates (Angstroms)
 Number     Number       Type             X           Y           Z
 ---------------------------------------------------------------------
      1          6           0        3.583753   -2.678128    0.354527
      2          6           0        2.820214   -1.479746    0.139321
      3          6           0        3.459795   -0.209068    0.131954
      4          6           0        4.854239   -0.092437    0.335446
      5          6           0        5.658712   -1.266949    0.564300
      6          6           0        1.414866   -1.562659   -0.029184
      7          6           0        2.662890    0.974735   -0.111564
      8          6           0        1.254514    0.860355   -0.324369
      9          6           0        0.626182   -0.448388   -0.212809
     10          6           0        0.517423    2.025465   -0.724730
     11          6           0        2.595785    3.431118   -0.464523
     12          6           0        3.326559    2.228514   -0.166806
     13          6           0        4.738478    2.311609    0.049254
     14          6           0        5.479706    1.193906    0.296722
     15          1           0        6.550054    1.241365    0.457008
     16          1           0        5.190874    3.294941   -0.000264
     17          1           0        0.959396   -2.541830    0.057479
     18          7           0        1.227583    3.251766   -0.740561
     19          7           0        4.969274   -2.501155    0.559141
     20          8           0        3.123766   -3.839303    0.373768
     21          8           0        6.892627   -1.251981    0.756506
     22          8           0        3.096594    4.576491   -0.507675
     23          8           0       -0.684974    2.056522   -1.067358
     24          6           0        0.448161    4.425459   -1.116566
     25          1           0        0.042689    4.304857   -2.124952
     26          1           0       -0.400580    4.547979   -0.438664
     27          1           0        1.111860    5.285213   -1.066863
     28          6           0        5.740124   -3.718391    0.781962
     29          1           0        5.356932   -4.253213    1.655176
     30          1           0        5.645551   -4.388944   -0.076744
     31          1           0        6.776612   -3.425720    0.930719
     32          6           0       -0.820969   -0.679632   -0.279532
     33          6           0       -1.497042   -1.460834   -1.194362
     34         16           0       -1.943977    0.007918    0.871794
     35          6           0       -2.895995   -1.482659   -0.993219
     36          1           0       -0.980168   -1.950872   -2.006063
     37          6           0       -3.343957   -0.707997    0.068868
     38          8           0       -3.806611   -2.161855   -1.767556
     39          6           0       -4.696155   -0.449713    0.479676
     40          6           0       -3.307477   -2.844138   -2.903203
     41          6           0       -5.191665    0.560037    1.299297
     42         16           0       -6.042944   -1.492556   -0.001868
     43          1           0       -4.172334   -3.302018   -3.385819
     44          1           0       -2.822144   -2.154165   -3.603127
     45          1           0       -2.592792   -3.625700   -2.620164
     46          6           0       -6.589726    0.488351    1.547168
     47          8           0       -4.416737    1.541316    1.876133
     48          6           0       -7.193409   -0.564035    0.920550
     49          1           0       -7.102468    1.211092    2.169943
     50          6           0       -4.078082    2.636997    1.009843
     51          1           0       -8.237577   -0.836930    0.912213
     52          1           0       -4.989549    3.112479    0.625779
     53          1           0       -3.522174    3.346724    1.623158
     54          1           0       -3.440304    2.314548    0.183643
 ---------------------------------------------------------------------

 The electronic state is 1-A.
 Alpha  occ. eigenvalues --  -88.71973 -88.68399 -19.00212 -18.98384 -18.86965
 Alpha  occ. eigenvalues --  -18.86680 -18.86348 -18.86026 -14.14812 -14.14334
 Alpha  occ. eigenvalues --  -10.08284 -10.06558 -10.06484 -10.05695 -10.05475
 Alpha  occ. eigenvalues --  -10.05429 -10.05093 -10.04834 -10.04650 -10.04488
 Alpha  occ. eigenvalues --  -10.02754 -10.02619 -10.02503 -10.00329  -9.99831
 Alpha  occ. eigenvalues --   -9.99117  -9.97986  -9.97901  -9.97725  -9.96269
 Alpha  occ. eigenvalues --   -9.95780  -9.95515  -9.95370  -9.95260  -9.95221
 Alpha  occ. eigenvalues --   -9.95162  -7.80536  -7.76983  -5.76845  -5.76473
 Alpha  occ. eigenvalues --   -5.76096  -5.73314  -5.72921  -5.72510  -0.91510
 Alpha  occ. eigenvalues --   -0.89528  -0.82700  -0.82195  -0.80234  -0.79680
 Alpha  occ. eigenvalues --   -0.72530  -0.71422  -0.70890  -0.69864  -0.66279
 Alpha  occ. eigenvalues --   -0.62147  -0.59918  -0.59061  -0.58720  -0.58243
 Alpha  occ. eigenvalues --   -0.55324  -0.54129  -0.53004  -0.52365  -0.52079
 Alpha  occ. eigenvalues --   -0.50393  -0.49497  -0.47310  -0.43697  -0.42893
 Alpha  occ. eigenvalues --   -0.42076  -0.41737  -0.40229  -0.39748  -0.38351
 Alpha  occ. eigenvalues --   -0.37204  -0.37000  -0.33775  -0.33487  -0.32435
 Alpha  occ. eigenvalues --   -0.31903  -0.31552  -0.30534  -0.30288  -0.29954
 Alpha  occ. eigenvalues --   -0.29503  -0.28587  -0.27062  -0.26849  -0.26398
 Alpha  occ. eigenvalues --   -0.26038  -0.25631  -0.24997  -0.24743  -0.24509
 Alpha  occ. eigenvalues --   -0.23779  -0.22921  -0.22220  -0.22070  -0.21533
 Alpha  occ. eigenvalues --   -0.21058  -0.20653  -0.20469  -0.20307  -0.20117
 Alpha  occ. eigenvalues --   -0.19384  -0.19054  -0.18785  -0.18532  -0.17761
 Alpha  occ. eigenvalues --   -0.17729  -0.17089  -0.16990  -0.16142  -0.16075
 Alpha  occ. eigenvalues --   -0.15702  -0.14751  -0.14496  -0.12353  -0.11922
 Alpha  occ. eigenvalues --   -0.11093  -0.09957  -0.09115  -0.06538  -0.06391
 Alpha  occ. eigenvalues --   -0.06125  -0.05789  -0.05455  -0.04914  -0.04315
 Alpha  occ. eigenvalues --   -0.04036  -0.03396  -0.01620  -0.00462   0.06998
 Alpha virt. eigenvalues --    0.11688   0.12578   0.13350   0.14297   0.15695
 Alpha virt. eigenvalues --    0.16159   0.16311   0.16878   0.17026   0.17179
 Alpha virt. eigenvalues --    0.17340   0.17764   0.18214   0.18426   0.18999

 Mulliken charges:
               1
     1  C    0.274485
     2  C   -0.163150
     3  C    0.085486
     4  C    0.263760
     5  C    0.150883
     6  C   -0.565402
     7  C    0.209529
     8  C    0.043908
     9  C    0.420267
    10  C   -0.353066
    11  C    0.176442
    12  C    0.277109
    13  C   -0.571142
    14  C   -0.634898
    15  H    0.102518
    16  H    0.105190
    17  H    0.116957
    18  N   -0.103749
    19  N   -0.135328
    20  O   -0.434028
    21  O   -0.420060
    22  O   -0.426281
    23  O   -0.337939
    24  C   -0.176982
    25  H    0.135498
    26  H    0.134829
    27  H    0.158071
    28  C   -0.182571
    29  H    0.134163
    30  H    0.131117
    31  H    0.156979
    32  C    0.186950
    33  C   -0.640474
    34  S   -0.155703
    35  C   -0.513395
    36  H    0.104643
    37  C    0.269957
    38  O   -0.119790
    39  C    0.321102
    40  C   -0.245062
    41  C    0.197101
    42  S   -0.346323
    43  H    0.131936
    44  H    0.141540
    45  H    0.140054
    46  C   -0.082525
    47  O   -0.162539
    48  C   -0.149021
    49  H    0.097552
    50  C   -0.326746
    51  H    0.122844
    52  H    0.102246
    53  H    0.139872
    54  H    0.213184
 Sum of Mulliken charges =  -2.00000

 Dipole moment (field-independent basis, Debye):
    X=            -17.1575    Y=             -2.3090    Z=             -2.4793  Tot=             17.4888
 Quadrupole moment (field-independent basis, Debye-Ang):
   XX=           -423.2943   YY=           -308.2950   ZZ=           -237.6700
   XY=             -5.1659   XZ=             -0.5930   YZ=             15.2320

 Normal termination of Gaussian 16 at Fri Oct  8 10:58:25 2021.
