 Gaussian 16, Revision C.01,
 Gaussian 16:  ES64L-G16RevC.01  3-Jul-2019

 -------------------------------------
 # opt=modredundant b3lyp/6-311+g(d,p)
 -------------------------------------

 -----------
 NDI_-25.pdb
 -----------
 Symbolic Z-matrix:
 Charge = -2 Multiplicity = 1

 SCF Done:  E(RB3LYP) =  -2359.37884352     A.U. after   23 cycles
 SCF Done:  E(RB3LYP) =  -2359.38856798     A.U. after   18 cycles
 SCF Done:  E(RB3LYP) =  -2359.39500740     A.U. after   18 cycles
 SCF Done:  E(RB3LYP) =  -2359.39708223     A.U. after   17 cycles
 SCF Done:  E(RB3LYP) =  -2359.39761247     A.U. after   15 cycles
 SCF Done:  E(RB3LYP) =  -2359.39775315     A.U. after   16 cycles
 SCF Done:  E(RB3LYP) =  -2359.39791924     A.U. after   14 cycles
 SCF Done:  E(RB3LYP) =  -2359.39796495     A.U. after   14 cycles
 SCF Done:  E(RB3LYP) =  -2359.39797575     A.U. after   13 cycles
 SCF Done:  E(RB3LYP) =  -2359.39798204     A.U. after   13 cycles
 SCF Done:  E(RB3LYP) =  -2359.40132063     A.U. after   14 cycles
 SCF Done:  E(RB3LYP) =  -2359.40132744     A.U. after   13 cycles
 SCF Done:  E(RB3LYP) =  -2359.40132979     A.U. after   12 cycles
 SCF Done:  E(RB3LYP) =  -2359.40133054     A.U. after   12 cycles
 SCF Done:  E(RB3LYP) =  -2359.40133114     A.U. after   12 cycles
 SCF Done:  E(RB3LYP) =  -2359.40133155     A.U. after   11 cycles
 SCF Done:  E(RB3LYP) =  -2359.40133191     A.U. after   11 cycles
 SCF Done:  E(RB3LYP) =  -2359.40133215     A.U. after   10 cycles
 SCF Done:  E(RB3LYP) =  -2359.40133222     A.U. after   10 cycles
 SCF Done:  E(RB3LYP) =  -2359.40133226     A.U. after    9 cycles
 Optimization completed.
    -- Stationary point found.

                         Standard orientation:
 ---------------------------------------------------------------------
 Center     Atomic      Atomic             Coordinates (Angstroms)
 Number     Number       Type             X           Y           Z
 ---------------------------------------------------------------------
      1          6           0        2.629719   -2.988402    0.051629
      2          6           0        2.296438   -1.589660   -0.050951
      3          6           0        3.311677   -0.595246    0.044901
      4          6           0        4.662744   -0.954322    0.232391
      5          6           0        5.044064   -2.345843    0.333164
      6          6           0        0.947543   -1.205292   -0.160940
      7          6           0        2.931577    0.796351   -0.064430
      8          6           0        1.561064    1.163176   -0.257627
      9          6           0        0.531160    0.115469   -0.229106
     10          6           0        1.274103    2.529602   -0.598825
     11          6           0        3.680743    3.163555   -0.180129
     12          6           0        3.970967    1.763911   -0.009372
     13          6           0        5.328109    1.369032    0.192557
     14          6           0        5.671002    0.054111    0.314619
     15          1           0        6.696712   -0.260911    0.461650
     16          1           0        6.070643    2.157017    0.233827
     17          1           0        0.217604   -2.003255   -0.103168
     18          7           0        2.344315    3.459544   -0.482762
     19          7           0        3.997601   -3.287601    0.228506
     20          8           0        1.818665   -3.932096   -0.002488
     21          8           0        6.213748   -2.741264    0.500998
     22          8           0        4.527285    4.080107   -0.100706
     23          8           0        0.181799    2.988517   -0.996476
     24          6           0        2.004572    4.847331   -0.776304
     25          1           0        1.657722    4.944540   -1.808661
     26          1           0        1.189649    5.181190   -0.128983
     27          1           0        2.899988    5.441953   -0.612717
     28          6           0        4.333666   -4.703745    0.321895
     29          1           0        3.841682   -5.155022    1.188195
     30          1           0        3.978390   -5.231982   -0.566211
     31          1           0        5.414241   -4.778529    0.414155
     32          6           0       -0.892168    0.358298   -0.074158
     33          6           0       -1.551521    1.425442    0.516298
     34         16           0       -2.079993   -0.829493   -0.631931
     35          6           0       -2.946057    1.273842    0.568268
     36          1           0       -1.020182    2.290274    0.872504
     37          6           0       -3.446940    0.095406    0.017456
     38          8           0       -3.820736    2.177141    1.119437
     39          6           0       -4.801186   -0.351893   -0.054364
     40          6           0       -3.285730    3.430219    1.517477
     41          6           0       -5.312678   -1.569992   -0.503694
     42         16           0       -6.166906    0.675228    0.427645
     43          1           0       -4.138944    4.039534    1.820127
     44          1           0       -2.599868    3.319281    2.365446
     45          1           0       -2.753950    3.914428    0.692378
     46          6           0       -6.728006   -1.671441   -0.478010
     47          8           0       -4.516026   -2.589494   -0.989485
     48          6           0       -7.339672   -0.546889   -0.001133
     49          1           0       -7.251594   -2.558359   -0.814740
     50          6           0       -4.119509   -3.551304   -0.010075
     51          1           0       -8.393071   -0.352543    0.129788
     52          1           0       -4.993349   -4.081423    0.391924
     53          1           0       -3.459938   -4.257864   -0.515437
     54          1           0       -3.570725   -3.077284    0.808829
 ---------------------------------------------------------------------

 The electronic state is 1-A.
 Alpha  occ. eigenvalues --  -88.71261 -88.68057 -18.99422 -18.98422 -18.87967
 Alpha  occ. eigenvalues --  -18.87551 -18.86847 -18.86213 -14.15572 -14.14697
 Alpha  occ. eigenvalues --  -10.07149 -10.06546 -10.06408 -10.05995 -10.05822
 Alpha  occ. eigenvalues --  -10.05803 -10.05316 -10.05030 -10.05011 -10.03661
 Alpha  occ. eigenvalues --  -10.02274 -10.01977 -10.01961 -10.00961 -10.00195
 Alpha  occ. eigenvalues --   -9.98541  -9.98461  -9.98249  -9.97858  -9.96975
 Alpha  occ. eigenvalues --   -9.96388  -9.96181  -9.96119  -9.95896  -9.95807
 Alpha  occ. eigenvalues --   -9.95752  -7.79809  -7.76627  -5.76125  -5.75753
 Alpha  occ. eigenvalues --   -5.75359  -5.72966  -5.72584  -5.72132  -0.90699
 Alpha  occ. eigenvalues --   -0.89604  -0.83695  -0.82649  -0.81285  -0.80122
 Alpha  occ. eigenvalues --   -0.72297  -0.71826  -0.71259  -0.69169  -0.66782
 Alpha  occ. eigenvalues --   -0.62298  -0.59977  -0.59340  -0.58387  -0.57577
 Alpha  occ. eigenvalues --   -0.55268  -0.54173  -0.53237  -0.52737  -0.52213
 Alpha  occ. eigenvalues --   -0.50296  -0.49836  -0.47599  -0.44098  -0.42756
 Alpha  occ. eigenvalues --   -0.42424  -0.41898  -0.40547  -0.39685  -0.38120
 Alpha  occ. eigenvalues --   -0.37166  -0.36377  -0.34275  -0.33911  -0.31863
 Alpha  occ. eigenvalues --   -0.31416  -0.31367  -0.30821  -0.30608  -0.29990
 Alpha  occ. eigenvalues --   -0.29075  -0.28516  -0.27577  -0.27170  -0.26756
 Alpha  occ. eigenvalues --   -0.26341  -0.25542  -0.25292  -0.25067  -0.24383
 Alpha  occ. eigenvalues --   -0.23404  -0.23189  -0.22464  -0.22301  -0.21569
 Alpha  occ. eigenvalues --   -0.21301  -0.20982  -0.20728  -0.20370  -0.19828
 Alpha  occ. eigenvalues --   -0.19562  -0.19351  -0.19176  -0.18637  -0.18466
 Alpha  occ. eigenvalues --   -0.18011  -0.17761  -0.16823  -0.16332  -0.16027
 Alpha  occ. eigenvalues --   -0.15421  -0.15013  -0.14866  -0.12772  -0.11887
 Alpha  occ. eigenvalues --   -0.11748  -0.09827  -0.08829  -0.07173  -0.07036
 Alpha  occ. eigenvalues --   -0.06510  -0.06254  -0.05686  -0.05406  -0.04867
 Alpha  occ. eigenvalues --   -0.04772  -0.03484  -0.01813  -0.00040   0.06404
 Alpha virt. eigenvalues --    0.11945   0.12848   0.13970   0.14491   0.15668
 Alpha virt. eigenvalues --    0.15815   0.16589   0.16692   0.16813   0.17204
 Alpha virt. eigenvalues --    0.17454   0.18022   0.18555   0.18877   0.18998

 Mulliken charges:
               1
     1  C    0.164725
     2  C   -0.072922
     3  C    0.159829
     4  C    0.253087
     5  C    0.085842
     6  C   -0.023705
     7  C    0.275402
     8  C    0.476741
     9  C    0.194619
    10  C   -0.826605
    11  C    0.102323
    12  C    0.220174
    13  C   -0.459079
    14  C   -0.610120
    15  H    0.103367
    16  H    0.107594
    17  H    0.140077
    18  N   -0.072382
    19  N   -0.134494
    20  O   -0.424316
    21  O   -0.405604
    22  O   -0.418740
    23  O   -0.366059
    24  C   -0.159352
    25  H    0.137703
    26  H    0.129092
    27  H    0.155901
    28  C   -0.180888
    29  H    0.134089
    30  H    0.136714
    31  H    0.156214
    32  C   -0.139533
    33  C   -0.450234
    34  S   -0.806279
    35  C   -0.461166
    36  H    0.136555
    37  C    0.523706
    38  O   -0.124571
    39  C    0.503013
    40  C   -0.256972
    41  C    0.175725
    42  S   -0.384709
    43  H    0.128748
    44  H    0.131172
    45  H    0.168973
    46  C   -0.140930
    47  O   -0.138740
    48  C   -0.182463
    49  H    0.093324
    50  C   -0.297818
    51  H    0.119261
    52  H    0.105211
    53  H    0.150909
    54  H    0.167591
 Sum of Mulliken charges =  -2.00000

 Dipole moment (field-independent basis, Debye):
    X=            -14.6869    Y=             -0.0474    Z=              2.4115  Tot=             14.8837
 Quadrupole moment (field-independent basis, Debye-Ang):
   XX=           -425.9896   YY=           -306.8077   ZZ=           -239.2849
   XY=             -3.9328   XZ=            -11.5927   YZ=              6.9345

 Normal termination of Gaussian 16 at Fri Oct  8 08:07:39 2021.
