 Gaussian 16, Revision C.01,
 Gaussian 16:  ES64L-G16RevC.01  3-Jul-2019

 -------------------------------------
 # opt=modredundant b3lyp/6-311+g(d,p)
 -------------------------------------

 -----------
 NDI_-85.pdb
 -----------
 Symbolic Z-matrix:
 Charge = -2 Multiplicity = 1

 SCF Done:  E(RB3LYP) =  -2359.36998743     A.U. after   25 cycles
 SCF Done:  E(RB3LYP) =  -2359.38805588     A.U. after   16 cycles
 SCF Done:  E(RB3LYP) =  -2359.39075149     A.U. after   15 cycles
 SCF Done:  E(RB3LYP) =  -2359.39079850     A.U. after   14 cycles
 SCF Done:  E(RB3LYP) =  -2359.39095238     A.U. after   13 cycles
 SCF Done:  E(RB3LYP) =  -2359.39098369     A.U. after   13 cycles
 SCF Done:  E(RB3LYP) =  -2359.39099403     A.U. after   12 cycles
 SCF Done:  E(RB3LYP) =  -2359.39100003     A.U. after   11 cycles
 SCF Done:  E(RB3LYP) =  -2359.39107147     A.U. after   12 cycles
 SCF Done:  E(RB3LYP) =  -2359.39107631     A.U. after   12 cycles
 SCF Done:  E(RB3LYP) =  -2359.39385560     A.U. after   15 cycles
 SCF Done:  E(RB3LYP) =  -2359.39385919     A.U. after   13 cycles
 SCF Done:  E(RB3LYP) =  -2359.39386061     A.U. after   11 cycles
 SCF Done:  E(RB3LYP) =  -2359.39386145     A.U. after   11 cycles
 SCF Done:  E(RB3LYP) =  -2359.39386203     A.U. after   11 cycles
 SCF Done:  E(RB3LYP) =  -2359.39386232     A.U. after   11 cycles
 SCF Done:  E(RB3LYP) =  -2359.39386252     A.U. after   11 cycles
 SCF Done:  E(RB3LYP) =  -2359.39386267     A.U. after   10 cycles
 SCF Done:  E(RB3LYP) =  -2359.39386273     A.U. after   11 cycles
 SCF Done:  E(RB3LYP) =  -2359.39386275     A.U. after   11 cycles
 Optimization completed.
    -- Stationary point found.

                         Standard orientation:
 ---------------------------------------------------------------------
 Center     Atomic      Atomic             Coordinates (Angstroms)
 Number     Number       Type             X           Y           Z
 ---------------------------------------------------------------------
      1          6           0        3.250741   -2.846182    0.073459
      2          6           0        2.638788   -1.547929    0.079815
      3          6           0        3.436000   -0.378001   -0.038464
      4          6           0        4.843530   -0.459458   -0.175390
      5          6           0        5.499835   -1.739428   -0.192133
      6          6           0        1.226166   -1.434006    0.223070
      7          6           0        2.789560    0.917780   -0.020607
      8          6           0        1.372256    1.004938    0.123542
      9          6           0        0.597896   -0.215861    0.274073
     10          6           0        0.743521    2.293789    0.111673
     11          6           0        3.000961    3.385856   -0.155255
     12          6           0        3.595690    2.078880   -0.154456
     13          6           0        5.017327    1.958902   -0.294156
     14          6           0        5.621081    0.737144   -0.302387
     15          1           0        6.694321    0.631553   -0.407591
     16          1           0        5.586027    2.875853   -0.393631
     17          1           0        0.658245   -2.351135    0.324549
     18          7           0        1.595867    3.412538   -0.029582
     19          7           0        4.655636   -2.867779   -0.067329
     20          8           0        2.647244   -3.936062    0.181680
     21          8           0        6.734646   -1.904091   -0.306693
     22          8           0        3.634393    4.460645   -0.260657
     23          8           0       -0.486251    2.511197    0.209964
     24          6           0        0.934040    4.711512   -0.042688
     25          1           0        0.199875    4.752515   -0.851612
     26          1           0        0.392185    4.872290    0.893857
     27          1           0        1.705009    5.466557   -0.176261
     28          6           0        5.272172   -4.188501   -0.078479
     29          1           0        5.064562   -4.712539    0.859020
     30          1           0        4.852793   -4.793315   -0.887019
     31          1           0        6.342013   -4.047559   -0.212359
     32          6           0       -0.864875   -0.201059    0.494548
     33          6           0       -1.552079   -0.070324    1.676141
     34         16           0       -1.964480   -0.563947   -0.810456
     35          6           0       -2.952522   -0.200990    1.529801
     36          1           0       -1.044410    0.151578    2.602838
     37          6           0       -3.383486   -0.461433    0.235848
     38          8           0       -3.873128   -0.112227    2.544508
     39          6           0       -4.731475   -0.616929   -0.238994
     40          6           0       -3.423336    0.427544    3.776986
     41          6           0       -5.202391   -0.667831   -1.544871
     42         16           0       -6.106799   -0.797297    0.858909
     43          1           0       -4.309037    0.522914    4.406914
     44          1           0       -2.702586   -0.237886    4.265897
     45          1           0       -2.963654    1.411069    3.633698
     46          6           0       -6.606859   -0.856089   -1.665453
     47          8           0       -4.384108   -0.581518   -2.651285
     48          6           0       -7.236753   -0.943894   -0.458071
     49          1           0       -7.103852   -0.921138   -2.625565
     50          6           0       -4.156143    0.753847   -3.116085
     51          1           0       -8.289103   -1.068928   -0.253489
     52          1           0       -3.692390    1.368982   -2.340443
     53          1           0       -3.473146    0.673395   -3.962261
     54          1           0       -5.097156    1.215165   -3.442339
 ---------------------------------------------------------------------

 The electronic state is 1-A.
 Alpha  occ. eigenvalues --  -88.72752 -88.69334 -19.00644 -18.99518 -18.86146
 Alpha  occ. eigenvalues --  -18.85955 -18.85910 -18.85812 -14.14143 -14.14104
 Alpha  occ. eigenvalues --  -10.08501 -10.07380 -10.07353 -10.07046 -10.06363
 Alpha  occ. eigenvalues --  -10.05252 -10.04624 -10.04421 -10.04377 -10.04339
 Alpha  occ. eigenvalues --  -10.03565 -10.03312 -10.03188  -9.99737  -9.99663
 Alpha  occ. eigenvalues --   -9.99432  -9.97568  -9.97457  -9.97393  -9.95720
 Alpha  occ. eigenvalues --   -9.95529  -9.94778  -9.94753  -9.94749  -9.94701
 Alpha  occ. eigenvalues --   -9.94636  -7.81309  -7.77906  -5.77618  -5.77243
 Alpha  occ. eigenvalues --   -5.76872  -5.74234  -5.73833  -5.73450  -0.91933
 Alpha  occ. eigenvalues --   -0.90774  -0.81896  -0.81848  -0.79388  -0.79300
 Alpha  occ. eigenvalues --   -0.73378  -0.70697  -0.70661  -0.70451  -0.65844
 Alpha  occ. eigenvalues --   -0.62225  -0.60069  -0.59648  -0.58799  -0.58548
 Alpha  occ. eigenvalues --   -0.55583  -0.54429  -0.53434  -0.52438  -0.51711
 Alpha  occ. eigenvalues --   -0.50636  -0.49111  -0.46941  -0.44218  -0.43125
 Alpha  occ. eigenvalues --   -0.41661  -0.41608  -0.40348  -0.39352  -0.39277
 Alpha  occ. eigenvalues --   -0.37731  -0.37083  -0.33398  -0.33108  -0.32745
 Alpha  occ. eigenvalues --   -0.32410  -0.31858  -0.31629  -0.31119  -0.30314
 Alpha  occ. eigenvalues --   -0.29645  -0.29174  -0.27008  -0.26499  -0.26249
 Alpha  occ. eigenvalues --   -0.26098  -0.25838  -0.25099  -0.24618  -0.24398
 Alpha  occ. eigenvalues --   -0.24025  -0.22873  -0.22531  -0.22057  -0.21590
 Alpha  occ. eigenvalues --   -0.21033  -0.20656  -0.20248  -0.20153  -0.19869
 Alpha  occ. eigenvalues --   -0.19709  -0.18919  -0.18382  -0.18351  -0.17681
 Alpha  occ. eigenvalues --   -0.17282  -0.17158  -0.16772  -0.16274  -0.15860
 Alpha  occ. eigenvalues --   -0.15664  -0.14266  -0.14165  -0.13283  -0.11747
 Alpha  occ. eigenvalues --   -0.11289  -0.10123  -0.09635  -0.06656  -0.05943
 Alpha  occ. eigenvalues --   -0.05766  -0.05265  -0.05196  -0.04641  -0.03859
 Alpha  occ. eigenvalues --   -0.03603  -0.03122  -0.01831  -0.00147   0.07484
 Alpha virt. eigenvalues --    0.11163   0.12113   0.13149   0.13693   0.15142
 Alpha virt. eigenvalues --    0.15910   0.16044   0.16683   0.16891   0.17104
 Alpha virt. eigenvalues --    0.17470   0.17582   0.17843   0.17949   0.18499

 Mulliken charges:
               1
     1  C    0.318412
     2  C   -0.015345
     3  C    0.182797
     4  C    0.234847
     5  C    0.109132
     6  C   -0.493021
     7  C    0.222039
     8  C   -0.073752
     9  C    0.527504
    10  C   -0.457210
    11  C    0.005001
    12  C    0.277880
    13  C   -0.537889
    14  C   -0.673231
    15  H    0.101175
    16  H    0.102449
    17  H    0.113290
    18  N   -0.155148
    19  N   -0.138344
    20  O   -0.437040
    21  O   -0.428170
    22  O   -0.427519
    23  O   -0.283718
    24  C   -0.213304
    25  H    0.132939
    26  H    0.128532
    27  H    0.157727
    28  C   -0.179090
    29  H    0.130092
    30  H    0.132602
    31  H    0.154863
    32  C    0.228904
    33  C   -0.571037
    34  S   -0.249699
    35  C   -0.485829
    36  H    0.096461
    37  C    0.314103
    38  O   -0.130828
    39  C    0.440854
    40  C   -0.241701
    41  C    0.039323
    42  S   -0.340341
    43  H    0.132140
    44  H    0.133694
    45  H    0.157895
    46  C   -0.009784
    47  O   -0.152734
    48  C   -0.206181
    49  H    0.098568
    50  C   -0.337380
    51  H    0.124639
    52  H    0.184800
    53  H    0.147569
    54  H    0.108065
 Sum of Mulliken charges =  -2.00000

 Dipole moment (field-independent basis, Debye):
    X=            -19.8934    Y=              0.4322    Z=              2.0205  Tot=             20.0004
 Quadrupole moment (field-independent basis, Debye-Ang):
   XX=           -422.5419   YY=           -322.0195   ZZ=           -225.9346
   XY=             -6.8092   XZ=              3.5604   YZ=              0.3195

 Normal termination of Gaussian 16 at Fri Oct  8 01:18:25 2021.
