 Gaussian 16, Revision C.01,
 Gaussian 16:  ES64L-G16RevC.01  3-Jul-2019

 -------------------------------------
 # opt=modredundant b3lyp/6-311+g(d,p)
 -------------------------------------

 ------------
 NDI_-100.pdb
 ------------
 Symbolic Z-matrix:
 Charge = -2 Multiplicity = 1

 SCF Done:  E(RB3LYP) =  -2359.36796034     A.U. after   30 cycles
 SCF Done:  E(RB3LYP) =  -2359.38672563     A.U. after   19 cycles
 SCF Done:  E(RB3LYP) =  -2359.38988566     A.U. after   18 cycles
 SCF Done:  E(RB3LYP) =  -2359.39016922     A.U. after   16 cycles
 SCF Done:  E(RB3LYP) =  -2359.39019593     A.U. after   15 cycles
 SCF Done:  E(RB3LYP) =  -2359.39029238     A.U. after   15 cycles
 SCF Done:  E(RB3LYP) =  -2359.39029982     A.U. after   15 cycles
 SCF Done:  E(RB3LYP) =  -2359.39030663     A.U. after   13 cycles
 SCF Done:  E(RB3LYP) =  -2359.39031158     A.U. after   15 cycles
 SCF Done:  E(RB3LYP) =  -2359.39031963     A.U. after   15 cycles
 SCF Done:  E(RB3LYP) =  -2359.39547498     A.U. after   15 cycles
 SCF Done:  E(RB3LYP) =  -2359.39559538     A.U. after   14 cycles
 SCF Done:  E(RB3LYP) =  -2359.39561584     A.U. after   15 cycles
 SCF Done:  E(RB3LYP) =  -2359.39563123     A.U. after   13 cycles
 SCF Done:  E(RB3LYP) =  -2359.39564738     A.U. after   13 cycles
 SCF Done:  E(RB3LYP) =  -2359.39565296     A.U. after   11 cycles
 SCF Done:  E(RB3LYP) =  -2359.39565537     A.U. after   12 cycles
 SCF Done:  E(RB3LYP) =  -2359.39565576     A.U. after   10 cycles
 SCF Done:  E(RB3LYP) =  -2359.39565614     A.U. after   10 cycles
 SCF Done:  E(RB3LYP) =  -2359.39565670     A.U. after   11 cycles
 Optimization completed.
    -- Stationary point found.

                         Standard orientation:
 ---------------------------------------------------------------------
 Center     Atomic      Atomic             Coordinates (Angstroms)
 Number     Number       Type             X           Y           Z
 ---------------------------------------------------------------------
      1          6           0        3.591491   -2.710942   -0.107261
      2          6           0        2.827276   -1.498681   -0.037851
      3          6           0        3.471878   -0.235658   -0.123712
      4          6           0        4.876154   -0.139659   -0.282362
      5          6           0        5.682639   -1.328535   -0.364096
      6          6           0        1.412715   -1.563034    0.111310
      7          6           0        2.673173    0.969920   -0.034742
      8          6           0        1.256370    0.879447    0.129398
      9          6           0        0.634562   -0.436231    0.178738
     10          6           0        0.492600    2.083623    0.276652
     11          6           0        2.595523    3.448975    0.012005
     12          6           0        3.335936    2.223617   -0.097713
     13          6           0        4.758714    2.283690   -0.261126
     14          6           0        5.503178    1.146091   -0.352596
     15          1           0        6.579418    1.176029   -0.474329
     16          1           0        5.212321    3.266692   -0.305203
     17          1           0        0.957770   -2.545653    0.148808
     18          7           0        1.205516    3.301279    0.198142
     19          7           0        4.985304   -2.555634   -0.271570
     20          8           0        3.126944   -3.870149   -0.034418
     21          8           0        6.925474   -1.335811   -0.505533
     22          8           0        3.096908    4.594912   -0.039148
     23          8           0       -0.745687    2.155109    0.471421
     24          6           0        0.405276    4.512369    0.335983
     25          1           0       -0.369394    4.543381   -0.434756
     26          1           0       -0.100488    4.525272    1.305616
     27          1           0        1.081131    5.358845    0.241520
     28          6           0        5.757601   -3.789468   -0.346796
     29          1           0        5.628304   -4.374299    0.568453
     30          1           0        5.403844   -4.406077   -1.177627
     31          1           0        6.800283   -3.513347   -0.484317
     32          6           0       -0.823109   -0.619685    0.332641
     33          6           0       -1.517069   -0.925090    1.475735
     34         16           0       -1.924157   -0.475796   -1.017527
     35          6           0       -2.926923   -0.984189    1.288196
     36          1           0       -1.012094   -1.032139    2.424386
     37          6           0       -3.337258   -0.738092   -0.003145
     38          8           0       -3.858777   -1.208666    2.274791
     39          6           0       -4.691518   -0.629673   -0.523541
     40          6           0       -3.367542   -1.373527    3.592778
     41          6           0       -5.424620    0.479724   -0.900681
     42         16           0       -5.632144   -2.090078   -0.875523
     43          1           0       -4.243522   -1.530376    4.224440
     44          1           0       -2.705251   -2.243939    3.670948
     45          1           0       -2.826715   -0.484095    3.936190
     46          6           0       -6.703892    0.164913   -1.464206
     47          8           0       -5.098029    1.796254   -0.814554
     48          6           0       -6.955137   -1.173350   -1.511666
     49          1           0       -7.388882    0.934559   -1.796086
     50          6           0       -4.115185    2.232418    0.148510
     51          1           0       -7.848172   -1.668172   -1.863859
     52          1           0       -3.094409    1.991500   -0.146290
     53          1           0       -4.233112    3.315484    0.194820
     54          1           0       -4.327610    1.793764    1.126902
 ---------------------------------------------------------------------

 The electronic state is 1-A.
 Alpha  occ. eigenvalues --  -88.72683 -88.68964 -19.00150 -18.99805 -18.86220
 Alpha  occ. eigenvalues --  -18.85982 -18.85981 -18.85938 -14.14218 -14.14188
 Alpha  occ. eigenvalues --  -10.08643 -10.08327 -10.06698 -10.06101 -10.05472
 Alpha  occ. eigenvalues --  -10.05182 -10.04703 -10.04518 -10.04456 -10.04400
 Alpha  occ. eigenvalues --  -10.03607 -10.02917 -10.02556  -9.99819  -9.99707
 Alpha  occ. eigenvalues --   -9.99380  -9.97648  -9.97450  -9.97400  -9.95703
 Alpha  occ. eigenvalues --   -9.95612  -9.94848  -9.94820  -9.94763  -9.94751
 Alpha  occ. eigenvalues --   -9.94683  -7.81281  -7.77568  -5.77580  -5.77213
 Alpha  occ. eigenvalues --   -5.76856  -5.73878  -5.73500  -5.73125  -0.91406
 Alpha  occ. eigenvalues --   -0.90830  -0.81967  -0.81914  -0.79454  -0.79349
 Alpha  occ. eigenvalues --   -0.73426  -0.70768  -0.70690  -0.70281  -0.65859
 Alpha  occ. eigenvalues --   -0.62020  -0.60009  -0.59632  -0.58761  -0.58483
 Alpha  occ. eigenvalues --   -0.55382  -0.54213  -0.53063  -0.52430  -0.51735
 Alpha  occ. eigenvalues --   -0.50482  -0.49156  -0.46967  -0.43958  -0.42590
 Alpha  occ. eigenvalues --   -0.41752  -0.41596  -0.40472  -0.39378  -0.39006
 Alpha  occ. eigenvalues --   -0.37939  -0.37017  -0.33416  -0.33141  -0.32629
 Alpha  occ. eigenvalues --   -0.32455  -0.31167  -0.30991  -0.30474  -0.29970
 Alpha  occ. eigenvalues --   -0.29390  -0.28824  -0.26778  -0.26328  -0.26171
 Alpha  occ. eigenvalues --   -0.25785  -0.25380  -0.24833  -0.24419  -0.24212
 Alpha  occ. eigenvalues --   -0.24081  -0.22901  -0.22555  -0.22184  -0.21320
 Alpha  occ. eigenvalues --   -0.20959  -0.20873  -0.20276  -0.20065  -0.19858
 Alpha  occ. eigenvalues --   -0.19369  -0.18602  -0.18481  -0.18418  -0.17893
 Alpha  occ. eigenvalues --   -0.17431  -0.17107  -0.16764  -0.16445  -0.16246
 Alpha  occ. eigenvalues --   -0.15717  -0.15173  -0.14333  -0.14147  -0.11421
 Alpha  occ. eigenvalues --   -0.10134  -0.09679  -0.07191  -0.06764  -0.06089
 Alpha  occ. eigenvalues --   -0.05955  -0.05436  -0.05272  -0.04673  -0.04340
 Alpha  occ. eigenvalues --   -0.03643  -0.03262  -0.02431  -0.00212   0.07391
 Alpha virt. eigenvalues --    0.11893   0.12225   0.13200   0.13763   0.14929
 Alpha virt. eigenvalues --    0.15358   0.16171   0.16413   0.16922   0.17250
 Alpha virt. eigenvalues --    0.17372   0.17541   0.17887   0.18236   0.18353

 Mulliken charges:
               1
     1  C    0.329004
     2  C   -0.057460
     3  C    0.078344
     4  C    0.234918
     5  C    0.190953
     6  C   -0.712437
     7  C    0.181315
     8  C   -0.069829
     9  C    0.459182
    10  C   -0.183434
    11  C    0.096886
    12  C    0.319702
    13  C   -0.631862
    14  C   -0.638460
    15  H    0.101765
    16  H    0.103116
    17  H    0.108781
    18  N   -0.153778
    19  N   -0.134814
    20  O   -0.439587
    21  O   -0.428586
    22  O   -0.425923
    23  O   -0.331659
    24  C   -0.203484
    25  H    0.136461
    26  H    0.131698
    27  H    0.159405
    28  C   -0.184475
    29  H    0.129512
    30  H    0.132082
    31  H    0.156084
    32  C    0.417670
    33  C   -0.527795
    34  S    0.023975
    35  C   -0.812499
    36  H    0.099432
    37  C    0.277181
    38  O   -0.123182
    39  C    0.275533
    40  C   -0.229366
    41  C   -0.019363
    42  S   -0.156654
    43  H    0.127314
    44  H    0.140475
    45  H    0.148757
    46  C   -0.157062
    47  O   -0.196210
    48  C   -0.191619
    49  H    0.105351
    50  C   -0.284919
    51  H    0.128044
    52  H    0.239080
    53  H    0.127754
    54  H    0.134682
 Sum of Mulliken charges =  -2.00000

 Dipole moment (field-independent basis, Debye):
    X=            -19.3966    Y=             -1.7782    Z=              3.1120  Tot=             19.7250
 Quadrupole moment (field-independent basis, Debye-Ang):
   XX=           -424.3785   YY=           -317.8296   ZZ=           -229.6758
   XY=             -0.9357   XZ=              1.8589   YZ=             -2.2379

 Normal termination of Gaussian 16 at Fri Oct  8 09:42:03 2021.
