 Gaussian 16, Revision C.01,
 Gaussian 16:  ES64L-G16RevC.01  3-Jul-2019

 -------------------------------------
 # opt=modredundant b3lyp/6-311+g(d,p)
 -------------------------------------

 ------------
 NDI_-115.pdb
 ------------
 Symbolic Z-matrix:
 Charge = -2 Multiplicity = 1

 SCF Done:  E(RB3LYP) =  -2359.36970122     A.U. after   25 cycles
 SCF Done:  E(RB3LYP) =  -2359.38760087     A.U. after   16 cycles
 SCF Done:  E(RB3LYP) =  -2359.39077498     A.U. after   16 cycles
 SCF Done:  E(RB3LYP) =  -2359.39092761     A.U. after   16 cycles
 SCF Done:  E(RB3LYP) =  -2359.39154411     A.U. after   15 cycles
 SCF Done:  E(RB3LYP) =  -2359.39169581     A.U. after   16 cycles
 SCF Done:  E(RB3LYP) =  -2359.39174413     A.U. after   15 cycles
 SCF Done:  E(RB3LYP) =  -2359.39176040     A.U. after   13 cycles
 SCF Done:  E(RB3LYP) =  -2359.39177058     A.U. after   13 cycles
 SCF Done:  E(RB3LYP) =  -2359.39178110     A.U. after   13 cycles
 SCF Done:  E(RB3LYP) =  -2359.39630904     A.U. after   13 cycles
 SCF Done:  E(RB3LYP) =  -2359.39630551     A.U. after   14 cycles
 SCF Done:  E(RB3LYP) =  -2359.39631652     A.U. after   13 cycles
 SCF Done:  E(RB3LYP) =  -2359.39631527     A.U. after   13 cycles
 SCF Done:  E(RB3LYP) =  -2359.39631775     A.U. after   12 cycles
 SCF Done:  E(RB3LYP) =  -2359.39631817     A.U. after   12 cycles
 SCF Done:  E(RB3LYP) =  -2359.39631746     A.U. after   12 cycles
 SCF Done:  E(RB3LYP) =  -2359.39631908     A.U. after   11 cycles
 SCF Done:  E(RB3LYP) =  -2359.39631918     A.U. after   11 cycles
 SCF Done:  E(RB3LYP) =  -2359.39631924     A.U. after   11 cycles
 Optimization completed.
    -- Stationary point found.

                         Standard orientation:
 ---------------------------------------------------------------------
 Center     Atomic      Atomic             Coordinates (Angstroms)
 Number     Number       Type             X           Y           Z
 ---------------------------------------------------------------------
      1          6           0       -3.597424   -2.676887    0.361939
      2          6           0       -2.827740   -1.482457    0.149739
      3          6           0       -3.462513   -0.209957    0.130997
      4          6           0       -4.858935   -0.087382    0.320658
      5          6           0       -5.669666   -1.257522    0.545925
      6          6           0       -1.420615   -1.571489   -0.011332
      7          6           0       -2.659434    0.970815   -0.108413
      8          6           0       -1.249468    0.851040   -0.306777
      9          6           0       -0.628587   -0.460933   -0.192999
     10          6           0       -0.499470    2.015606   -0.682951
     11          6           0       -2.578469    3.426629   -0.460451
     12          6           0       -3.317210    2.227350   -0.171566
     13          6           0       -4.731462    2.316058    0.029797
     14          6           0       -5.478876    1.201594    0.271992
     15          1           0       -6.550607    1.253317    0.421619
     16          1           0       -5.179717    3.300955   -0.025814
     17          1           0       -0.969634   -2.553037    0.072469
     18          7           0       -1.205806    3.243031   -0.713590
     19          7           0       -4.984328   -2.494169    0.551975
     20          8           0       -3.141829   -3.839982    0.390056
     21          8           0       -6.905719   -1.237913    0.726267
     22          8           0       -3.074420    4.573955   -0.513305
     23          8           0        0.712725    2.044842   -0.992328
     24          6           0       -0.416005    4.415225   -1.072086
     25          1           0        0.410974    4.543928   -0.368626
     26          1           0        0.021043    4.288017   -2.066230
     27          1           0       -1.081717    5.274536   -1.048020
     28          6           0       -5.761661   -3.707823    0.771316
     29          1           0       -5.655406   -4.384357   -0.081250
     30          1           0       -5.393580   -4.237926    1.653992
     31          1           0       -6.799446   -3.411322    0.902583
     32          6           0        0.819987   -0.692930   -0.275195
     33          6           0        1.498238   -1.399824   -1.244408
     34         16           0        1.940218   -0.080053    0.919376
     35          6           0        2.899764   -1.419932   -1.051761
     36          1           0        0.982458   -1.833962   -2.088016
     37          6           0        3.343237   -0.717234    0.059743
     38          8           0        3.813053   -2.034055   -1.875516
     39          6           0        4.695131   -0.472598    0.484302
     40          6           0        3.318379   -2.614083   -3.068755
     41          6           0        5.188112    0.516887    1.328584
     42         16           0        6.039029   -1.511716   -0.009416
     43          1           0        4.185917   -3.023433   -3.588707
     44          1           0        2.606908   -3.421121   -2.858341
     45          1           0        2.831094   -1.866174   -3.704769
     46          6           0        6.584286    0.431785    1.585760
     47          8           0        4.418212    1.492420    1.919714
     48          6           0        7.186707   -0.610412    0.941286
     49          1           0        7.096358    1.139566    2.225872
     50          6           0        4.044445    2.582327    1.059018
     51          1           0        8.230140   -0.886182    0.932119
     52          1           0        3.382695    2.253875    0.254522
     53          1           0        3.504075    3.290580    1.687599
     54          1           0        4.940748    3.061754    0.645640
 ---------------------------------------------------------------------

 The electronic state is 1-A.
 Alpha  occ. eigenvalues --  -88.72114 -88.68510 -19.00257 -18.98445 -18.86817
 Alpha  occ. eigenvalues --  -18.86545 -18.86276 -18.86007 -14.14696 -14.14304
 Alpha  occ. eigenvalues --  -10.08327 -10.06738 -10.06576 -10.05647 -10.05566
 Alpha  occ. eigenvalues --  -10.05285 -10.04959 -10.04760 -10.04673 -10.04620
 Alpha  occ. eigenvalues --  -10.02872 -10.02719 -10.02596 -10.00229  -9.99809
 Alpha  occ. eigenvalues --   -9.99204  -9.97923  -9.97818  -9.97671  -9.96158
 Alpha  occ. eigenvalues --   -9.95758  -9.95386  -9.95258  -9.95170  -9.95134
 Alpha  occ. eigenvalues --   -9.95072  -7.80680  -7.77099  -5.76989  -5.76617
 Alpha  occ. eigenvalues --   -5.76243  -5.73429  -5.73034  -5.72628  -0.91557
 Alpha  occ. eigenvalues --   -0.89588  -0.82556  -0.82140  -0.80081  -0.79616
 Alpha  occ. eigenvalues --   -0.72677  -0.71293  -0.70849  -0.69968  -0.66202
 Alpha  occ. eigenvalues --   -0.62131  -0.59933  -0.59001  -0.58798  -0.58332
 Alpha  occ. eigenvalues --   -0.55320  -0.54178  -0.52943  -0.52383  -0.52017
 Alpha  occ. eigenvalues --   -0.50428  -0.49436  -0.47252  -0.43737  -0.42903
 Alpha  occ. eigenvalues --   -0.42012  -0.41716  -0.40234  -0.39693  -0.38415
 Alpha  occ. eigenvalues --   -0.37203  -0.37090  -0.33708  -0.33423  -0.32481
 Alpha  occ. eigenvalues --   -0.31986  -0.31507  -0.30531  -0.30312  -0.29962
 Alpha  occ. eigenvalues --   -0.29531  -0.28657  -0.27019  -0.26740  -0.26365
 Alpha  occ. eigenvalues --   -0.26024  -0.25666  -0.24972  -0.24713  -0.24432
 Alpha  occ. eigenvalues --   -0.23858  -0.22874  -0.22180  -0.22121  -0.21526
 Alpha  occ. eigenvalues --   -0.21046  -0.20588  -0.20452  -0.20282  -0.20078
 Alpha  occ. eigenvalues --   -0.19422  -0.19028  -0.18722  -0.18512  -0.17740
 Alpha  occ. eigenvalues --   -0.17660  -0.17120  -0.16903  -0.16156  -0.16075
 Alpha  occ. eigenvalues --   -0.15693  -0.14683  -0.14438  -0.12514  -0.11823
 Alpha  occ. eigenvalues --   -0.11011  -0.09961  -0.09143  -0.06477  -0.06308
 Alpha  occ. eigenvalues --   -0.06096  -0.05701  -0.05416  -0.04874  -0.04248
 Alpha  occ. eigenvalues --   -0.03926  -0.03391  -0.01697  -0.00447   0.07079
 Alpha virt. eigenvalues --    0.11589   0.12520   0.13314   0.14249   0.15663
 Alpha virt. eigenvalues --    0.16179   0.16281   0.16859   0.17034   0.17172
 Alpha virt. eigenvalues --    0.17304   0.17739   0.18144   0.18366   0.18995

 Mulliken charges:
               1
     1  C    0.283390
     2  C   -0.139779
     3  C    0.085604
     4  C    0.259717
     5  C    0.149406
     6  C   -0.637002
     7  C    0.207368
     8  C   -0.003039
     9  C    0.462539
    10  C   -0.332959
    11  C    0.170819
    12  C    0.287700
    13  C   -0.594336
    14  C   -0.634391
    15  H    0.102355
    16  H    0.104872
    17  H    0.114573
    18  N   -0.112741
    19  N   -0.135600
    20  O   -0.434778
    21  O   -0.421887
    22  O   -0.426955
    23  O   -0.334344
    24  C   -0.185035
    25  H    0.134121
    26  H    0.135319
    27  H    0.158350
    28  C   -0.183017
    29  H    0.131127
    30  H    0.133481
    31  H    0.156778
    32  C    0.269897
    33  C   -0.646943
    34  S   -0.122125
    35  C   -0.515440
    36  H    0.102234
    37  C    0.273906
    38  O   -0.121103
    39  C    0.285144
    40  C   -0.244062
    41  C    0.197160
    42  S   -0.349855
    43  H    0.131593
    44  H    0.139242
    45  H    0.143050
    46  C   -0.095548
    47  O   -0.163865
    48  C   -0.134649
    49  H    0.098442
    50  C   -0.332592
    51  H    0.123500
    52  H    0.219114
    53  H    0.139333
    54  H    0.101911
 Sum of Mulliken charges =  -2.00000

 Dipole moment (field-independent basis, Debye):
    X=             17.5772    Y=             -2.1519    Z=             -2.6142  Tot=             17.9003
 Quadrupole moment (field-independent basis, Debye-Ang):
   XX=           -423.3139   YY=           -309.4916   ZZ=           -236.7185
   XY=              5.0260   XZ=              0.1723   YZ=             15.1289

 Normal termination of Gaussian 16 at Thu Oct  7 10:52:29 2021.
