 Gaussian 16, Revision C.01,
 Gaussian 16:  ES64L-G16RevC.01  3-Jul-2019

 -------------------------------------
 # opt=modredundant b3lyp/6-311+g(d,p)
 -------------------------------------

 ------------
 NDI_-170.pdb
 ------------
 Symbolic Z-matrix:
 Charge = -2 Multiplicity = 1

 SCF Done:  E(RB3LYP) =  -2359.33694503     A.U. after   21 cycles
 SCF Done:  E(RB3LYP) =  -2359.37117828     A.U. after   20 cycles
 SCF Done:  E(RB3LYP) =  -2359.38606241     A.U. after   17 cycles
 SCF Done:  E(RB3LYP) =  -2359.38942950     A.U. after   15 cycles
 SCF Done:  E(RB3LYP) =  -2359.39039544     A.U. after   14 cycles
 SCF Done:  E(RB3LYP) =  -2359.39082675     A.U. after   17 cycles
 SCF Done:  E(RB3LYP) =  -2359.38974713     A.U. after   18 cycles
 SCF Done:  E(RB3LYP) =  -2359.39143787     A.U. after   14 cycles
 SCF Done:  E(RB3LYP) =  -2359.39191262     A.U. after   17 cycles
 SCF Done:  E(RB3LYP) =  -2359.39282769     A.U. after   15 cycles
 SCF Done:  E(RB3LYP) =  -2359.39765081     A.U. after   13 cycles
 SCF Done:  E(RB3LYP) =  -2359.39766018     A.U. after   14 cycles
 SCF Done:  E(RB3LYP) =  -2359.39767839     A.U. after   13 cycles
 SCF Done:  E(RB3LYP) =  -2359.39767445     A.U. after   13 cycles
 SCF Done:  E(RB3LYP) =  -2359.39770345     A.U. after   14 cycles
 SCF Done:  E(RB3LYP) =  -2359.39769775     A.U. after   13 cycles
 SCF Done:  E(RB3LYP) =  -2359.39770812     A.U. after   11 cycles
 SCF Done:  E(RB3LYP) =  -2359.39770908     A.U. after   11 cycles
 SCF Done:  E(RB3LYP) =  -2359.39770930     A.U. after   10 cycles
 SCF Done:  E(RB3LYP) =  -2359.39770941     A.U. after   10 cycles
 Optimization completed.
    -- Stationary point found.

                         Standard orientation:
 ---------------------------------------------------------------------
 Center     Atomic      Atomic             Coordinates (Angstroms)
 Number     Number       Type             X           Y           Z
 ---------------------------------------------------------------------
      1          6           0       -3.535234   -2.671110   -0.009643
      2          6           0       -2.795939   -1.439077   -0.124463
      3          6           0       -3.438184   -0.187835    0.097351
      4          6           0       -4.806107   -0.120972    0.431045
      5          6           0       -5.587127   -1.331725    0.557619
      6          6           0       -1.413069   -1.483375   -0.374714
      7          6           0       -2.657139    1.019125   -0.044675
      8          6           0       -1.271784    0.950329   -0.391575
      9          6           0       -0.611513   -0.355509   -0.488174
     10          6           0       -0.625794    2.167019   -0.791804
     11          6           0       -2.636377    3.505063   -0.079320
     12          6           0       -3.329811    2.259132    0.127921
     13          6           0       -4.712422    2.294568    0.479430
     14          6           0       -5.434462    1.145937    0.632721
     15          1           0       -6.485854    1.159308    0.892205
     16          1           0       -5.164446    3.270962    0.607846
     17          1           0       -0.974484   -2.471434   -0.389706
     18          7           0       -1.317179    3.380714   -0.537826
     19          7           0       -4.899979   -2.544345    0.323665
     20          8           0       -3.068868   -3.814649   -0.179864
     21          8           0       -6.797750   -1.357891    0.849926
     22          8           0       -3.139500    4.635722    0.093017
     23          8           0        0.484478    2.256111   -1.357251
     24          6           0       -0.592391    4.601671   -0.871640
     25          1           0        0.393163    4.586252   -0.402707
     26          1           0       -0.438431    4.675781   -1.952700
     27          1           0       -1.186965    5.440390   -0.517803
     28          6           0       -5.647870   -3.791381    0.436431
     29          1           0       -5.600853   -4.345164   -0.504870
     30          1           0       -5.209581   -4.426678    1.210809
     31          1           0       -6.674989   -3.535664    0.684143
     32          6           0        0.825178   -0.605772   -0.483299
     33          6           0        1.448291   -1.826233   -0.771063
     34         16           0        2.013875    0.501973    0.178046
     35          6           0        2.813466   -1.860677   -0.463775
     36          1           0        0.912179   -2.654422   -1.207723
     37          6           0        3.326447   -0.683456    0.081683
     38          8           0        3.659063   -2.925200   -0.682962
     39          6           0        4.683382   -0.372031    0.407486
     40          6           0        3.090406   -4.104099   -1.218932
     41          6           0        5.244847    0.834133    0.830271
     42         16           0        5.974662   -1.590664    0.351858
     43          1           0        3.905057   -4.825968   -1.297829
     44          1           0        2.308263   -4.506401   -0.564602
     45          1           0        2.663297   -3.927971   -2.213592
     46          6           0        6.635661    0.780700    1.109278
     47          8           0        4.509489    1.984760    1.032042
     48          6           0        7.181806   -0.454182    0.902640
     49          1           0        7.187697    1.644512    1.460433
     50          6           0        4.429258    2.855603   -0.101168
     51          1           0        8.203880   -0.774405    1.034795
     52          1           0        3.938634    2.363565   -0.944846
     53          1           0        3.820717    3.706650    0.206102
     54          1           0        5.429827    3.199266   -0.396340
 ---------------------------------------------------------------------

 The electronic state is 1-A.
 Alpha  occ. eigenvalues --  -88.70932 -88.67609 -18.99491 -18.97759 -18.88106
 Alpha  occ. eigenvalues --  -18.87788 -18.86795 -18.86261 -14.15731 -14.14607
 Alpha  occ. eigenvalues --  -10.07679 -10.06543 -10.06182 -10.05606 -10.05541
 Alpha  occ. eigenvalues --  -10.05398 -10.05285 -10.04892 -10.04629 -10.03324
 Alpha  occ. eigenvalues --  -10.02071 -10.01891 -10.01451 -10.01121 -10.00030
 Alpha  occ. eigenvalues --   -9.98479  -9.98440  -9.98327  -9.98318  -9.97090
 Alpha  occ. eigenvalues --   -9.96483  -9.96231  -9.95997  -9.95950  -9.95805
 Alpha  occ. eigenvalues --   -9.95789  -7.79484  -7.76133  -5.75799  -5.75428
 Alpha  occ. eigenvalues --   -5.75034  -5.72469  -5.72065  -5.71660  -0.90777
 Alpha  occ. eigenvalues --   -0.88920  -0.83844  -0.82620  -0.81445  -0.80127
 Alpha  occ. eigenvalues --   -0.72449  -0.71458  -0.71254  -0.69006  -0.66834
 Alpha  occ. eigenvalues --   -0.62294  -0.59926  -0.59273  -0.58007  -0.57439
 Alpha  occ. eigenvalues --   -0.55421  -0.53603  -0.53538  -0.52702  -0.51839
 Alpha  occ. eigenvalues --   -0.50255  -0.49774  -0.47672  -0.43846  -0.42754
 Alpha  occ. eigenvalues --   -0.42378  -0.41777  -0.40516  -0.39593  -0.37753
 Alpha  occ. eigenvalues --   -0.37243  -0.36252  -0.34335  -0.33957  -0.32061
 Alpha  occ. eigenvalues --   -0.31795  -0.31441  -0.30231  -0.29850  -0.29610
 Alpha  occ. eigenvalues --   -0.29043  -0.28019  -0.27729  -0.27349  -0.26714
 Alpha  occ. eigenvalues --   -0.26249  -0.25504  -0.25206  -0.25117  -0.24406
 Alpha  occ. eigenvalues --   -0.23477  -0.22962  -0.22610  -0.22049  -0.21424
 Alpha  occ. eigenvalues --   -0.21317  -0.21009  -0.20859  -0.20328  -0.19863
 Alpha  occ. eigenvalues --   -0.19519  -0.19350  -0.18796  -0.18420  -0.18315
 Alpha  occ. eigenvalues --   -0.17920  -0.17809  -0.16706  -0.16495  -0.16321
 Alpha  occ. eigenvalues --   -0.15263  -0.14920  -0.14193  -0.12594  -0.11831
 Alpha  occ. eigenvalues --   -0.11392  -0.09642  -0.08499  -0.07306  -0.07072
 Alpha  occ. eigenvalues --   -0.06644  -0.06180  -0.05802  -0.05171  -0.04967
 Alpha  occ. eigenvalues --   -0.04709  -0.03300  -0.01827   0.00147   0.06418
 Alpha virt. eigenvalues --    0.12212   0.13028   0.13844   0.14645   0.15702
 Alpha virt. eigenvalues --    0.15997   0.16551   0.16587   0.16881   0.17447
 Alpha virt. eigenvalues --    0.17542   0.18111   0.18732   0.18951   0.19111

 Mulliken charges:
               1
     1  C    0.240224
     2  C   -0.089699
     3  C    0.153344
     4  C    0.234841
     5  C    0.104528
     6  C    0.111026
     7  C    0.064887
     8  C    0.260429
     9  C    0.283017
    10  C   -0.721504
    11  C    0.171190
    12  C    0.105696
    13  C   -0.491349
    14  C   -0.584197
    15  H    0.103169
    16  H    0.107936
    17  H    0.123501
    18  N   -0.034292
    19  N   -0.137901
    20  O   -0.428176
    21  O   -0.402965
    22  O   -0.421195
    23  O   -0.351594
    24  C   -0.153474
    25  H    0.140893
    26  H    0.133919
    27  H    0.156064
    28  C   -0.180090
    29  H    0.134354
    30  H    0.135621
    31  H    0.156931
    32  C    0.159449
    33  C   -0.554098
    34  S   -0.839621
    35  C   -0.592512
    36  H    0.109922
    37  C    0.665667
    38  O   -0.129725
    39  C    0.461089
    40  C   -0.231728
    41  C    0.005892
    42  S   -0.355250
    43  H    0.132459
    44  H    0.142947
    45  H    0.133073
    46  C   -0.017834
    47  O   -0.139604
    48  C   -0.219880
    49  H    0.092637
    50  C   -0.300070
    51  H    0.118398
    52  H    0.187815
    53  H    0.145759
    54  H    0.100080
 Sum of Mulliken charges =  -2.00000

 Dipole moment (field-independent basis, Debye):
    X=             13.9758    Y=             -3.4960    Z=             -1.6573  Tot=             14.5015
 Quadrupole moment (field-independent basis, Debye-Ang):
   XX=           -420.9494   YY=           -303.1337   ZZ=           -242.4428
   XY=              6.1815   XZ=              4.4395   YZ=              3.0663

 Normal termination of Gaussian 16 at Wed Oct  6 03:22:18 2021.
