 Gaussian 16, Revision C.01,
 Gaussian 16:  ES64L-G16RevC.01  3-Jul-2019

 -------------------------------------
 # opt=modredundant b3lyp/6-311+g(d,p)
 -------------------------------------

 ----------
 NDI_40.pdb
 ----------
 Symbolic Z-matrix:
 Charge = -2 Multiplicity = 1

 SCF Done:  E(RB3LYP) =  -2359.37576202     A.U. after   23 cycles
 SCF Done:  E(RB3LYP) =  -2359.38805360     A.U. after   18 cycles
 SCF Done:  E(RB3LYP) =  -2359.39467318     A.U. after   15 cycles
 SCF Done:  E(RB3LYP) =  -2359.39624582     A.U. after   16 cycles
 SCF Done:  E(RB3LYP) =  -2359.39681589     A.U. after   16 cycles
 SCF Done:  E(RB3LYP) =  -2359.39678273     A.U. after   18 cycles
 SCF Done:  E(RB3LYP) =  -2359.39754159     A.U. after   14 cycles
 SCF Done:  E(RB3LYP) =  -2359.39773415     A.U. after   14 cycles
 SCF Done:  E(RB3LYP) =  -2359.39774334     A.U. after   13 cycles
 SCF Done:  E(RB3LYP) =  -2359.39778806     A.U. after   12 cycles
 SCF Done:  E(RB3LYP) =  -2359.40108188     A.U. after   14 cycles
 SCF Done:  E(RB3LYP) =  -2359.40110918     A.U. after   13 cycles
 SCF Done:  E(RB3LYP) =  -2359.40112870     A.U. after   12 cycles
 SCF Done:  E(RB3LYP) =  -2359.40114359     A.U. after   12 cycles
 SCF Done:  E(RB3LYP) =  -2359.40114674     A.U. after   12 cycles
 SCF Done:  E(RB3LYP) =  -2359.40114908     A.U. after   12 cycles
 SCF Done:  E(RB3LYP) =  -2359.40115069     A.U. after   10 cycles
 SCF Done:  E(RB3LYP) =  -2359.40115302     A.U. after   11 cycles
 SCF Done:  E(RB3LYP) =  -2359.40115529     A.U. after   11 cycles
 SCF Done:  E(RB3LYP) =  -2359.40115555     A.U. after   10 cycles
 Optimization completed.
    -- Stationary point found.

                         Standard orientation:
 ---------------------------------------------------------------------
 Center     Atomic      Atomic             Coordinates (Angstroms)
 Number     Number       Type             X           Y           Z
 ---------------------------------------------------------------------
      1          6           0       -2.636273   -2.968027    0.229230
      2          6           0       -2.298876   -1.576610    0.070693
      3          6           0       -3.318464   -0.583301    0.050597
      4          6           0       -4.679555   -0.937797    0.171091
      5          6           0       -5.065142   -2.322214    0.322200
      6          6           0       -0.943914   -1.194915   -0.003832
      7          6           0       -2.935603    0.803717   -0.103136
      8          6           0       -1.555943    1.166460   -0.222934
      9          6           0       -0.534085    0.123389   -0.107297
     10          6           0       -1.236329    2.531688   -0.540284
     11          6           0       -3.673745    3.162635   -0.360648
     12          6           0       -3.975348    1.770319   -0.156790
     13          6           0       -5.343396    1.379521   -0.026636
     14          6           0       -5.691295    0.070711    0.136448
     15          1           0       -6.724124   -0.240934    0.232675
     16          1           0       -6.088107    2.165295   -0.070250
     17          1           0       -0.211147   -1.984076    0.107442
     18          7           0       -2.315705    3.455998   -0.556805
     19          7           0       -4.012232   -3.263134    0.336942
     20          8           0       -1.821978   -3.910488    0.276336
     21          8           0       -6.243193   -2.714542    0.436324
     22          8           0       -4.525228    4.077874   -0.388213
     23          8           0       -0.106003    2.989419   -0.811751
     24          6           0       -1.952849    4.838308   -0.848492
     25          1           0       -1.231462    5.204051   -0.112806
     26          1           0       -1.475736    4.905615   -1.829655
     27          1           0       -2.866801    5.426458   -0.819744
     28          6           0       -4.351722   -4.673419    0.487024
     29          1           0       -3.945659   -5.247636   -0.349418
     30          1           0       -3.909580   -5.075404    1.403063
     31          1           0       -5.435806   -4.747230    0.520842
     32          6           0        0.894659    0.376776    0.015992
     33          6           0        1.560979    1.349346    0.741787
     34         16           0        2.061550   -0.735476   -0.696655
     35          6           0        2.955922    1.189000    0.754912
     36          1           0        1.032569    2.155579    1.221895
     37          6           0        3.442049    0.088809    0.049345
     38          8           0        3.843227    2.006250    1.411569
     39          6           0        4.794363   -0.347369   -0.103918
     40          6           0        3.327626    3.215210    1.946461
     41          6           0        5.290352   -1.507552   -0.698280
     42         16           0        6.173662    0.621184    0.452016
     43          1           0        4.189723    3.775374    2.312349
     44          1           0        2.802589    3.795029    1.180647
     45          1           0        2.641289    3.022245    2.779406
     46          6           0        6.705893   -1.609571   -0.723321
     47          8           0        4.478833   -2.469035   -1.269590
     48          6           0        7.331867   -0.543286   -0.142713
     49          1           0        7.218297   -2.453628   -1.169431
     50          6           0        4.089390   -3.519752   -0.382331
     51          1           0        8.388736   -0.364425   -0.017744
     52          1           0        3.559180   -3.124615    0.488854
     53          1           0        3.414624   -4.167803   -0.942882
     54          1           0        4.964936   -4.093552   -0.050386
 ---------------------------------------------------------------------

 The electronic state is 1-A.
 Alpha  occ. eigenvalues --  -88.71405 -88.68297 -18.99547 -18.98538 -18.87699
 Alpha  occ. eigenvalues --  -18.87319 -18.86749 -18.86150 -14.15374 -14.14632
 Alpha  occ. eigenvalues --  -10.07336 -10.06624 -10.06148 -10.05958 -10.05946
 Alpha  occ. eigenvalues --  -10.05756 -10.05220 -10.05140 -10.04972 -10.03816
 Alpha  occ. eigenvalues --  -10.02399 -10.02105 -10.02081 -10.00793 -10.00106
 Alpha  occ. eigenvalues --   -9.98437  -9.98337  -9.98205  -9.98141  -9.96777
 Alpha  occ. eigenvalues --   -9.96165  -9.96145  -9.95925  -9.95740  -9.95681
 Alpha  occ. eigenvalues --   -9.95616  -7.79955  -7.76864  -5.76270  -5.75897
 Alpha  occ. eigenvalues --   -5.75506  -5.73198  -5.72814  -5.72382  -0.90827
 Alpha  occ. eigenvalues --   -0.89723  -0.83432  -0.82564  -0.81005  -0.80040
 Alpha  occ. eigenvalues --   -0.72068  -0.71983  -0.71182  -0.69367  -0.66669
 Alpha  occ. eigenvalues --   -0.62250  -0.59936  -0.59321  -0.58512  -0.57716
 Alpha  occ. eigenvalues --   -0.55242  -0.54219  -0.53175  -0.52651  -0.52309
 Alpha  occ. eigenvalues --   -0.50277  -0.49803  -0.47522  -0.44021  -0.42714
 Alpha  occ. eigenvalues --   -0.42394  -0.41874  -0.40464  -0.39734  -0.38244
 Alpha  occ. eigenvalues --   -0.37177  -0.36511  -0.34158  -0.33810  -0.31796
 Alpha  occ. eigenvalues --   -0.31587  -0.31372  -0.30891  -0.30706  -0.30069
 Alpha  occ. eigenvalues --   -0.29193  -0.28604  -0.27385  -0.27108  -0.26672
 Alpha  occ. eigenvalues --   -0.26317  -0.25524  -0.25285  -0.24937  -0.24475
 Alpha  occ. eigenvalues --   -0.23349  -0.23232  -0.22386  -0.22254  -0.21612
 Alpha  occ. eigenvalues --   -0.21156  -0.20898  -0.20657  -0.20387  -0.19938
 Alpha  occ. eigenvalues --   -0.19552  -0.19251  -0.19098  -0.18708  -0.18278
 Alpha  occ. eigenvalues --   -0.17990  -0.17571  -0.16857  -0.16368  -0.15953
 Alpha  occ. eigenvalues --   -0.15383  -0.15063  -0.14887  -0.12656  -0.12015
 Alpha  occ. eigenvalues --   -0.11590  -0.09911  -0.08938  -0.07009  -0.06890
 Alpha  occ. eigenvalues --   -0.06338  -0.06244  -0.05578  -0.05418  -0.04698
 Alpha  occ. eigenvalues --   -0.04615  -0.03471  -0.01677  -0.00209   0.06547
 Alpha virt. eigenvalues --    0.11931   0.12777   0.13872   0.14394   0.15714
 Alpha virt. eigenvalues --    0.15855   0.16600   0.16768   0.16876   0.17133
 Alpha virt. eigenvalues --    0.17338   0.17937   0.18485   0.18713   0.19014

 Mulliken charges:
               1
     1  C    0.234118
     2  C   -0.124139
     3  C    0.114142
     4  C    0.236959
     5  C    0.105513
     6  C   -0.266502
     7  C    0.252519
     8  C    0.266394
     9  C    0.371414
    10  C   -0.527808
    11  C    0.068049
    12  C    0.209331
    13  C   -0.466224
    14  C   -0.605805
    15  H    0.103069
    16  H    0.106626
    17  H    0.145622
    18  N   -0.105667
    19  N   -0.136449
    20  O   -0.427276
    21  O   -0.408852
    22  O   -0.418621
    23  O   -0.349199
    24  C   -0.183574
    25  H    0.129076
    26  H    0.137734
    27  H    0.155578
    28  C   -0.179877
    29  H    0.136226
    30  H    0.133458
    31  H    0.156345
    32  C   -0.013237
    33  C   -0.449599
    34  S   -0.670794
    35  C   -0.506989
    36  H    0.126340
    37  C    0.460721
    38  O   -0.127664
    39  C    0.497112
    40  C   -0.258208
    41  C    0.174274
    42  S   -0.386507
    43  H    0.128632
    44  H    0.167869
    45  H    0.129807
    46  C   -0.157407
    47  O   -0.136992
    48  C   -0.175853
    49  H    0.093882
    50  C   -0.304162
    51  H    0.119795
    52  H    0.169860
    53  H    0.151166
    54  H    0.105776
 Sum of Mulliken charges =  -2.00000

 Dipole moment (field-independent basis, Debye):
    X=             15.2954    Y=             -0.1284    Z=              2.5356  Tot=             15.5047
 Quadrupole moment (field-independent basis, Debye-Ang):
   XX=           -426.8440   YY=           -307.2290   ZZ=           -238.3397
   XY=              2.6109   XZ=              8.5923   YZ=             11.3665

 Normal termination of Gaussian 16 at Fri Oct  8 08:20:44 2021.
