 Gaussian 16, Revision C.01,
 Gaussian 16:  ES64L-G16RevC.01  3-Jul-2019

 ---------------------------------------------------------------
 # opt=modredundant b3lyp/6-311+g(d,p) scrf=(pcm, solvent=water)
 ---------------------------------------------------------------

 ----------
 NDI_30.pdb
 ----------
 Symbolic Z-matrix:
 Charge = -1 Multiplicity = 2

 SCF Done:  E(UB3LYP) =  -2359.48750622     A.U. after   22 cycles
 SCF Done:  E(UB3LYP) =  -2359.48327212     A.U. after   22 cycles
 SCF Done:  E(UB3LYP) =  -2359.49395293     A.U. after   19 cycles
 SCF Done:  E(UB3LYP) =  -2359.49765076     A.U. after   17 cycles
 SCF Done:  E(UB3LYP) =  -2359.49863145     A.U. after   19 cycles
 SCF Done:  E(UB3LYP) =  -2359.49981473     A.U. after   19 cycles
 SCF Done:  E(UB3LYP) =  -2359.50101236     A.U. after   21 cycles
 SCF Done:  E(UB3LYP) =  -2359.50190320     A.U. after   17 cycles
 SCF Done:  E(UB3LYP) =  -2359.50249140     A.U. after   21 cycles
 SCF Done:  E(UB3LYP) =  -2359.50251313     A.U. after   18 cycles
 SCF Done:  E(UB3LYP) =  -2359.50291714     A.U. after   14 cycles
 SCF Done:  E(UB3LYP) =  -2359.50292054     A.U. after   10 cycles
 SCF Done:  E(UB3LYP) =  -2359.50292161     A.U. after   13 cycles
 SCF Done:  E(UB3LYP) =  -2359.50292223     A.U. after   11 cycles
 SCF Done:  E(UB3LYP) =  -2359.50292271     A.U. after   11 cycles
 SCF Done:  E(UB3LYP) =  -2359.50292302     A.U. after   11 cycles
 SCF Done:  E(UB3LYP) =  -2359.50292309     A.U. after   10 cycles
 SCF Done:  E(UB3LYP) =  -2359.50292313     A.U. after   10 cycles
 SCF Done:  E(UB3LYP) =  -2359.50292317     A.U. after    8 cycles
 SCF Done:  E(UB3LYP) =  -2359.50292318     A.U. after    8 cycles
 Optimization completed.
    -- Stationary point found.

                         Standard orientation:
 ---------------------------------------------------------------------
 Center     Atomic      Atomic             Coordinates (Angstroms)
 Number     Number       Type             X           Y           Z
 ---------------------------------------------------------------------
      1          6           0       -2.726103   -2.988139    0.293235
      2          6           0       -2.349682   -1.590959    0.118723
      3          6           0       -3.344380   -0.586622    0.070961
      4          6           0       -4.712148   -0.915428    0.199097
      5          6           0       -5.119492   -2.305895    0.380304
      6          6           0       -0.999395   -1.235307    0.070494
      7          6           0       -2.940730    0.775969   -0.119674
      8          6           0       -1.561310    1.107326   -0.261740
      9          6           0       -0.566609    0.083713   -0.088115
     10          6           0       -1.238583    2.453830   -0.730859
     11          6           0       -3.607349    3.162261   -0.405076
     12          6           0       -3.954448    1.766296   -0.181622
     13          6           0       -5.311108    1.412786   -0.036865
     14          6           0       -5.688101    0.098960    0.150021
     15          1           0       -6.730824   -0.171166    0.254146
     16          1           0       -6.053217    2.199391   -0.082547
     17          1           0       -0.272923   -2.022490    0.224931
     18          7           0       -2.259223    3.424575   -0.654368
     19          7           0       -4.094604   -3.266647    0.403192
     20          8           0       -1.910662   -3.916911    0.347090
     21          8           0       -6.300378   -2.650193    0.506359
     22          8           0       -4.439232    4.080008   -0.408151
     23          8           0       -0.151473    2.795218   -1.206679
     24          6           0       -1.878652    4.799244   -0.999519
     25          1           0       -0.916659    5.029274   -0.547140
     26          1           0       -1.791462    4.917833   -2.082294
     27          1           0       -2.648248    5.466805   -0.625189
     28          6           0       -4.459129   -4.678653    0.570062
     29          1           0       -4.034118   -5.267028   -0.242808
     30          1           0       -4.068281   -5.059350    1.515084
     31          1           0       -5.541370   -4.750708    0.561837
     32          6           0        0.864062    0.339897    0.107634
     33          6           0        1.492252    1.410859    0.698003
     34         16           0        2.047484   -0.840883   -0.429407
     35          6           0        2.900730    1.278798    0.751494
     36          1           0        0.955512    2.258090    1.093497
     37          6           0        3.395396    0.111274    0.179720
     38          8           0        3.769147    2.172003    1.302304
     39          6           0        4.766468   -0.315461    0.065562
     40          6           0        3.230237    3.368594    1.873517
     41          6           0        5.258809   -1.483821   -0.504525
     42         16           0        6.116582    0.646179    0.667723
     43          1           0        4.084639    3.934099    2.239872
     44          1           0        2.697575    3.956103    1.120835
     45          1           0        2.560357    3.137505    2.706333
     46          6           0        6.677781   -1.605469   -0.459180
     47          8           0        4.393058   -2.386281   -1.042640
     48          6           0        7.269272   -0.531689    0.143493
     49          1           0        7.231597   -2.445178   -0.853060
     50          6           0        4.937283   -3.581684   -1.611521
     51          1           0        8.321513   -0.361359    0.312489
     52          1           0        5.475749   -4.163593   -0.858462
     53          1           0        4.085134   -4.153726   -1.972728
     54          1           0        5.602665   -3.349589   -2.447630
 ---------------------------------------------------------------------

 The electronic state is 2-A.
 Alpha  occ. eigenvalues --  -88.88045 -88.87698 -19.16419 -19.16327 -19.09984
 Alpha  occ. eigenvalues --  -19.09938 -19.09594 -19.09412 -14.36759 -14.36357
 Alpha  occ. eigenvalues --  -10.28425 -10.28222 -10.28058 -10.27963 -10.24151
 Alpha  occ. eigenvalues --  -10.24001 -10.22530 -10.22474 -10.21402 -10.21353
 Alpha  occ. eigenvalues --  -10.21108 -10.20674 -10.20438 -10.20309 -10.20121
 Alpha  occ. eigenvalues --  -10.19760 -10.19623 -10.19333 -10.18952 -10.18892
 Alpha  occ. eigenvalues --  -10.18767 -10.18538 -10.18351 -10.18155 -10.18072
 Alpha  occ. eigenvalues --  -10.17797  -7.96607  -7.96269  -5.92915  -5.92585
 Alpha  occ. eigenvalues --   -5.92531  -5.92203  -5.92176  -5.91821  -1.07760
 Alpha  occ. eigenvalues --   -1.07631  -1.05906  -1.05622  -1.03856  -1.03518
 Alpha  occ. eigenvalues --   -0.93968  -0.93571  -0.89985  -0.89227  -0.87865
 Alpha  occ. eigenvalues --   -0.84149  -0.81822  -0.78841  -0.76580  -0.75827
 Alpha  occ. eigenvalues --   -0.75361  -0.74439  -0.73417  -0.72307  -0.70727
 Alpha  occ. eigenvalues --   -0.70346  -0.69350  -0.67533  -0.65121  -0.64000
 Alpha  occ. eigenvalues --   -0.63275  -0.62555  -0.59867  -0.58663  -0.56637
 Alpha  occ. eigenvalues --   -0.55696  -0.55396  -0.55038  -0.54031  -0.53150
 Alpha  occ. eigenvalues --   -0.51574  -0.49532  -0.48972  -0.48228  -0.47874
 Alpha  occ. eigenvalues --   -0.47800  -0.47720  -0.47456  -0.47226  -0.47037
 Alpha  occ. eigenvalues --   -0.46549  -0.45249  -0.45093  -0.44668  -0.44374
 Alpha  occ. eigenvalues --   -0.43905  -0.43126  -0.42899  -0.42300  -0.42043
 Alpha  occ. eigenvalues --   -0.41462  -0.41162  -0.40989  -0.40535  -0.40308
 Alpha  occ. eigenvalues --   -0.40176  -0.39858  -0.39422  -0.39085  -0.38807
 Alpha  occ. eigenvalues --   -0.38148  -0.37653  -0.37130  -0.36760  -0.35759
 Alpha  occ. eigenvalues --   -0.34958  -0.34583  -0.33599  -0.33385  -0.32949
 Alpha  occ. eigenvalues --   -0.32470  -0.30114  -0.29393  -0.28907  -0.28154
 Alpha  occ. eigenvalues --   -0.27972  -0.27271  -0.26916  -0.26360  -0.26158
 Alpha  occ. eigenvalues --   -0.24627  -0.24296  -0.23817  -0.19062  -0.15386
 Alpha virt. eigenvalues --   -0.06532  -0.05321  -0.03271  -0.02521  -0.00293
 Alpha virt. eigenvalues --    0.00328   0.00407   0.00634   0.00880   0.01377
 Alpha virt. eigenvalues --    0.01758   0.02251   0.02366   0.02548   0.02761

  Beta  occ. eigenvalues --  -88.88044 -88.87689 -19.16404 -19.16332 -19.09798
  Beta  occ. eigenvalues --  -19.09743 -19.09417 -19.09226 -14.36812 -14.36409
  Beta  occ. eigenvalues --  -10.28366 -10.28164 -10.27999 -10.27909 -10.24121
  Beta  occ. eigenvalues --  -10.24024 -10.22530 -10.22473 -10.21415 -10.21292
  Beta  occ. eigenvalues --  -10.21153 -10.20561 -10.20487 -10.20280 -10.20177
  Beta  occ. eigenvalues --  -10.19759 -10.19622 -10.19175 -10.18805 -10.18726
  Beta  occ. eigenvalues --  -10.18617 -10.18479 -10.18362 -10.18076 -10.17992
  Beta  occ. eigenvalues --  -10.17747  -7.96606  -7.96261  -5.92915  -5.92581
  Beta  occ. eigenvalues --   -5.92531  -5.92198  -5.92174  -5.91795  -1.07735
  Beta  occ. eigenvalues --   -1.07636  -1.05663  -1.05391  -1.03527  -1.03203
  Beta  occ. eigenvalues --   -0.93854  -0.93464  -0.89888  -0.89135  -0.87816
  Beta  occ. eigenvalues --   -0.83838  -0.81531  -0.78701  -0.76464  -0.75503
  Beta  occ. eigenvalues --   -0.75205  -0.74402  -0.73350  -0.72247  -0.70680
  Beta  occ. eigenvalues --   -0.70068  -0.69199  -0.67416  -0.64967  -0.63809
  Beta  occ. eigenvalues --   -0.63186  -0.62364  -0.59819  -0.58603  -0.56552
  Beta  occ. eigenvalues --   -0.55588  -0.55362  -0.54930  -0.54009  -0.53001
  Beta  occ. eigenvalues --   -0.51469  -0.49393  -0.48863  -0.47966  -0.47786
  Beta  occ. eigenvalues --   -0.47730  -0.47561  -0.47439  -0.47159  -0.46916
  Beta  occ. eigenvalues --   -0.46499  -0.45196  -0.45004  -0.44581  -0.44247
  Beta  occ. eigenvalues --   -0.43821  -0.42947  -0.42727  -0.42069  -0.41926
  Beta  occ. eigenvalues --   -0.41359  -0.41066  -0.40892  -0.40267  -0.39904
  Beta  occ. eigenvalues --   -0.39853  -0.39463  -0.39079  -0.38633  -0.38564
  Beta  occ. eigenvalues --   -0.38083  -0.37503  -0.36826  -0.36713  -0.35735
  Beta  occ. eigenvalues --   -0.34860  -0.34319  -0.33455  -0.33367  -0.32920
  Beta  occ. eigenvalues --   -0.31956  -0.29428  -0.28923  -0.28579  -0.27845
  Beta  occ. eigenvalues --   -0.27501  -0.26973  -0.26708  -0.26095  -0.25782
  Beta  occ. eigenvalues --   -0.24333  -0.24061  -0.22674  -0.18672
  Beta virt. eigenvalues --   -0.11130  -0.05945  -0.04408  -0.02432  -0.02239
  Beta virt. eigenvalues --   -0.00276   0.00414   0.00512   0.00640   0.00935
  Beta virt. eigenvalues --    0.01407   0.01772   0.02317   0.02613   0.02770

 Mulliken charges and spin densities:
               1          2
     1  C    0.343844   0.026788
     2  C   -0.150028   0.116452
     3  C    0.145764  -0.036469
     4  C    0.195818   0.100297
     5  C    0.257938   0.026021
     6  C   -0.185510   0.046982
     7  C    0.211970  -0.029123
     8  C    0.472068   0.116335
     9  C    0.286345   0.079548
    10  C   -0.681177   0.022955
    11  C    0.273131   0.025348
    12  C    0.084899   0.098308
    13  C   -0.497507   0.058610
    14  C   -0.608185   0.062522
    15  H    0.144136  -0.004236
    16  H    0.144504  -0.004105
    17  H    0.150876  -0.002284
    18  N   -0.026021  -0.021815
    19  N   -0.132645  -0.022595
    20  O   -0.434241   0.072525
    21  O   -0.416044   0.068997
    22  O   -0.431390   0.065861
    23  O   -0.344728   0.069833
    24  C   -0.189532   0.001408
    25  H    0.171632  -0.000543
    26  H    0.176909  -0.001176
    27  H    0.172998  -0.000432
    28  C   -0.210736   0.001179
    29  H    0.169968  -0.000869
    30  H    0.174750  -0.001024
    31  H    0.173674  -0.000329
    32  C   -0.002057  -0.035931
    33  C   -0.530986   0.035734
    34  S   -0.625732   0.016322
    35  C   -0.318911  -0.011698
    36  H    0.157831  -0.002609
    37  C    0.697123   0.042475
    38  O   -0.162092  -0.000620
    39  C    0.810225  -0.013031
    40  C   -0.239892   0.000100
    41  C    0.025643   0.020071
    42  S   -0.226633  -0.000234
    43  H    0.175172  -0.000003
    44  H    0.162321  -0.000235
    45  H    0.161213  -0.000136
    46  C   -0.618925  -0.008288
    47  O   -0.163901   0.003168
    48  C   -0.330218   0.020410
    49  H    0.159696   0.000375
    50  C   -0.251339  -0.000166
    51  H    0.187190  -0.001218
    52  H    0.159276   0.000284
    53  H    0.173025  -0.000008
    54  H    0.158490   0.000268
 Sum of Mulliken charges =  -1.00000   1.00000

 Dipole moment (field-independent basis, Debye):
    X=             15.3576    Y=             -0.5574    Z=              1.3058  Tot=             15.4231
 Quadrupole moment (field-independent basis, Debye-Ang):
   XX=           -294.9744   YY=           -249.5963   ZZ=           -225.8813
   XY=             -8.8688   XZ=             -0.6048   YZ=             20.2233

 Normal termination of Gaussian 16 at Thu Oct 28 08:38:50 2021.
