 Gaussian 16, Revision C.01,
 Gaussian 16:  ES64L-G16RevC.01  3-Jul-2019

 ---------------------------------------------------------------
 # opt=modredundant b3lyp/6-311+g(d,p) scrf=(pcm, solvent=water)
 ---------------------------------------------------------------

 ------------
 NDI_-175.pdb
 ------------
 Symbolic Z-matrix:
 Charge = -1 Multiplicity = 2

 SCF Done:  E(UB3LYP) =  -2359.44956289     A.U. after   22 cycles
 SCF Done:  E(UB3LYP) =  -2359.48196933     A.U. after   22 cycles
 SCF Done:  E(UB3LYP) =  -2359.49201160     A.U. after   20 cycles
 SCF Done:  E(UB3LYP) =  -2359.49460495     A.U. after   17 cycles
 SCF Done:  E(UB3LYP) =  -2359.49502382     A.U. after   16 cycles
 SCF Done:  E(UB3LYP) =  -2359.49512228     A.U. after   16 cycles
 SCF Done:  E(UB3LYP) =  -2359.49532877     A.U. after   17 cycles
 SCF Done:  E(UB3LYP) =  -2359.49540286     A.U. after   21 cycles
 SCF Done:  E(UB3LYP) =  -2359.49580017     A.U. after   17 cycles
 SCF Done:  E(UB3LYP) =  -2359.49648665     A.U. after   19 cycles
 SCF Done:  E(UB3LYP) =  -2359.49885684     A.U. after   14 cycles
 SCF Done:  E(UB3LYP) =  -2359.49885902     A.U. after   13 cycles
 SCF Done:  E(UB3LYP) =  -2359.49886178     A.U. after   11 cycles
 SCF Done:  E(UB3LYP) =  -2359.49886552     A.U. after   11 cycles
 SCF Done:  E(UB3LYP) =  -2359.49886836     A.U. after   13 cycles
 SCF Done:  E(UB3LYP) =  -2359.49887052     A.U. after   14 cycles
 SCF Done:  E(UB3LYP) =  -2359.49887132     A.U. after   11 cycles
 SCF Done:  E(UB3LYP) =  -2359.49887152     A.U. after   13 cycles
 SCF Done:  E(UB3LYP) =  -2359.49887153     A.U. after    8 cycles
 SCF Done:  E(UB3LYP) =  -2359.49887154     A.U. after    7 cycles
 Optimization completed.
    -- Stationary point found.

                         Standard orientation:
 ---------------------------------------------------------------------
 Center     Atomic      Atomic             Coordinates (Angstroms)
 Number     Number       Type             X           Y           Z
 ---------------------------------------------------------------------
      1          6           0       -3.608382   -2.631360    0.085040
      2          6           0       -2.828387   -1.414921   -0.112948
      3          6           0       -3.423353   -0.148795    0.096252
      4          6           0       -4.768631   -0.036592    0.507224
      5          6           0       -5.572908   -1.236961    0.719288
      6          6           0       -1.472091   -1.505296   -0.427766
      7          6           0       -2.631505    1.022924   -0.128910
      8          6           0       -1.275519    0.908048   -0.552397
      9          6           0       -0.650985   -0.388470   -0.625875
     10          6           0       -0.640136    2.115780   -1.064920
     11          6           0       -2.506628    3.513341   -0.192790
     12          6           0       -3.247280    2.286833    0.063471
     13          6           0       -4.587747    2.371839    0.491515
     14          6           0       -5.338771    1.235589    0.710967
     15          1           0       -6.370104    1.303126    1.031719
     16          1           0       -5.017790    3.354653    0.635978
     17          1           0       -1.047191   -2.498199   -0.448282
     18          7           0       -1.233901    3.351942   -0.743435
     19          7           0       -4.942133   -2.470222    0.482147
     20          8           0       -3.157093   -3.771357   -0.078020
     21          8           0       -6.753222   -1.200186    1.084823
     22          8           0       -2.962103    4.645219    0.021461
     23          8           0        0.367716    2.122394   -1.781599
     24          6           0       -0.500905    4.556231   -1.150972
     25          1           0        0.557611    4.419719   -0.942003
     26          1           0       -0.623769    4.741813   -2.220871
     27          1           0       -0.896916    5.398243   -0.592259
     28          6           0       -5.716522   -3.702527    0.672566
     29          1           0       -5.686757   -4.301039   -0.237694
     30          1           0       -5.292976   -4.290374    1.488391
     31          1           0       -6.738320   -3.425077    0.908033
     32          6           0        0.796149   -0.653764   -0.670207
     33          6           0        1.386371   -1.897773   -0.839050
     34         16           0        1.995664    0.484107   -0.087006
     35          6           0        2.762447   -1.931281   -0.531658
     36          1           0        0.845945   -2.763189   -1.190813
     37          6           0        3.274710   -0.721718   -0.073352
     38          8           0        3.588148   -3.009216   -0.649749
     39          6           0        4.630310   -0.416352    0.303755
     40          6           0        3.026364   -4.237110   -1.122560
     41          6           0        5.140906    0.783075    0.789184
     42         16           0        5.934814   -1.600313    0.205702
     43          1           0        3.847496   -4.950731   -1.145868
     44          1           0        2.247530   -4.598256   -0.445068
     45          1           0        2.616251   -4.118363   -2.129395
     46          6           0        6.537041    0.753983    1.071664
     47          8           0        4.312335    1.849435    0.955153
     48          6           0        7.092881   -0.465163    0.805116
     49          1           0        7.100248    1.592460    1.454621
     50          6           0        4.875943    3.066235    1.456249
     51          1           0        8.121595   -0.766969    0.929716
     52          1           0        5.642869    3.450587    0.778258
     53          1           0        4.051777    3.774305    1.512430
     54          1           0        5.300603    2.919478    2.453111
 ---------------------------------------------------------------------

 The electronic state is 2-A.
 Alpha  occ. eigenvalues --  -88.88061 -88.87448 -19.16453 -19.16285 -19.10028
 Alpha  occ. eigenvalues --  -19.09980 -19.09578 -19.09490 -14.36776 -14.36380
 Alpha  occ. eigenvalues --  -10.28463 -10.28270 -10.27994 -10.27947 -10.24237
 Alpha  occ. eigenvalues --  -10.23872 -10.22536 -10.22476 -10.21406 -10.21403
 Alpha  occ. eigenvalues --  -10.21320 -10.20847 -10.20387 -10.20374 -10.20031
 Alpha  occ. eigenvalues --  -10.19767 -10.19646 -10.19189 -10.18950 -10.18881
 Alpha  occ. eigenvalues --  -10.18742 -10.18565 -10.18370 -10.18142 -10.18054
 Alpha  occ. eigenvalues --  -10.18043  -7.96624  -7.96001  -5.92932  -5.92547
 Alpha  occ. eigenvalues --   -5.92323  -5.92194  -5.91927  -5.91545  -1.07805
 Alpha  occ. eigenvalues --   -1.07586  -1.05945  -1.05640  -1.03904  -1.03527
 Alpha  occ. eigenvalues --   -0.93989  -0.93623  -0.89948  -0.89232  -0.87847
 Alpha  occ. eigenvalues --   -0.84133  -0.81801  -0.78912  -0.76388  -0.75944
 Alpha  occ. eigenvalues --   -0.75364  -0.74459  -0.73430  -0.72317  -0.70783
 Alpha  occ. eigenvalues --   -0.70021  -0.69576  -0.67590  -0.65084  -0.64061
 Alpha  occ. eigenvalues --   -0.63219  -0.62606  -0.59795  -0.58694  -0.56659
 Alpha  occ. eigenvalues --   -0.55830  -0.55419  -0.55019  -0.54092  -0.52889
 Alpha  occ. eigenvalues --   -0.51838  -0.49402  -0.48797  -0.48323  -0.47914
 Alpha  occ. eigenvalues --   -0.47834  -0.47627  -0.47449  -0.47339  -0.47008
 Alpha  occ. eigenvalues --   -0.46559  -0.45414  -0.45168  -0.44692  -0.44479
 Alpha  occ. eigenvalues --   -0.43656  -0.43148  -0.43011  -0.42454  -0.41994
 Alpha  occ. eigenvalues --   -0.41483  -0.41195  -0.40926  -0.40534  -0.40294
 Alpha  occ. eigenvalues --   -0.39999  -0.39880  -0.39638  -0.39224  -0.38823
 Alpha  occ. eigenvalues --   -0.38065  -0.37714  -0.37002  -0.36650  -0.35567
 Alpha  occ. eigenvalues --   -0.34991  -0.34757  -0.33648  -0.33343  -0.32815
 Alpha  occ. eigenvalues --   -0.32315  -0.29969  -0.29407  -0.29083  -0.28215
 Alpha  occ. eigenvalues --   -0.27951  -0.27232  -0.26978  -0.26413  -0.26171
 Alpha  occ. eigenvalues --   -0.24637  -0.24301  -0.23687  -0.19077  -0.15305
 Alpha virt. eigenvalues --   -0.06897  -0.05280  -0.03182  -0.02621  -0.00333
 Alpha virt. eigenvalues --    0.00365   0.00572   0.00602   0.00809   0.01508
 Alpha virt. eigenvalues --    0.01849   0.02318   0.02490   0.02498   0.02769

  Beta  occ. eigenvalues --  -88.88060 -88.87447 -19.16431 -19.16297 -19.09848
  Beta  occ. eigenvalues --  -19.09792 -19.09403 -19.09301 -14.36827 -14.36432
  Beta  occ. eigenvalues --  -10.28405 -10.28213 -10.27935 -10.27892 -10.24190
  Beta  occ. eigenvalues --  -10.23914 -10.22537 -10.22475 -10.21463 -10.21432
  Beta  occ. eigenvalues --  -10.21223 -10.20716 -10.20432 -10.20330 -10.20088
  Beta  occ. eigenvalues --  -10.19767 -10.19645 -10.19044 -10.18807 -10.18722
  Beta  occ. eigenvalues --  -10.18596 -10.18513 -10.18387 -10.18067 -10.17967
  Beta  occ. eigenvalues --  -10.17964  -7.96623  -7.96000  -5.92931  -5.92547
  Beta  occ. eigenvalues --   -5.92323  -5.92190  -5.91926  -5.91542  -1.07763
  Beta  occ. eigenvalues --   -1.07609  -1.05709  -1.05408  -1.03586  -1.03213
  Beta  occ. eigenvalues --   -0.93878  -0.93517  -0.89845  -0.89137  -0.87790
  Beta  occ. eigenvalues --   -0.83826  -0.81520  -0.78761  -0.76274  -0.75658
  Beta  occ. eigenvalues --   -0.75188  -0.74408  -0.73364  -0.72226  -0.70741
  Beta  occ. eigenvalues --   -0.69769  -0.69419  -0.67470  -0.64931  -0.63882
  Beta  occ. eigenvalues --   -0.63095  -0.62468  -0.59718  -0.58631  -0.56582
  Beta  occ. eigenvalues --   -0.55714  -0.55382  -0.54907  -0.54068  -0.52763
  Beta  occ. eigenvalues --   -0.51730  -0.49244  -0.48727  -0.48051  -0.47792
  Beta  occ. eigenvalues --   -0.47692  -0.47556  -0.47437  -0.47258  -0.46895
  Beta  occ. eigenvalues --   -0.46503  -0.45348  -0.45103  -0.44572  -0.44389
  Beta  occ. eigenvalues --   -0.43548  -0.42980  -0.42832  -0.42292  -0.41804
  Beta  occ. eigenvalues --   -0.41418  -0.41088  -0.40839  -0.40037  -0.39925
  Beta  occ. eigenvalues --   -0.39878  -0.39491  -0.39205  -0.38879  -0.38627
  Beta  occ. eigenvalues --   -0.37946  -0.37513  -0.36732  -0.36624  -0.35541
  Beta  occ. eigenvalues --   -0.34788  -0.34571  -0.33514  -0.33307  -0.32774
  Beta  occ. eigenvalues --   -0.31831  -0.29277  -0.28948  -0.28675  -0.27994
  Beta  occ. eigenvalues --   -0.27480  -0.26944  -0.26784  -0.26212  -0.25730
  Beta  occ. eigenvalues --   -0.24331  -0.23898  -0.22692  -0.18636
  Beta virt. eigenvalues --   -0.11121  -0.06252  -0.04344  -0.02506  -0.02235
  Beta virt. eigenvalues --   -0.00318   0.00399   0.00587   0.00750   0.00914
  Beta virt. eigenvalues --    0.01516   0.01860   0.02476   0.02512   0.02969

 Mulliken charges and spin densities:
               1          2
     1  C    0.361344   0.026346
     2  C   -0.114673   0.113860
     3  C    0.136486  -0.037970
     4  C    0.213111   0.098617
     5  C    0.222332   0.025493
     6  C    0.129569   0.036415
     7  C    0.074747  -0.027625
     8  C    0.363308   0.106974
     9  C    0.272543   0.086796
    10  C   -0.697990   0.021225
    11  C    0.330383   0.026987
    12  C    0.056356   0.094509
    13  C   -0.495047   0.055585
    14  C   -0.570939   0.061568
    15  H    0.143694  -0.004111
    16  H    0.144470  -0.003922
    17  H    0.145326  -0.001541
    18  N    0.029469  -0.021680
    19  N   -0.138800  -0.021973
    20  O   -0.428221   0.069969
    21  O   -0.413675   0.066963
    22  O   -0.433150   0.065107
    23  O   -0.360834   0.071627
    24  C   -0.198216   0.001567
    25  H    0.174842  -0.000598
    26  H    0.177313  -0.001192
    27  H    0.173752  -0.000434
    28  C   -0.204783   0.001243
    29  H    0.170002  -0.000846
    30  H    0.174336  -0.000984
    31  H    0.173209  -0.000318
    32  C   -0.020486  -0.028133
    33  C   -0.396529   0.065852
    34  S   -0.721710   0.005064
    35  C   -0.534317  -0.033356
    36  H    0.149580  -0.003114
    37  C    0.629239   0.057127
    38  O   -0.165070  -0.001853
    39  C    0.843869  -0.020159
    40  C   -0.240151   0.000283
    41  C    0.005453   0.029804
    42  S   -0.221975  -0.001059
    43  H    0.175651  -0.000000
    44  H    0.160411  -0.000270
    45  H    0.161310  -0.000322
    46  C   -0.538091  -0.013103
    47  O   -0.156861   0.004848
    48  C   -0.328085   0.031588
    49  H    0.159585   0.000577
    50  C   -0.251941  -0.000309
    51  H    0.187446  -0.001892
    52  H    0.160284   0.000380
    53  H    0.173380  -0.000015
    54  H    0.158744   0.000408
 Sum of Mulliken charges =  -1.00000   1.00000

 Dipole moment (field-independent basis, Debye):
    X=             15.1234    Y=             -2.5020    Z=              1.5338  Tot=             15.4056
 Quadrupole moment (field-independent basis, Debye-Ang):
   XX=           -286.9505   YY=           -248.6946   ZZ=           -232.2619
   XY=             15.3246   XZ=             19.5708   YZ=             11.3278

 Normal termination of Gaussian 16 at Thu Oct 28 10:12:09 2021.
