 Gaussian 16, Revision C.01,
 Gaussian 16:  ES64L-G16RevC.01  3-Jul-2019

 ---------------------------------------------------------------
 # opt=modredundant b3lyp/6-311+g(d,p) scrf=(pcm, solvent=water)
 ---------------------------------------------------------------

 ----------
 NDI_85.pdb
 ----------
 Symbolic Z-matrix:
 Charge = -1 Multiplicity = 2

 SCF Done:  E(UB3LYP) =  -2359.49470081     A.U. after   20 cycles
 SCF Done:  E(UB3LYP) =  -2359.50153273     A.U. after   16 cycles
 SCF Done:  E(UB3LYP) =  -2359.50289605     A.U. after   18 cycles
 SCF Done:  E(UB3LYP) =  -2359.50301023     A.U. after   17 cycles
 SCF Done:  E(UB3LYP) =  -2359.50328369     A.U. after   15 cycles
 SCF Done:  E(UB3LYP) =  -2359.50333566     A.U. after   15 cycles
 SCF Done:  E(UB3LYP) =  -2359.50335949     A.U. after   12 cycles
 SCF Done:  E(UB3LYP) =  -2359.50336745     A.U. after   11 cycles
 SCF Done:  E(UB3LYP) =  -2359.50337289     A.U. after   11 cycles
 SCF Done:  E(UB3LYP) =  -2359.50337999     A.U. after   11 cycles
 SCF Done:  E(UB3LYP) =  -2359.50338756     A.U. after    9 cycles
 SCF Done:  E(UB3LYP) =  -2359.50338808     A.U. after    9 cycles
 SCF Done:  E(UB3LYP) =  -2359.50338852     A.U. after   10 cycles
 SCF Done:  E(UB3LYP) =  -2359.50338871     A.U. after    8 cycles
 SCF Done:  E(UB3LYP) =  -2359.50338877     A.U. after    8 cycles
 SCF Done:  E(UB3LYP) =  -2359.50338885     A.U. after    7 cycles
 SCF Done:  E(UB3LYP) =  -2359.50338892     A.U. after    8 cycles
 SCF Done:  E(UB3LYP) =  -2359.50338898     A.U. after    8 cycles
 SCF Done:  E(UB3LYP) =  -2359.50338898     A.U. after    8 cycles
 SCF Done:  E(UB3LYP) =  -2359.50338897     A.U. after    8 cycles
 Optimization completed.
    -- Stationary point found.

                         Standard orientation:
 ---------------------------------------------------------------------
 Center     Atomic      Atomic             Coordinates (Angstroms)
 Number     Number       Type             X           Y           Z
 ---------------------------------------------------------------------
      1          6           0       -3.145963   -2.851291    0.357964
      2          6           0       -2.580002   -1.514017    0.243517
      3          6           0       -3.418997   -0.405869   -0.010137
      4          6           0       -4.816539   -0.573789   -0.155941
      5          6           0       -5.412374   -1.900685   -0.047008
      6          6           0       -1.199540   -1.320688    0.398809
      7          6           0       -2.835702    0.899742   -0.121108
      8          6           0       -1.429004    1.069740    0.022293
      9          6           0       -0.611120   -0.065312    0.306140
     10          6           0       -0.864950    2.408117   -0.150849
     11          6           0       -3.152722    3.345604   -0.501353
     12          6           0       -3.693764    1.999454   -0.376733
     13          6           0       -5.082600    1.802877   -0.514994
     14          6           0       -5.635960    0.543300   -0.407849
     15          1           0       -6.702592    0.395007   -0.515824
     16          1           0       -5.707248    2.665148   -0.708861
     17          1           0       -0.580260   -2.182181    0.612660
     18          7           0       -1.764939    3.466023   -0.377352
     19          7           0       -4.533577   -2.967776    0.205343
     20          8           0       -2.471925   -3.865520    0.578893
     21          8           0       -6.626428   -2.106359   -0.166488
     22          8           0       -3.856470    4.342684   -0.710222
     23          8           0        0.340773    2.670054   -0.117519
     24          6           0       -1.163649    4.797197   -0.521747
     25          1           0       -0.567609    5.031796    0.360080
     26          1           0       -0.511440    4.822412   -1.395925
     27          1           0       -1.967037    5.516898   -0.636258
     28          6           0       -5.088196   -4.321588    0.322057
     29          1           0       -4.653971   -4.969285   -0.440329
     30          1           0       -4.854716   -4.736342    1.303123
     31          1           0       -6.162787   -4.257296    0.189350
     32          6           0        0.852819   -0.000453    0.543282
     33          6           0        1.508592    0.264594    1.712878
     34         16           0        1.971672   -0.427236   -0.723511
     35          6           0        2.924028    0.154217    1.594146
     36          1           0        0.993474    0.541512    2.621318
     37          6           0        3.368188   -0.213407    0.333309
     38          8           0        3.828913    0.363716    2.592238
     39          6           0        4.725843   -0.418330   -0.114571
     40          6           0        3.335211    0.771042    3.872056
     41          6           0        5.167617   -0.798345   -1.374447
     42         16           0        6.118762   -0.198124    0.943051
     43          1           0        4.212480    0.894061    4.504087
     44          1           0        2.799336    1.721599    3.801197
     45          1           0        2.680657    0.007372    4.301274
     46          6           0        6.584364   -0.910020   -1.490930
     47          8           0        4.260335   -1.027813   -2.366040
     48          6           0        7.224066   -0.615379   -0.320861
     49          1           0        7.102212   -1.194333   -2.395438
     50          6           0        4.755890   -1.413174   -3.651631
     51          1           0        8.285098   -0.619539   -0.123595
     52          1           0        5.305357   -2.356960   -3.593653
     53          1           0        3.878659   -1.541876   -4.282530
     54          1           0        5.398249   -0.635280   -4.073904
 ---------------------------------------------------------------------

 The electronic state is 2-A.
 Alpha  occ. eigenvalues --  -88.87906 -88.87538 -19.16216 -19.16208 -19.09901
 Alpha  occ. eigenvalues --  -19.09892 -19.09721 -19.09579 -14.36733 -14.36515
 Alpha  occ. eigenvalues --  -10.28352 -10.28178 -10.28151 -10.28135 -10.23879
 Alpha  occ. eigenvalues --  -10.23813 -10.22450 -10.22427 -10.21224 -10.21036
 Alpha  occ. eigenvalues --  -10.20887 -10.20508 -10.20456 -10.20298 -10.20103
 Alpha  occ. eigenvalues --  -10.19740 -10.19652 -10.19605 -10.18947 -10.18927
 Alpha  occ. eigenvalues --  -10.18925 -10.18480 -10.18251 -10.18232 -10.18186
 Alpha  occ. eigenvalues --  -10.17651  -7.96469  -7.96100  -5.92777  -5.92421
 Alpha  occ. eigenvalues --   -5.92393  -5.92039  -5.92035  -5.91646  -1.07538
 Alpha  occ. eigenvalues --   -1.07455  -1.05841  -1.05762  -1.03779  -1.03677
 Alpha  occ. eigenvalues --   -0.93936  -0.93685  -0.89918  -0.89160  -0.87728
 Alpha  occ. eigenvalues --   -0.84185  -0.81904  -0.78701  -0.76347  -0.75885
 Alpha  occ. eigenvalues --   -0.75301  -0.74284  -0.73455  -0.72147  -0.70758
 Alpha  occ. eigenvalues --   -0.70210  -0.69327  -0.67483  -0.65139  -0.64077
 Alpha  occ. eigenvalues --   -0.63146  -0.62651  -0.59750  -0.58519  -0.56671
 Alpha  occ. eigenvalues --   -0.55665  -0.55253  -0.54984  -0.53871  -0.53062
 Alpha  occ. eigenvalues --   -0.51575  -0.49515  -0.48986  -0.48259  -0.47910
 Alpha  occ. eigenvalues --   -0.47783  -0.47660  -0.47341  -0.47228  -0.46983
 Alpha  occ. eigenvalues --   -0.46573  -0.45117  -0.45006  -0.44735  -0.44474
 Alpha  occ. eigenvalues --   -0.43992  -0.43238  -0.42868  -0.42516  -0.42144
 Alpha  occ. eigenvalues --   -0.41258  -0.40891  -0.40802  -0.40407  -0.40402
 Alpha  occ. eigenvalues --   -0.40259  -0.39841  -0.39673  -0.39139  -0.38289
 Alpha  occ. eigenvalues --   -0.38081  -0.37546  -0.37295  -0.36867  -0.35551
 Alpha  occ. eigenvalues --   -0.34838  -0.33737  -0.33616  -0.33130  -0.32881
 Alpha  occ. eigenvalues --   -0.32778  -0.30087  -0.29216  -0.28680  -0.28211
 Alpha  occ. eigenvalues --   -0.27784  -0.27450  -0.26813  -0.26604  -0.26115
 Alpha  occ. eigenvalues --   -0.24403  -0.24331  -0.24123  -0.18778  -0.15635
 Alpha virt. eigenvalues --   -0.05828  -0.04600  -0.03805  -0.02948  -0.00299
 Alpha virt. eigenvalues --   -0.00089   0.00323   0.00813   0.01009   0.01048
 Alpha virt. eigenvalues --    0.01522   0.02265   0.02388   0.02464   0.02567

  Beta  occ. eigenvalues --  -88.87906 -88.87534 -19.16215 -19.16207 -19.09704
  Beta  occ. eigenvalues --  -19.09689 -19.09531 -19.09361 -14.36789 -14.36571
  Beta  occ. eigenvalues --  -10.28290 -10.28117 -10.28098 -10.28076 -10.23878
  Beta  occ. eigenvalues --  -10.23813 -10.22450 -10.22427 -10.21224 -10.21044
  Beta  occ. eigenvalues --  -10.20883 -10.20565 -10.20354 -10.20352 -10.20102
  Beta  occ. eigenvalues --  -10.19739 -10.19604 -10.19474 -10.18791 -10.18761
  Beta  occ. eigenvalues --  -10.18757 -10.18411 -10.18232 -10.18163 -10.18102
  Beta  occ. eigenvalues --  -10.17640  -7.96469  -7.96096  -5.92777  -5.92414
  Beta  occ. eigenvalues --   -5.92393  -5.92039  -5.92029  -5.91643  -1.07537
  Beta  occ. eigenvalues --   -1.07454  -1.05586  -1.05505  -1.03433  -1.03328
  Beta  occ. eigenvalues --   -0.93814  -0.93567  -0.89803  -0.89099  -0.87693
  Beta  occ. eigenvalues --   -0.83861  -0.81593  -0.78570  -0.76240  -0.75509
  Beta  occ. eigenvalues --   -0.75168  -0.74265  -0.73383  -0.72109  -0.70716
  Beta  occ. eigenvalues --   -0.69876  -0.69205  -0.67386  -0.64985  -0.63873
  Beta  occ. eigenvalues --   -0.63060  -0.62459  -0.59713  -0.58466  -0.56586
  Beta  occ. eigenvalues --   -0.55531  -0.55248  -0.54874  -0.53866  -0.52913
  Beta  occ. eigenvalues --   -0.51452  -0.49348  -0.48918  -0.47978  -0.47723
  Beta  occ. eigenvalues --   -0.47659  -0.47628  -0.47336  -0.47159  -0.46863
  Beta  occ. eigenvalues --   -0.46535  -0.45061  -0.44856  -0.44711  -0.44363
  Beta  occ. eigenvalues --   -0.43886  -0.43064  -0.42691  -0.42357  -0.41886
  Beta  occ. eigenvalues --   -0.41209  -0.40873  -0.40718  -0.40159  -0.39953
  Beta  occ. eigenvalues --   -0.39805  -0.39484  -0.39096  -0.38770  -0.38146
  Beta  occ. eigenvalues --   -0.38063  -0.37341  -0.37016  -0.36794  -0.35542
  Beta  occ. eigenvalues --   -0.34752  -0.33638  -0.33409  -0.33082  -0.32866
  Beta  occ. eigenvalues --   -0.32121  -0.29084  -0.28998  -0.28530  -0.27648
  Beta  occ. eigenvalues --   -0.27528  -0.27117  -0.26611  -0.25951  -0.25934
  Beta  occ. eigenvalues --   -0.24358  -0.24101  -0.22773  -0.18761
  Beta virt. eigenvalues --   -0.11019  -0.04774  -0.04447  -0.03001  -0.02267
  Beta virt. eigenvalues --   -0.00282  -0.00079   0.00333   0.00820   0.01020
  Beta virt. eigenvalues --    0.01063   0.01529   0.02360   0.02509   0.02835

 Mulliken charges and spin densities:
               1          2
     1  C    0.447007   0.025743
     2  C   -0.006190   0.123360
     3  C    0.205187  -0.039327
     4  C    0.173599   0.110615
     5  C    0.282556   0.026615
     6  C   -0.601634   0.057384
     7  C    0.200672  -0.035978
     8  C   -0.022070   0.132268
     9  C    0.541693   0.072590
    10  C   -0.402570   0.025527
    11  C    0.228146   0.026096
    12  C    0.183471   0.112397
    13  C   -0.559417   0.059548
    14  C   -0.653402   0.066256
    15  H    0.144365  -0.004665
    16  H    0.144814  -0.004339
    17  H    0.139248  -0.003619
    18  N   -0.152476  -0.022929
    19  N   -0.139327  -0.023522
    20  O   -0.428762   0.075418
    21  O   -0.419321   0.073284
    22  O   -0.420954   0.070996
    23  O   -0.264724   0.081481
    24  C   -0.224858   0.001339
    25  H    0.171676  -0.000916
    26  H    0.174068  -0.001067
    27  H    0.174815  -0.000347
    28  C   -0.208620   0.001415
    29  H    0.171828  -0.001005
    30  H    0.171910  -0.001000
    31  H    0.173988  -0.000348
    32  C    0.090158  -0.027783
    33  C   -0.532788   0.008108
    34  S   -0.143142   0.006950
    35  C   -0.153547   0.001493
    36  H    0.140446  -0.000360
    37  C    0.278022   0.008896
    38  O   -0.175579  -0.000030
    39  C    0.728039  -0.000794
    40  C   -0.234227   0.000329
    41  C    0.040006  -0.000432
    42  S   -0.254236   0.000220
    43  H    0.173838  -0.000012
    44  H    0.163226   0.000020
    45  H    0.160442  -0.000020
    46  C   -0.538663  -0.001043
    47  O   -0.178386   0.000501
    48  C   -0.372508   0.000572
    49  H    0.158382   0.000012
    50  C   -0.246898   0.000108
    51  H    0.185271  -0.000031
    52  H    0.157355   0.000002
    53  H    0.171803   0.000010
    54  H    0.158269   0.000011
 Sum of Mulliken charges =  -1.00000   1.00000

 Dipole moment (field-independent basis, Debye):
    X=             14.0233    Y=             -1.0203    Z=              0.6130  Tot=             14.0738
 Quadrupole moment (field-independent basis, Debye-Ang):
   XX=           -299.9859   YY=           -273.0641   ZZ=           -200.6725
   XY=             -2.9881   XZ=            -15.6759   YZ=             15.3852

 Normal termination of Gaussian 16 at Thu Oct 28 08:11:23 2021.
