 Gaussian 16, Revision C.01,
 Gaussian 16:  ES64L-G16RevC.01  3-Jul-2019

 ---------------------------------------------------------------
 # opt=modredundant b3lyp/6-311+g(d,p) scrf=(pcm, solvent=water)
 ---------------------------------------------------------------

 ------------
 NDI_-150.pdb
 ------------
 Symbolic Z-matrix:
 Charge = -1 Multiplicity = 2

 SCF Done:  E(UB3LYP) =  -2359.47399910     A.U. after   21 cycles
 SCF Done:  E(UB3LYP) =  -2359.48695807     A.U. after   21 cycles
 SCF Done:  E(UB3LYP) =  -2359.49514457     A.U. after   20 cycles
 SCF Done:  E(UB3LYP) =  -2359.49831452     A.U. after   17 cycles
 SCF Done:  E(UB3LYP) =  -2359.49901043     A.U. after   17 cycles
 SCF Done:  E(UB3LYP) =  -2359.49934900     A.U. after   19 cycles
 SCF Done:  E(UB3LYP) =  -2359.49975848     A.U. after   16 cycles
 SCF Done:  E(UB3LYP) =  -2359.50016186     A.U. after   20 cycles
 SCF Done:  E(UB3LYP) =  -2359.50105491     A.U. after   19 cycles
 SCF Done:  E(UB3LYP) =  -2359.50187327     A.U. after   16 cycles
 SCF Done:  E(UB3LYP) =  -2359.50283303     A.U. after   15 cycles
 SCF Done:  E(UB3LYP) =  -2359.50283947     A.U. after   14 cycles
 SCF Done:  E(UB3LYP) =  -2359.50284351     A.U. after   13 cycles
 SCF Done:  E(UB3LYP) =  -2359.50284604     A.U. after   13 cycles
 SCF Done:  E(UB3LYP) =  -2359.50284710     A.U. after   12 cycles
 SCF Done:  E(UB3LYP) =  -2359.50284720     A.U. after   10 cycles
 SCF Done:  E(UB3LYP) =  -2359.50284724     A.U. after   10 cycles
 SCF Done:  E(UB3LYP) =  -2359.50284728     A.U. after   10 cycles
 SCF Done:  E(UB3LYP) =  -2359.50284732     A.U. after    9 cycles
 SCF Done:  E(UB3LYP) =  -2359.50284737     A.U. after    9 cycles
 Optimization completed.
    -- Stationary point found.

                         Standard orientation:
 ---------------------------------------------------------------------
 Center     Atomic      Atomic             Coordinates (Angstroms)
 Number     Number       Type             X           Y           Z
 ---------------------------------------------------------------------
      1          6           0       -3.501177   -2.684828    0.342597
      2          6           0       -2.767260   -1.461746    0.043533
      3          6           0       -3.416627   -0.207421    0.122281
      4          6           0       -4.776434   -0.115153    0.494842
      5          6           0       -5.535425   -1.322772    0.805210
      6          6           0       -1.401226   -1.522316   -0.253813
      7          6           0       -2.673607    0.976637   -0.194052
      8          6           0       -1.305943    0.883575   -0.579168
      9          6           0       -0.643044   -0.386669   -0.542061
     10          6           0       -0.680643    2.073303   -1.150947
     11          6           0       -2.642058    3.454294   -0.474237
     12          6           0       -3.342870    2.225032   -0.129547
     13          6           0       -4.696619    2.289536    0.257345
     14          6           0       -5.403197    1.144595    0.564349
     15          1           0       -6.444528    1.195741    0.854421
     16          1           0       -5.172228    3.260864    0.301479
     17          1           0       -0.913919   -2.486204   -0.194982
     18          7           0       -1.340131    3.303146   -0.959227
     19          7           0       -4.848067   -2.544035    0.702155
     20          8           0       -3.000864   -3.815436    0.294681
     21          8           0       -6.725213   -1.302678    1.141716
     22          8           0       -3.152493    4.578625   -0.380684
     23          8           0        0.367452    2.067538   -1.804368
     24          6           0       -0.635085    4.500885   -1.430404
     25          1           0        0.410344    4.441867   -1.135248
     26          1           0       -0.685562    4.576718   -2.519271
     27          1           0       -1.110077    5.369466   -0.985939
     28          6           0       -5.573726   -3.784917    0.998819
     29          1           0       -5.527884   -4.455082    0.140263
     30          1           0       -5.121839   -4.287347    1.855209
     31          1           0       -6.603924   -3.527521    1.220179
     32          6           0        0.812385   -0.583393   -0.624979
     33          6           0        1.462912   -1.676394   -1.154188
     34         16           0        1.933023    0.416586    0.271214
     35          6           0        2.853997   -1.693854   -0.880785
     36          1           0        0.954628   -2.429903   -1.738245
     37          6           0        3.297565   -0.632157   -0.102287
     38          8           0        3.745428   -2.630494   -1.311112
     39          6           0        4.639525   -0.354413    0.345979
     40          6           0        3.250892   -3.713461   -2.105005
     41          6           0        5.080087    0.692535    1.146693
     42         16           0        6.014993   -1.372176   -0.081128
     43          1           0        4.115607   -4.332505   -2.335481
     44          1           0        2.516726   -4.303417   -1.549343
     45          1           0        2.805769   -3.346796   -3.034111
     46          6           0        6.481070    0.681333    1.408271
     47          8           0        4.186064    1.610770    1.606975
     48          6           0        7.109879   -0.373424    0.810113
     49          1           0        6.995955    1.416037    2.010017
     50          6           0        4.681524    2.684100    2.413721
     51          1           0        8.158522   -0.626614    0.842261
     52          1           0        5.405662    3.288157    1.860141
     53          1           0        3.814966    3.292923    2.663379
     54          1           0        5.138550    2.305232    3.332052
 ---------------------------------------------------------------------

 The electronic state is 2-A.
 Alpha  occ. eigenvalues --  -88.88014 -88.87450 -19.16368 -19.16281 -19.09960
 Alpha  occ. eigenvalues --  -19.09922 -19.09660 -19.09549 -14.36742 -14.36424
 Alpha  occ. eigenvalues --  -10.28403 -10.28209 -10.28091 -10.28046 -10.24105
 Alpha  occ. eigenvalues --  -10.23907 -10.22508 -10.22465 -10.21345 -10.21240
 Alpha  occ. eigenvalues --  -10.21210 -10.20567 -10.20421 -10.20274 -10.20155
 Alpha  occ. eigenvalues --  -10.19748 -10.19650 -10.19307 -10.18952 -10.18903
 Alpha  occ. eigenvalues --  -10.18818 -10.18529 -10.18323 -10.18191 -10.18118
 Alpha  occ. eigenvalues --  -10.17953  -7.96576  -7.96019  -5.92884  -5.92500
 Alpha  occ. eigenvalues --   -5.92343  -5.92146  -5.91956  -5.91558  -1.07706
 Alpha  occ. eigenvalues --   -1.07567  -1.05881  -1.05690  -1.03831  -1.03600
 Alpha  occ. eigenvalues --   -0.93947  -0.93651  -0.89962  -0.89216  -0.87828
 Alpha  occ. eigenvalues --   -0.84161  -0.81844  -0.78872  -0.76361  -0.75935
 Alpha  occ. eigenvalues --   -0.75342  -0.74404  -0.73431  -0.72290  -0.70781
 Alpha  occ. eigenvalues --   -0.70043  -0.69512  -0.67565  -0.65088  -0.64060
 Alpha  occ. eigenvalues --   -0.63187  -0.62619  -0.59795  -0.58626  -0.56663
 Alpha  occ. eigenvalues --   -0.55755  -0.55372  -0.55006  -0.54006  -0.52916
 Alpha  occ. eigenvalues --   -0.51748  -0.49424  -0.48903  -0.48288  -0.47901
 Alpha  occ. eigenvalues --   -0.47796  -0.47678  -0.47416  -0.47322  -0.46993
 Alpha  occ. eigenvalues --   -0.46563  -0.45243  -0.45137  -0.44664  -0.44541
 Alpha  occ. eigenvalues --   -0.43762  -0.43181  -0.43015  -0.42494  -0.42053
 Alpha  occ. eigenvalues --   -0.41392  -0.41065  -0.40861  -0.40503  -0.40333
 Alpha  occ. eigenvalues --   -0.40102  -0.39889  -0.39581  -0.39194  -0.38639
 Alpha  occ. eigenvalues --   -0.38069  -0.37603  -0.37100  -0.36828  -0.35609
 Alpha  occ. eigenvalues --   -0.34917  -0.34561  -0.33570  -0.33251  -0.33026
 Alpha  occ. eigenvalues --   -0.32378  -0.29999  -0.29322  -0.28947  -0.28154
 Alpha  occ. eigenvalues --   -0.27951  -0.27317  -0.26911  -0.26360  -0.26263
 Alpha  occ. eigenvalues --   -0.24613  -0.24293  -0.23845  -0.18999  -0.15432
 Alpha virt. eigenvalues --   -0.06360  -0.05258  -0.03280  -0.02661  -0.00310
 Alpha virt. eigenvalues --    0.00140   0.00393   0.00662   0.00809   0.01423
 Alpha virt. eigenvalues --    0.01755   0.02311   0.02367   0.02546   0.02577

  Beta  occ. eigenvalues --  -88.88013 -88.87445 -19.16356 -19.16287 -19.09771
  Beta  occ. eigenvalues --  -19.09726 -19.09481 -19.09355 -14.36796 -14.36476
  Beta  occ. eigenvalues --  -10.28343 -10.28150 -10.28035 -10.27991 -10.24079
  Beta  occ. eigenvalues --  -10.23930 -10.22509 -10.22465 -10.21360 -10.21249
  Beta  occ. eigenvalues --  -10.21186 -10.20471 -10.20454 -10.20249 -10.20211
  Beta  occ. eigenvalues --  -10.19747 -10.19649 -10.19146 -10.18803 -10.18737
  Beta  occ. eigenvalues --  -10.18664 -10.18467 -10.18332 -10.18112 -10.18035
  Beta  occ. eigenvalues --  -10.17903  -7.96575  -7.96015  -5.92884  -5.92500
  Beta  occ. eigenvalues --   -5.92336  -5.92144  -5.91951  -5.91549  -1.07685
  Beta  occ. eigenvalues --   -1.07577  -1.05635  -1.05452  -1.03498  -1.03278
  Beta  occ. eigenvalues --   -0.93831  -0.93543  -0.89860  -0.89132  -0.87783
  Beta  occ. eigenvalues --   -0.83848  -0.81548  -0.78732  -0.76257  -0.75615
  Beta  occ. eigenvalues --   -0.75177  -0.74362  -0.73362  -0.72219  -0.70739
  Beta  occ. eigenvalues --   -0.69761  -0.69370  -0.67454  -0.64936  -0.63871
  Beta  occ. eigenvalues --   -0.63075  -0.62463  -0.59734  -0.58565  -0.56586
  Beta  occ. eigenvalues --   -0.55626  -0.55351  -0.54890  -0.53990  -0.52785
  Beta  occ. eigenvalues --   -0.51633  -0.49255  -0.48843  -0.48014  -0.47762
  Beta  occ. eigenvalues --   -0.47685  -0.47596  -0.47406  -0.47241  -0.46875
  Beta  occ. eigenvalues --   -0.46514  -0.45179  -0.45069  -0.44525  -0.44474
  Beta  occ. eigenvalues --   -0.43657  -0.43016  -0.42817  -0.42355  -0.41820
  Beta  occ. eigenvalues --   -0.41339  -0.40999  -0.40791  -0.40142  -0.39929
  Beta  occ. eigenvalues --   -0.39861  -0.39429  -0.39138  -0.38805  -0.38495
  Beta  occ. eigenvalues --   -0.37953  -0.37406  -0.36864  -0.36752  -0.35593
  Beta  occ. eigenvalues --   -0.34805  -0.34282  -0.33463  -0.33211  -0.33014
  Beta  occ. eigenvalues --   -0.31836  -0.29209  -0.28935  -0.28633  -0.27883
  Beta  occ. eigenvalues --   -0.27474  -0.27028  -0.26707  -0.26145  -0.25763
  Beta  occ. eigenvalues --   -0.24430  -0.23939  -0.22718  -0.18702
  Beta virt. eigenvalues --   -0.11106  -0.05745  -0.04393  -0.02532  -0.02256
  Beta virt. eigenvalues --   -0.00294   0.00287   0.00418   0.00673   0.00851
  Beta virt. eigenvalues --    0.01432   0.01779   0.02351   0.02562   0.02907

 Mulliken charges and spin densities:
               1          2
     1  C    0.388209   0.027425
     2  C   -0.110532   0.116250
     3  C    0.120529  -0.038845
     4  C    0.213655   0.102942
     5  C    0.249838   0.025628
     6  C   -0.168726   0.047684
     7  C    0.148041  -0.032049
     8  C    0.152799   0.120947
     9  C    0.268531   0.075554
    10  C   -0.501614   0.023230
    11  C    0.337571   0.026454
    12  C    0.038773   0.102101
    13  C   -0.499751   0.058959
    14  C   -0.570683   0.062481
    15  H    0.144182  -0.004356
    16  H    0.144427  -0.004120
    17  H    0.146022  -0.002590
    18  N   -0.014153  -0.021934
    19  N   -0.136238  -0.022877
    20  O   -0.430857   0.073099
    21  O   -0.417231   0.069955
    22  O   -0.430233   0.066811
    23  O   -0.365629   0.073339
    24  C   -0.196549   0.001425
    25  H    0.174060  -0.000570
    26  H    0.177976  -0.001185
    27  H    0.174516  -0.000419
    28  C   -0.204452   0.001291
    29  H    0.170537  -0.000915
    30  H    0.173703  -0.001008
    31  H    0.174203  -0.000332
    32  C    0.128234  -0.015372
    33  C   -0.646349   0.036520
    34  S   -0.680451   0.009725
    35  C   -0.117157  -0.016473
    36  H    0.157003  -0.001698
    37  C    0.625547   0.026296
    38  O   -0.169103  -0.001060
    39  C    0.834519  -0.010803
    40  C   -0.236384   0.000185
    41  C    0.007551   0.017081
    42  S   -0.229481  -0.000447
    43  H    0.174713   0.000001
    44  H    0.162893  -0.000150
    45  H    0.160893  -0.000173
    46  C   -0.616071  -0.007159
    47  O   -0.165276   0.002404
    48  C   -0.326918   0.017247
    49  H    0.159276   0.000317
    50  C   -0.251693  -0.000218
    51  H    0.186852  -0.001033
    52  H    0.159302   0.000190
    53  H    0.172902  -0.000008
    54  H    0.158271   0.000254
 Sum of Mulliken charges =  -1.00000   1.00000

 Dipole moment (field-independent basis, Debye):
    X=             14.7397    Y=             -1.9798    Z=              1.3244  Tot=             14.9310
 Quadrupole moment (field-independent basis, Debye-Ang):
   XX=           -291.1267   YY=           -254.2716   ZZ=           -224.2580
   XY=             12.5731   XZ=             20.1602   YZ=             20.6291

 Normal termination of Gaussian 16 at Thu Oct 28 12:03:40 2021.
