 Gaussian 16, Revision C.01,
 Gaussian 16:  ES64L-G16RevC.01  3-Jul-2019

 ---------------------------------------------------------------
 # opt=modredundant b3lyp/6-311+g(d,p) scrf=(pcm, solvent=water)
 ---------------------------------------------------------------

 -----------
 NDI_-75.pdb
 -----------
 Symbolic Z-matrix:
 Charge = -1 Multiplicity = 2

 SCF Done:  E(UB3LYP) =  -2359.49647689     A.U. after   22 cycles
 SCF Done:  E(UB3LYP) =  -2359.50252771     A.U. after   18 cycles
 SCF Done:  E(UB3LYP) =  -2359.50329829     A.U. after   17 cycles
 SCF Done:  E(UB3LYP) =  -2359.50326008     A.U. after   16 cycles
 SCF Done:  E(UB3LYP) =  -2359.50345477     A.U. after   13 cycles
 SCF Done:  E(UB3LYP) =  -2359.50346995     A.U. after   13 cycles
 SCF Done:  E(UB3LYP) =  -2359.50348355     A.U. after   14 cycles
 SCF Done:  E(UB3LYP) =  -2359.50349030     A.U. after   13 cycles
 SCF Done:  E(UB3LYP) =  -2359.50349670     A.U. after   11 cycles
 SCF Done:  E(UB3LYP) =  -2359.50350582     A.U. after   11 cycles
 SCF Done:  E(UB3LYP) =  -2359.50352380     A.U. after   10 cycles
 SCF Done:  E(UB3LYP) =  -2359.50352409     A.U. after    9 cycles
 SCF Done:  E(UB3LYP) =  -2359.50352413     A.U. after    8 cycles
 SCF Done:  E(UB3LYP) =  -2359.50352427     A.U. after    9 cycles
 SCF Done:  E(UB3LYP) =  -2359.50352433     A.U. after    9 cycles
 SCF Done:  E(UB3LYP) =  -2359.50352432     A.U. after    8 cycles
 SCF Done:  E(UB3LYP) =  -2359.50352432     A.U. after    8 cycles
 SCF Done:  E(UB3LYP) =  -2359.50352430     A.U. after    8 cycles
 SCF Done:  E(UB3LYP) =  -2359.50352438     A.U. after    8 cycles
 SCF Done:  E(UB3LYP) =  -2359.50352442     A.U. after    8 cycles
 Optimization completed.
    -- Stationary point found.

                         Standard orientation:
 ---------------------------------------------------------------------
 Center     Atomic      Atomic             Coordinates (Angstroms)
 Number     Number       Type             X           Y           Z
 ---------------------------------------------------------------------
      1          6           0        3.062734   -2.860612    0.494951
      2          6           0        2.533804   -1.517575    0.299263
      3          6           0        3.408566   -0.442069    0.025081
      4          6           0        4.805999   -0.647612   -0.059107
      5          6           0        5.365427   -1.980321    0.137680
      6          6           0        1.155394   -1.283690    0.408548
      7          6           0        2.861055    0.868479   -0.173775
      8          6           0        1.454274    1.075596   -0.096207
      9          6           0        0.601808   -0.019720    0.239536
     10          6           0        0.926064    2.401448   -0.417216
     11          6           0        3.248386    3.283237   -0.666737
     12          6           0        3.753543    1.934463   -0.452602
     13          6           0        5.141490    1.701197   -0.527615
     14          6           0        5.660527    0.437041   -0.335763
     15          1           0        6.726512    0.260185   -0.396618
     16          1           0        5.792694    2.538703   -0.741970
     17          1           0        0.511664   -2.115931    0.662680
     18          7           0        1.858888    3.435013   -0.625360
     19          7           0        4.452303   -3.014217    0.405432
     20          8           0        2.356587   -3.848941    0.732117
     21          8           0        6.577903   -2.218401    0.076730
     22          8           0        3.982616    4.255976   -0.885154
     23          8           0       -0.273327    2.671018   -0.527343
     24          6           0        1.296288    4.765754   -0.883969
     25          1           0        0.785634    4.782478   -1.848650
     26          1           0        0.574979    5.015133   -0.107021
     27          1           0        2.112679    5.480098   -0.887925
     28          6           0        4.969655   -4.372538    0.608686
     29          1           0        4.665374   -4.742700    1.587944
     30          1           0        4.571272   -5.042518   -0.154351
     31          1           0        6.051581   -4.333950    0.541797
     32          6           0       -0.856501    0.107984    0.470621
     33          6           0       -1.501175    0.626447    1.559717
     34         16           0       -1.989380   -0.575660   -0.664490
     35          6           0       -2.916714    0.500126    1.479961
     36          1           0       -0.976917    1.089943    2.382797
     37          6           0       -3.374786   -0.129241    0.331755
     38          8           0       -3.811464    0.924194    2.416997
     39          6           0       -4.737536   -0.410816   -0.053365
     40          6           0       -3.305232    1.606899    3.568273
     41          6           0       -5.192615   -1.048105   -1.199689
     42         16           0       -6.120454    0.049005    0.938478
     43          1           0       -4.176067    1.868121    4.166249
     44          1           0       -2.644499    0.958180    4.149978
     45          1           0       -2.772009    2.517366    3.281101
     46          6           0       -6.611140   -1.165374   -1.282565
     47          8           0       -4.295165   -1.495687   -2.123213
     48          6           0       -7.239134   -0.617839   -0.200440
     49          1           0       -7.138237   -1.631881   -2.102111
     50          6           0       -4.804434   -2.142437   -3.293452
     51          1           0       -8.298657   -0.567005   -0.001592
     52          1           0       -5.443349   -1.466439   -3.868596
     53          1           0       -3.933498   -2.412414   -3.887313
     54          1           0       -5.361836   -3.046051   -3.031191
 ---------------------------------------------------------------------

 The electronic state is 2-A.
 Alpha  occ. eigenvalues --  -88.87920 -88.87606 -19.16237 -19.16220 -19.09900
 Alpha  occ. eigenvalues --  -19.09887 -19.09708 -19.09579 -14.36726 -14.36495
 Alpha  occ. eigenvalues --  -10.28349 -10.28172 -10.28155 -10.28114 -10.23901
 Alpha  occ. eigenvalues --  -10.23840 -10.22457 -10.22432 -10.21242 -10.21034
 Alpha  occ. eigenvalues --  -10.20934 -10.20488 -10.20470 -10.20276 -10.20122
 Alpha  occ. eigenvalues --  -10.19736 -10.19614 -10.19604 -10.18943 -10.18923
 Alpha  occ. eigenvalues --  -10.18901 -10.18490 -10.18243 -10.18237 -10.18174
 Alpha  occ. eigenvalues --  -10.17656  -7.96483  -7.96168  -5.92791  -5.92487
 Alpha  occ. eigenvalues --   -5.92407  -5.92102  -5.92053  -5.91716  -1.07559
 Alpha  occ. eigenvalues --   -1.07474  -1.05837  -1.05747  -1.03776  -1.03663
 Alpha  occ. eigenvalues --   -0.93929  -0.93675  -0.89931  -0.89170  -0.87754
 Alpha  occ. eigenvalues --   -0.84180  -0.81892  -0.78713  -0.76377  -0.75870
 Alpha  occ. eigenvalues --   -0.75306  -0.74309  -0.73448  -0.72165  -0.70751
 Alpha  occ. eigenvalues --   -0.70235  -0.69323  -0.67492  -0.65133  -0.64064
 Alpha  occ. eigenvalues --   -0.63161  -0.62633  -0.59764  -0.58533  -0.56663
 Alpha  occ. eigenvalues --   -0.55656  -0.55269  -0.54994  -0.53890  -0.53084
 Alpha  occ. eigenvalues --   -0.51559  -0.49514  -0.48993  -0.48249  -0.47902
 Alpha  occ. eigenvalues --   -0.47777  -0.47675  -0.47352  -0.47223  -0.46987
 Alpha  occ. eigenvalues --   -0.46567  -0.45137  -0.45010  -0.44717  -0.44461
 Alpha  occ. eigenvalues --   -0.43994  -0.43224  -0.42867  -0.42491  -0.42138
 Alpha  occ. eigenvalues --   -0.41277  -0.40927  -0.40819  -0.40415  -0.40389
 Alpha  occ. eigenvalues --   -0.40240  -0.39865  -0.39622  -0.39133  -0.38359
 Alpha  occ. eigenvalues --   -0.38098  -0.37590  -0.37250  -0.36863  -0.35581
 Alpha  occ. eigenvalues --   -0.34850  -0.33848  -0.33568  -0.33168  -0.32892
 Alpha  occ. eigenvalues --   -0.32773  -0.30078  -0.29246  -0.28715  -0.28172
 Alpha  occ. eigenvalues --   -0.27839  -0.27417  -0.26825  -0.26547  -0.26134
 Alpha  occ. eigenvalues --   -0.24439  -0.24248  -0.24154  -0.18814  -0.15599
 Alpha virt. eigenvalues --   -0.05869  -0.04712  -0.03707  -0.02914  -0.00289
 Alpha virt. eigenvalues --   -0.00063   0.00335   0.00816   0.00940   0.01095
 Alpha virt. eigenvalues --    0.01564   0.02265   0.02411   0.02443   0.02571

  Beta  occ. eigenvalues --  -88.87919 -88.87603 -19.16235 -19.16220 -19.09704
  Beta  occ. eigenvalues --  -19.09685 -19.09520 -19.09365 -14.36782 -14.36550
  Beta  occ. eigenvalues --  -10.28287 -10.28112 -10.28101 -10.28056 -10.23896
  Beta  occ. eigenvalues --  -10.23844 -10.22457 -10.22432 -10.21245 -10.21047
  Beta  occ. eigenvalues --  -10.20922 -10.20544 -10.20369 -10.20330 -10.20118
  Beta  occ. eigenvalues --  -10.19735 -10.19614 -10.19428 -10.18787 -10.18753
  Beta  occ. eigenvalues --  -10.18738 -10.18420 -10.18244 -10.18150 -10.18090
  Beta  occ. eigenvalues --  -10.17640  -7.96482  -7.96164  -5.92790  -5.92482
  Beta  occ. eigenvalues --   -5.92407  -5.92097  -5.92052  -5.91713  -1.07557
  Beta  occ. eigenvalues --   -1.07474  -1.05584  -1.05494  -1.03431  -1.03318
  Beta  occ. eigenvalues --   -0.93808  -0.93559  -0.89820  -0.89104  -0.87718
  Beta  occ. eigenvalues --   -0.83858  -0.81583  -0.78582  -0.76268  -0.75498
  Beta  occ. eigenvalues --   -0.75173  -0.74290  -0.73376  -0.72125  -0.70709
  Beta  occ. eigenvalues --   -0.69909  -0.69194  -0.67392  -0.64979  -0.63861
  Beta  occ. eigenvalues --   -0.63078  -0.62437  -0.59727  -0.58480  -0.56577
  Beta  occ. eigenvalues --   -0.55525  -0.55262  -0.54884  -0.53884  -0.52934
  Beta  occ. eigenvalues --   -0.51438  -0.49352  -0.48920  -0.47970  -0.47724
  Beta  occ. eigenvalues --   -0.47666  -0.47624  -0.47347  -0.47156  -0.46866
  Beta  occ. eigenvalues --   -0.46527  -0.45083  -0.44877  -0.44675  -0.44345
  Beta  occ. eigenvalues --   -0.43892  -0.43048  -0.42692  -0.42332  -0.41886
  Beta  occ. eigenvalues --   -0.41224  -0.40896  -0.40736  -0.40171  -0.39946
  Beta  occ. eigenvalues --   -0.39811  -0.39469  -0.39088  -0.38741  -0.38225
  Beta  occ. eigenvalues --   -0.38066  -0.37395  -0.36959  -0.36799  -0.35571
  Beta  occ. eigenvalues --   -0.34761  -0.33707  -0.33414  -0.33111  -0.32879
  Beta  occ. eigenvalues --   -0.32131  -0.29146  -0.28962  -0.28533  -0.27680
  Beta  occ. eigenvalues --   -0.27516  -0.27088  -0.26614  -0.25972  -0.25918
  Beta  occ. eigenvalues --   -0.24340  -0.24111  -0.22756  -0.18756
  Beta virt. eigenvalues --   -0.11028  -0.04948  -0.04361  -0.02951  -0.02263
  Beta virt. eigenvalues --   -0.00272  -0.00032   0.00347   0.00824   0.00950
  Beta virt. eigenvalues --    0.01121   0.01573   0.02369   0.02490   0.02815

 Mulliken charges and spin densities:
               1          2
     1  C    0.450328   0.026178
     2  C   -0.070917   0.121406
     3  C    0.165973  -0.038569
     4  C    0.173250   0.109055
     5  C    0.276792   0.026734
     6  C   -0.548127   0.059966
     7  C    0.195373  -0.035543
     8  C    0.066329   0.129419
     9  C    0.525603   0.068649
    10  C   -0.422277   0.027374
    11  C    0.239884   0.025807
    12  C    0.149611   0.110353
    13  C   -0.529121   0.060986
    14  C   -0.642470   0.066509
    15  H    0.144229  -0.004636
    16  H    0.144662  -0.004316
    17  H    0.142478  -0.003532
    18  N   -0.133212  -0.022757
    19  N   -0.138836  -0.023529
    20  O   -0.429691   0.075236
    21  O   -0.419482   0.072973
    22  O   -0.423794   0.070501
    23  O   -0.272736   0.079508
    24  C   -0.217726   0.001351
    25  H    0.176009  -0.001137
    26  H    0.171778  -0.000806
    27  H    0.174570  -0.000363
    28  C   -0.208462   0.001354
    29  H    0.171479  -0.000972
    30  H    0.172381  -0.001025
    31  H    0.173940  -0.000346
    32  C    0.117787  -0.027075
    33  C   -0.542660   0.011188
    34  S   -0.268393   0.006615
    35  C   -0.185858  -0.001611
    36  H    0.142688  -0.000736
    37  C    0.402652   0.014367
    38  O   -0.174335  -0.000204
    39  C    0.724126  -0.002691
    40  C   -0.234111   0.000379
    41  C    0.015611   0.001911
    42  S   -0.251197   0.000193
    43  H    0.173713  -0.000011
    44  H    0.160042  -0.000030
    45  H    0.163362  -0.000016
    46  C   -0.548418  -0.001901
    47  O   -0.173379   0.000937
    48  C   -0.362692   0.002821
    49  H    0.158514   0.000055
    50  C   -0.248456   0.000068
    51  H    0.185451  -0.000167
    52  H    0.158411   0.000039
    53  H    0.171888   0.000012
    54  H    0.157436   0.000026
 Sum of Mulliken charges =  -1.00000   1.00000

 Dipole moment (field-independent basis, Debye):
    X=            -14.1609    Y=             -0.7756    Z=              0.8944  Tot=             14.2103
 Quadrupole moment (field-independent basis, Debye-Ang):
   XX=           -299.8276   YY=           -267.2412   ZZ=           -206.4676
   XY=              5.2286   XZ=             13.1414   YZ=             22.7676

 Normal termination of Gaussian 16 at Thu Oct 28 08:14:50 2021.
