 Gaussian 16, Revision C.01,
 Gaussian 16:  ES64L-G16RevC.01  3-Jul-2019

 ---------------------------------------------------------------
 # opt=modredundant b3lyp/6-311+g(d,p) scrf=(pcm, solvent=water)
 ---------------------------------------------------------------

 -----------
 NDI_-35.pdb
 -----------
 Symbolic Z-matrix:
 Charge = -1 Multiplicity = 2

 SCF Done:  E(UB3LYP) =  -2359.49673599     A.U. after   22 cycles
 SCF Done:  E(UB3LYP) =  -2359.50114183     A.U. after   18 cycles
 SCF Done:  E(UB3LYP) =  -2359.50185302     A.U. after   20 cycles
 SCF Done:  E(UB3LYP) =  -2359.50289691     A.U. after   17 cycles
 SCF Done:  E(UB3LYP) =  -2359.50310559     A.U. after   16 cycles
 SCF Done:  E(UB3LYP) =  -2359.50322293     A.U. after   16 cycles
 SCF Done:  E(UB3LYP) =  -2359.50325300     A.U. after   15 cycles
 SCF Done:  E(UB3LYP) =  -2359.50327338     A.U. after   14 cycles
 SCF Done:  E(UB3LYP) =  -2359.50328821     A.U. after   14 cycles
 SCF Done:  E(UB3LYP) =  -2359.50329912     A.U. after   12 cycles
 SCF Done:  E(UB3LYP) =  -2359.50334607     A.U. after   13 cycles
 SCF Done:  E(UB3LYP) =  -2359.50334707     A.U. after   14 cycles
 SCF Done:  E(UB3LYP) =  -2359.50334753     A.U. after   13 cycles
 SCF Done:  E(UB3LYP) =  -2359.50335117     A.U. after   12 cycles
 SCF Done:  E(UB3LYP) =  -2359.50335196     A.U. after   10 cycles
 SCF Done:  E(UB3LYP) =  -2359.50335219     A.U. after   10 cycles
 SCF Done:  E(UB3LYP) =  -2359.50335227     A.U. after    8 cycles
 SCF Done:  E(UB3LYP) =  -2359.50335237     A.U. after    9 cycles
 SCF Done:  E(UB3LYP) =  -2359.50335244     A.U. after    9 cycles
 SCF Done:  E(UB3LYP) =  -2359.50335249     A.U. after    9 cycles
 Optimization completed.
    -- Stationary point found.

                         Standard orientation:
 ---------------------------------------------------------------------
 Center     Atomic      Atomic             Coordinates (Angstroms)
 Number     Number       Type             X           Y           Z
 ---------------------------------------------------------------------
      1          6           0        2.760808   -2.975024    0.348049
      2          6           0        2.367966   -1.584990    0.154638
      3          6           0        3.352126   -0.572635    0.071605
      4          6           0        4.725311   -0.886497    0.181623
      5          6           0        5.148963   -2.269432    0.380269
      6          6           0        1.012977   -1.242664    0.119307
      7          6           0        2.933697    0.783142   -0.135549
      8          6           0        1.549346    1.099414   -0.259167
      9          6           0        0.569210    0.069838   -0.054651
     10          6           0        1.201448    2.438224   -0.733485
     11          6           0        3.571247    3.170388   -0.471405
     12          6           0        3.936346    1.781664   -0.231910
     13          6           0        5.298579    1.442960   -0.105570
     14          6           0        5.690504    0.135851    0.097577
     15          1           0        6.737292   -0.123173    0.188323
     16          1           0        6.032690    2.235070   -0.177763
     17          1           0        0.293423   -2.031673    0.295262
     18          7           0        2.215207    3.418186   -0.692532
     19          7           0        4.133741   -3.238913    0.437857
     20          8           0        1.955376   -3.910239    0.433986
     21          8           0        6.335126   -2.600708    0.491911
     22          8           0        4.394414    4.095087   -0.509449
     23          8           0        0.098882    2.763695   -1.183725
     24          6           0        1.816597    4.786281   -1.043331
     25          1           0        1.724561    4.898954   -2.126461
     26          1           0        0.853440    5.005800   -0.588689
     27          1           0        2.578977    5.465768   -0.675544
     28          6           0        4.514899   -4.644183    0.622853
     29          1           0        4.151718   -5.009649    1.584822
     30          1           0        4.074545   -5.251784   -0.167297
     31          1           0        5.597205   -4.707230    0.588576
     32          6           0       -0.863416    0.319804    0.141749
     33          6           0       -1.487890    1.358222    0.789360
     34         16           0       -2.044947   -0.830786   -0.453979
     35          6           0       -2.897355    1.226362    0.833818
     36          1           0       -0.947744    2.182100    1.228633
     37          6           0       -3.393001    0.091274    0.201143
     38          8           0       -3.764709    2.090711    1.430771
     39          6           0       -4.765042   -0.325752    0.060478
     40          6           0       -3.224399    3.257282    2.059754
     41          6           0       -5.258242   -1.460056   -0.573525
     42         16           0       -6.114836    0.605233    0.709467
     43          1           0       -4.077927    3.804171    2.455271
     44          1           0       -2.553185    2.984940    2.878938
     45          1           0       -2.692807    3.881437    1.336353
     46          6           0       -6.677728   -1.580576   -0.539195
     47          8           0       -4.392778   -2.334352   -1.157339
     48          6           0       -7.268792   -0.539612    0.118812
     49          1           0       -7.232079   -2.396445   -0.979728
     50          6           0       -4.938617   -3.491648   -1.798684
     51          1           0       -8.321137   -0.376057    0.293707
     52          1           0       -5.599355   -3.207648   -2.622398
     53          1           0       -4.086875   -4.044488   -2.189582
     54          1           0       -5.482582   -4.115541   -1.084148
 ---------------------------------------------------------------------

 The electronic state is 2-A.
 Alpha  occ. eigenvalues --  -88.88029 -88.87710 -19.16398 -19.16315 -19.09969
 Alpha  occ. eigenvalues --  -19.09926 -19.09608 -19.09437 -14.36751 -14.36371
 Alpha  occ. eigenvalues --  -10.28409 -10.28212 -10.28083 -10.27974 -10.24119
 Alpha  occ. eigenvalues --  -10.23990 -10.22523 -10.22471 -10.21381 -10.21311
 Alpha  occ. eigenvalues --  -10.21081 -10.20638 -10.20439 -10.20285 -10.20138
 Alpha  occ. eigenvalues --  -10.19755 -10.19629 -10.19352 -10.18948 -10.18895
 Alpha  occ. eigenvalues --  -10.18779 -10.18527 -10.18338 -10.18164 -10.18086
 Alpha  occ. eigenvalues --  -10.17790  -7.96591  -7.96279  -5.92900  -5.92595
 Alpha  occ. eigenvalues --   -5.92515  -5.92213  -5.92161  -5.91832  -1.07735
 Alpha  occ. eigenvalues --   -1.07614  -1.05891  -1.05634  -1.03840  -1.03534
 Alpha  occ. eigenvalues --   -0.93958  -0.93583  -0.89984  -0.89222  -0.87859
 Alpha  occ. eigenvalues --   -0.84153  -0.81829  -0.78828  -0.76557  -0.75829
 Alpha  occ. eigenvalues --   -0.75354  -0.74433  -0.73419  -0.72293  -0.70729
 Alpha  occ. eigenvalues --   -0.70334  -0.69346  -0.67532  -0.65118  -0.64006
 Alpha  occ. eigenvalues --   -0.63263  -0.62561  -0.59855  -0.58647  -0.56635
 Alpha  occ. eigenvalues --   -0.55686  -0.55383  -0.55036  -0.54016  -0.53144
 Alpha  occ. eigenvalues --   -0.51568  -0.49527  -0.48978  -0.48226  -0.47876
 Alpha  occ. eigenvalues --   -0.47787  -0.47725  -0.47444  -0.47228  -0.47028
 Alpha  occ. eigenvalues --   -0.46548  -0.45238  -0.45080  -0.44666  -0.44383
 Alpha  occ. eigenvalues --   -0.43917  -0.43142  -0.42897  -0.42314  -0.42068
 Alpha  occ. eigenvalues --   -0.41443  -0.41134  -0.40965  -0.40521  -0.40305
 Alpha  occ. eigenvalues --   -0.40179  -0.39860  -0.39447  -0.39086  -0.38773
 Alpha  occ. eigenvalues --   -0.38147  -0.37652  -0.37136  -0.36782  -0.35744
 Alpha  occ. eigenvalues --   -0.34942  -0.34498  -0.33587  -0.33369  -0.32969
 Alpha  occ. eigenvalues --   -0.32506  -0.30105  -0.29387  -0.28883  -0.28148
 Alpha  occ. eigenvalues --   -0.27971  -0.27279  -0.26903  -0.26362  -0.26169
 Alpha  occ. eigenvalues --   -0.24604  -0.24286  -0.23849  -0.19037  -0.15407
 Alpha virt. eigenvalues --   -0.06428  -0.05292  -0.03290  -0.02561  -0.00290
 Alpha virt. eigenvalues --    0.00269   0.00402   0.00654   0.00874   0.01347
 Alpha virt. eigenvalues --    0.01742   0.02266   0.02370   0.02512   0.02728

  Beta  occ. eigenvalues --  -88.88028 -88.87703 -19.16385 -19.16320 -19.09781
  Beta  occ. eigenvalues --  -19.09730 -19.09430 -19.09249 -14.36804 -14.36423
  Beta  occ. eigenvalues --  -10.28349 -10.28153 -10.28025 -10.27919 -10.24092
  Beta  occ. eigenvalues --  -10.24011 -10.22523 -10.22471 -10.21395 -10.21252
  Beta  occ. eigenvalues --  -10.21123 -10.20527 -10.20488 -10.20259 -10.20194
  Beta  occ. eigenvalues --  -10.19754 -10.19628 -10.19193 -10.18800 -10.18728
  Beta  occ. eigenvalues --  -10.18627 -10.18465 -10.18348 -10.18084 -10.18004
  Beta  occ. eigenvalues --  -10.17744  -7.96590  -7.96272  -5.92899  -5.92591
  Beta  occ. eigenvalues --   -5.92515  -5.92209  -5.92158  -5.91810  -1.07713
  Beta  occ. eigenvalues --   -1.07618  -1.05647  -1.05401  -1.03508  -1.03218
  Beta  occ. eigenvalues --   -0.93843  -0.93475  -0.89886  -0.89132  -0.87813
  Beta  occ. eigenvalues --   -0.83841  -0.81536  -0.78689  -0.76442  -0.75498
  Beta  occ. eigenvalues --   -0.75202  -0.74398  -0.73351  -0.72235  -0.70683
  Beta  occ. eigenvalues --   -0.70052  -0.69196  -0.67417  -0.64964  -0.63813
  Beta  occ. eigenvalues --   -0.63176  -0.62368  -0.59808  -0.58588  -0.56550
  Beta  occ. eigenvalues --   -0.55575  -0.55354  -0.54928  -0.53996  -0.52994
  Beta  occ. eigenvalues --   -0.51462  -0.49387  -0.48873  -0.47962  -0.47776
  Beta  occ. eigenvalues --   -0.47725  -0.47567  -0.47429  -0.47162  -0.46907
  Beta  occ. eigenvalues --   -0.46498  -0.45186  -0.44989  -0.44580  -0.44256
  Beta  occ. eigenvalues --   -0.43832  -0.42962  -0.42725  -0.42109  -0.41918
  Beta  occ. eigenvalues --   -0.41347  -0.41046  -0.40871  -0.40253  -0.39900
  Beta  occ. eigenvalues --   -0.39860  -0.39442  -0.39085  -0.38605  -0.38572
  Beta  occ. eigenvalues --   -0.38092  -0.37498  -0.36828  -0.36739  -0.35723
  Beta  occ. eigenvalues --   -0.34845  -0.34239  -0.33449  -0.33344  -0.32947
  Beta  occ. eigenvalues --   -0.31982  -0.29404  -0.28924  -0.28570  -0.27833
  Beta  occ. eigenvalues --   -0.27498  -0.26979  -0.26693  -0.26086  -0.25793
  Beta  occ. eigenvalues --   -0.24336  -0.24053  -0.22681  -0.18682
  Beta virt. eigenvalues --   -0.11120  -0.05837  -0.04397  -0.02470  -0.02245
  Beta virt. eigenvalues --   -0.00274   0.00410   0.00447   0.00660   0.00916
  Beta virt. eigenvalues --    0.01383   0.01756   0.02335   0.02583   0.02755

 Mulliken charges and spin densities:
               1          2
     1  C    0.366502   0.027005
     2  C   -0.164204   0.116721
     3  C    0.124653  -0.036402
     4  C    0.197628   0.101171
     5  C    0.263893   0.026086
     6  C   -0.290675   0.049969
     7  C    0.197839  -0.029914
     8  C    0.417054   0.117380
     9  C    0.347449   0.077005
    10  C   -0.606032   0.024458
    11  C    0.268822   0.025457
    12  C    0.086524   0.099502
    13  C   -0.490296   0.059428
    14  C   -0.604525   0.063258
    15  H    0.144214  -0.004284
    16  H    0.144471  -0.004139
    17  H    0.152371  -0.002490
    18  N   -0.036152  -0.021841
    19  N   -0.133349  -0.022761
    20  O   -0.434127   0.072998
    21  O   -0.416788   0.069598
    22  O   -0.430847   0.066323
    23  O   -0.335553   0.070257
    24  C   -0.193235   0.001385
    25  H    0.177224  -0.001188
    26  H    0.171747  -0.000519
    27  H    0.172884  -0.000445
    28  C   -0.211027   0.001192
    29  H    0.174894  -0.001040
    30  H    0.169838  -0.000870
    31  H    0.173771  -0.000332
    32  C    0.060824  -0.035191
    33  C   -0.534232   0.031993
    34  S   -0.606347   0.015202
    35  C   -0.324378  -0.010812
    36  H    0.155931  -0.002411
    37  C    0.692739   0.039813
    38  O   -0.163240  -0.000640
    39  C    0.785242  -0.012167
    40  C   -0.238955   0.000104
    41  C    0.019233   0.018183
    42  S   -0.229825  -0.000136
    43  H    0.174974  -0.000004
    44  H    0.161107  -0.000128
    45  H    0.162248  -0.000220
    46  C   -0.612561  -0.007515
    47  O   -0.164703   0.002917
    48  C   -0.328671   0.018443
    49  H    0.159546   0.000339
    50  C   -0.251343  -0.000123
    51  H    0.186925  -0.001099
    52  H    0.158572   0.000240
    53  H    0.172867  -0.000006
    54  H    0.159079   0.000251
 Sum of Mulliken charges =  -1.00000   1.00000

 Dipole moment (field-independent basis, Debye):
    X=            -15.2259    Y=             -0.5268    Z=              1.2785  Tot=             15.2886
 Quadrupole moment (field-independent basis, Debye-Ang):
   XX=           -295.6088   YY=           -250.8496   ZZ=           -224.4490
   XY=              8.7251   XZ=              2.0840   YZ=             21.9625

 Normal termination of Gaussian 16 at Thu Oct 28 07:44:19 2021.
