 Gaussian 16, Revision C.01,
 Gaussian 16:  ES64L-G16RevC.01  3-Jul-2019

 ---------------------------------------------------------------
 # opt=modredundant b3lyp/6-311+g(d,p) scrf=(pcm, solvent=water)
 ---------------------------------------------------------------

 -----------
 NDI_155.pdb
 -----------
 Symbolic Z-matrix:
 Charge = -1 Multiplicity = 2

 SCF Done:  E(UB3LYP) =  -2359.46767252     A.U. after   21 cycles
 SCF Done:  E(UB3LYP) =  -2359.48514819     A.U. after   22 cycles
 SCF Done:  E(UB3LYP) =  -2359.49311006     A.U. after   18 cycles
 SCF Done:  E(UB3LYP) =  -2359.49743841     A.U. after   19 cycles
 SCF Done:  E(UB3LYP) =  -2359.49907255     A.U. after   20 cycles
 SCF Done:  E(UB3LYP) =  -2359.50028275     A.U. after   20 cycles
 SCF Done:  E(UB3LYP) =  -2359.50106233     A.U. after   17 cycles
 SCF Done:  E(UB3LYP) =  -2359.50122884     A.U. after   20 cycles
 SCF Done:  E(UB3LYP) =  -2359.50186474     A.U. after   16 cycles
 SCF Done:  E(UB3LYP) =  -2359.50211723     A.U. after   16 cycles
 SCF Done:  E(UB3LYP) =  -2359.50227552     A.U. after   12 cycles
 SCF Done:  E(UB3LYP) =  -2359.50227728     A.U. after   14 cycles
 SCF Done:  E(UB3LYP) =  -2359.50227771     A.U. after    9 cycles
 SCF Done:  E(UB3LYP) =  -2359.50227826     A.U. after    9 cycles
 SCF Done:  E(UB3LYP) =  -2359.50227863     A.U. after    9 cycles
 SCF Done:  E(UB3LYP) =  -2359.50227905     A.U. after    8 cycles
 SCF Done:  E(UB3LYP) =  -2359.50227942     A.U. after    9 cycles
 SCF Done:  E(UB3LYP) =  -2359.50227954     A.U. after    8 cycles
 SCF Done:  E(UB3LYP) =  -2359.50227959     A.U. after    8 cycles
 SCF Done:  E(UB3LYP) =  -2359.50227961     A.U. after    8 cycles
 Optimization completed.
    -- Stationary point found.

                         Standard orientation:
 ---------------------------------------------------------------------
 Center     Atomic      Atomic             Coordinates (Angstroms)
 Number     Number       Type             X           Y           Z
 ---------------------------------------------------------------------
      1          6           0       -3.514819   -2.678269   -0.305864
      2          6           0       -2.774581   -1.456228   -0.017491
      3          6           0       -3.414600   -0.198605   -0.118016
      4          6           0       -4.770685   -0.101833   -0.501624
      5          6           0       -5.536286   -1.308450   -0.800244
      6          6           0       -1.411113   -1.522493    0.287091
      7          6           0       -2.664449    0.983600    0.187490
      8          6           0       -1.300236    0.885768    0.584163
      9          6           0       -0.643792   -0.389684    0.566303
     10          6           0       -0.676705    2.076815    1.154415
     11          6           0       -2.618095    3.464333    0.436463
     12          6           0       -3.324528    2.235719    0.101479
     13          6           0       -4.674730    2.304893   -0.296891
     14          6           0       -5.387748    1.161290   -0.593640
     15          1           0       -6.426422    1.216077   -0.892453
     16          1           0       -5.142574    3.279102   -0.357641
     17          1           0       -0.932790   -2.491189    0.237980
     18          7           0       -1.323124    3.309731    0.937760
     19          7           0       -4.858416   -2.533022   -0.675673
     20          8           0       -3.022536   -3.811453   -0.240475
     21          8           0       -6.723603   -1.284605   -1.144785
     22          8           0       -3.118736    4.591294    0.322739
     23          8           0        0.359076    2.070014    1.827519
     24          6           0       -0.616251    4.508510    1.403521
     25          1           0       -0.698368    4.610278    2.488440
     26          1           0        0.436381    4.428690    1.141403
     27          1           0       -1.065685    5.373241    0.926018
     28          6           0       -5.590908   -3.772746   -0.960136
     29          1           0       -5.139121   -4.288459   -1.808664
     30          1           0       -5.552576   -4.432655   -0.093332
     31          1           0       -6.618548   -3.511442   -1.188600
     32          6           0        0.810244   -0.596260    0.641962
     33          6           0        1.452626   -1.727512    1.100614
     34         16           0        1.939926    0.438886   -0.202718
     35          6           0        2.840023   -1.747290    0.816127
     36          1           0        0.940696   -2.508337    1.644011
     37          6           0        3.292030   -0.648180    0.095721
     38          8           0        3.722438   -2.717990    1.185327
     39          6           0        4.634958   -0.360007   -0.341701
     40          6           0        3.220088   -3.837579    1.921382
     41          6           0        5.082545    0.721154   -1.091864
     42         16           0        6.003425   -1.407212    0.034113
     43          1           0        4.078667   -4.478787    2.110465
     44          1           0        2.785828   -3.518075    2.872781
     45          1           0        2.474944   -4.386898    1.339275
     46          6           0        6.483087    0.712276   -1.355374
     47          8           0        4.194974    1.666849   -1.506030
     48          6           0        7.104585   -0.374719   -0.809482
     49          1           0        7.002853    1.471083   -1.921971
     50          6           0        4.696316    2.772135   -2.264731
     51          1           0        8.151146   -0.634230   -0.856045
     52          1           0        5.147823    2.432129   -3.200828
     53          1           0        3.833627    3.398035   -2.483612
     54          1           0        5.426482    3.345026   -1.686550
 ---------------------------------------------------------------------

 The electronic state is 2-A.
 Alpha  occ. eigenvalues --  -88.88027 -88.87457 -19.16388 -19.16287 -19.09971
 Alpha  occ. eigenvalues --  -19.09931 -19.09646 -19.09538 -14.36747 -14.36413
 Alpha  occ. eigenvalues --  -10.28413 -10.28218 -10.28080 -10.28027 -10.24135
 Alpha  occ. eigenvalues --  -10.23911 -10.22516 -10.22470 -10.21361 -10.21274
 Alpha  occ. eigenvalues --  -10.21239 -10.20606 -10.20414 -10.20297 -10.20134
 Alpha  occ. eigenvalues --  -10.19750 -10.19652 -10.19277 -10.18953 -10.18899
 Alpha  occ. eigenvalues --  -10.18802 -10.18537 -10.18336 -10.18183 -10.18105
 Alpha  occ. eigenvalues --  -10.17977  -7.96590  -7.96025  -5.92898  -5.92513
 Alpha  occ. eigenvalues --   -5.92348  -5.92160  -5.91960  -5.91564  -1.07727
 Alpha  occ. eigenvalues --   -1.07576  -1.05891  -1.05678  -1.03843  -1.03585
 Alpha  occ. eigenvalues --   -0.93953  -0.93643  -0.89966  -0.89222  -0.87840
 Alpha  occ. eigenvalues --   -0.84157  -0.81836  -0.78886  -0.76370  -0.75938
 Alpha  occ. eigenvalues --   -0.75348  -0.74420  -0.73430  -0.72302  -0.70782
 Alpha  occ. eigenvalues --   -0.70035  -0.69528  -0.67573  -0.65086  -0.64059
 Alpha  occ. eigenvalues --   -0.63192  -0.62616  -0.59800  -0.58641  -0.56663
 Alpha  occ. eigenvalues --   -0.55767  -0.55386  -0.55010  -0.54025  -0.52907
 Alpha  occ. eigenvalues --   -0.51767  -0.49418  -0.48886  -0.48294  -0.47901
 Alpha  occ. eigenvalues --   -0.47804  -0.47672  -0.47425  -0.47327  -0.46995
 Alpha  occ. eigenvalues --   -0.46561  -0.45275  -0.45146  -0.44668  -0.44532
 Alpha  occ. eigenvalues --   -0.43738  -0.43166  -0.43022  -0.42489  -0.42042
 Alpha  occ. eigenvalues --   -0.41411  -0.41096  -0.40870  -0.40512  -0.40323
 Alpha  occ. eigenvalues --   -0.40082  -0.39893  -0.39579  -0.39202  -0.38675
 Alpha  occ. eigenvalues --   -0.38075  -0.37626  -0.37074  -0.36801  -0.35610
 Alpha  occ. eigenvalues --   -0.34926  -0.34623  -0.33590  -0.33275  -0.33008
 Alpha  occ. eigenvalues --   -0.32361  -0.29992  -0.29342  -0.28980  -0.28165
 Alpha  occ. eigenvalues --   -0.27954  -0.27300  -0.26923  -0.26366  -0.26246
 Alpha  occ. eigenvalues --   -0.24618  -0.24303  -0.23809  -0.19019  -0.15409
 Alpha virt. eigenvalues --   -0.06462  -0.05275  -0.03260  -0.02652  -0.00314
 Alpha virt. eigenvalues --    0.00201   0.00406   0.00644   0.00803   0.01439
 Alpha virt. eigenvalues --    0.01794   0.02309   0.02358   0.02539   0.02603

  Beta  occ. eigenvalues --  -88.88027 -88.87453 -19.16374 -19.16295 -19.09784
  Beta  occ. eigenvalues --  -19.09736 -19.09468 -19.09345 -14.36800 -14.36465
  Beta  occ. eigenvalues --  -10.28354 -10.28159 -10.28023 -10.27972 -10.24106
  Beta  occ. eigenvalues --  -10.23938 -10.22517 -10.22470 -10.21377 -10.21283
  Beta  occ. eigenvalues --  -10.21212 -10.20491 -10.20463 -10.20269 -10.20190
  Beta  occ. eigenvalues --  -10.19749 -10.19651 -10.19119 -10.18805 -10.18734
  Beta  occ. eigenvalues --  -10.18650 -10.18477 -10.18346 -10.18104 -10.18023
  Beta  occ. eigenvalues --  -10.17920  -7.96589  -7.96021  -5.92897  -5.92513
  Beta  occ. eigenvalues --   -5.92343  -5.92157  -5.91956  -5.91556  -1.07702
  Beta  occ. eigenvalues --   -1.07588  -1.05647  -1.05442  -1.03513  -1.03265
  Beta  occ. eigenvalues --   -0.93838  -0.93536  -0.89865  -0.89135  -0.87792
  Beta  occ. eigenvalues --   -0.83845  -0.81543  -0.78744  -0.76264  -0.75625
  Beta  occ. eigenvalues --   -0.75180  -0.74376  -0.73361  -0.72227  -0.70740
  Beta  occ. eigenvalues --   -0.69761  -0.69382  -0.67460  -0.64934  -0.63871
  Beta  occ. eigenvalues --   -0.63078  -0.62463  -0.59736  -0.58579  -0.56586
  Beta  occ. eigenvalues --   -0.55640  -0.55361  -0.54894  -0.54007  -0.52778
  Beta  occ. eigenvalues --   -0.51653  -0.49250  -0.48824  -0.48020  -0.47771
  Beta  occ. eigenvalues --   -0.47684  -0.47591  -0.47415  -0.47246  -0.46878
  Beta  occ. eigenvalues --   -0.46511  -0.45210  -0.45079  -0.44535  -0.44458
  Beta  occ. eigenvalues --   -0.43633  -0.43002  -0.42825  -0.42348  -0.41816
  Beta  occ. eigenvalues --   -0.41357  -0.41023  -0.40798  -0.40132  -0.39926
  Beta  occ. eigenvalues --   -0.39867  -0.39430  -0.39150  -0.38815  -0.38523
  Beta  occ. eigenvalues --   -0.37956  -0.37430  -0.36824  -0.36742  -0.35593
  Beta  occ. eigenvalues --   -0.34806  -0.34351  -0.33482  -0.33235  -0.32994
  Beta  occ. eigenvalues --   -0.31828  -0.29224  -0.28934  -0.28649  -0.27907
  Beta  occ. eigenvalues --   -0.27474  -0.27014  -0.26721  -0.26160  -0.25753
  Beta  occ. eigenvalues --   -0.24413  -0.23935  -0.22710  -0.18692
  Beta virt. eigenvalues --   -0.11114  -0.05851  -0.04386  -0.02527  -0.02255
  Beta virt. eigenvalues --   -0.00298   0.00340   0.00454   0.00656   0.00849
  Beta virt. eigenvalues --    0.01447   0.01817   0.02355   0.02551   0.02917

 Mulliken charges and spin densities:
               1          2
     1  C    0.384268   0.027423
     2  C   -0.103129   0.115427
     3  C    0.119078  -0.038870
     4  C    0.221853   0.102259
     5  C    0.242702   0.025599
     6  C   -0.095770   0.045352
     7  C    0.135128  -0.031450
     8  C    0.195161   0.118817
     9  C    0.255798   0.078338
    10  C   -0.537767   0.022943
    11  C    0.346070   0.026733
    12  C    0.036637   0.100672
    13  C   -0.502765   0.058198
    14  C   -0.571631   0.062111
    15  H    0.144173  -0.004313
    16  H    0.144427  -0.004082
    17  H    0.146072  -0.002397
    18  N   -0.002822  -0.021851
    19  N   -0.136529  -0.022726
    20  O   -0.430865   0.072613
    21  O   -0.416526   0.069388
    22  O   -0.430930   0.066362
    23  O   -0.367090   0.072815
    24  C   -0.199772   0.001451
    25  H    0.178066  -0.001190
    26  H    0.174363  -0.000559
    27  H    0.174329  -0.000429
    28  C   -0.203823   0.001291
    29  H    0.173736  -0.001003
    30  H    0.170478  -0.000906
    31  H    0.174082  -0.000329
    32  C    0.105711  -0.016338
    33  C   -0.656891   0.040780
    34  S   -0.706964   0.009001
    35  C   -0.172069  -0.019869
    36  H    0.156630  -0.001914
    37  C    0.660994   0.031615
    38  O   -0.168716  -0.001229
    39  C    0.838498  -0.012095
    40  C   -0.237295   0.000208
    41  C    0.003185   0.019326
    42  S   -0.224992  -0.000550
    43  H    0.174917   0.000000
    44  H    0.160842  -0.000203
    45  H    0.162580  -0.000174
    46  C   -0.609637  -0.008363
    47  O   -0.164074   0.002863
    48  C   -0.325290   0.019834
    49  H    0.159399   0.000364
    50  C   -0.251867  -0.000254
    51  H    0.187078  -0.001188
    52  H    0.158464   0.000287
    53  H    0.172975  -0.000009
    54  H    0.159522   0.000222
 Sum of Mulliken charges =  -1.00000   1.00000

 Dipole moment (field-independent basis, Debye):
    X=             14.8190    Y=             -2.0725    Z=             -1.4177  Tot=             15.0302
 Quadrupole moment (field-independent basis, Debye-Ang):
   XX=           -290.2205   YY=           -252.9968   ZZ=           -226.0151
   XY=             13.0819   XZ=            -20.2077   YZ=            -19.4364

 Normal termination of Gaussian 16 at Thu Oct 28 11:13:37 2021.
