 Gaussian 16, Revision C.01,
 Gaussian 16:  ES64L-G16RevC.01  3-Jul-2019

 ---------------------------------------------------------------
 # opt=modredundant b3lyp/6-311+g(d,p) scrf=(pcm, solvent=water)
 ---------------------------------------------------------------

 -----------
 NDI_165.pdb
 -----------
 Symbolic Z-matrix:
 Charge = -1 Multiplicity = 2

 SCF Done:  E(UB3LYP) =  -2359.45588107     A.U. after   22 cycles
 SCF Done:  E(UB3LYP) =  -2359.48280096     A.U. after   22 cycles
 SCF Done:  E(UB3LYP) =  -2359.49275444     A.U. after   20 cycles
 SCF Done:  E(UB3LYP) =  -2359.49659529     A.U. after   19 cycles
 SCF Done:  E(UB3LYP) =  -2359.49814001     A.U. after   20 cycles
 SCF Done:  E(UB3LYP) =  -2359.49868957     A.U. after   20 cycles
 SCF Done:  E(UB3LYP) =  -2359.49970756     A.U. after   16 cycles
 SCF Done:  E(UB3LYP) =  -2359.50033027     A.U. after   19 cycles
 SCF Done:  E(UB3LYP) =  -2359.50030256     A.U. after   19 cycles
 SCF Done:  E(UB3LYP) =  -2359.50058476     A.U. after   16 cycles
 SCF Done:  E(UB3LYP) =  -2359.50074835     A.U. after   13 cycles
 SCF Done:  E(UB3LYP) =  -2359.50074924     A.U. after   10 cycles
 SCF Done:  E(UB3LYP) =  -2359.50075056     A.U. after   10 cycles
 SCF Done:  E(UB3LYP) =  -2359.50075122     A.U. after   10 cycles
 SCF Done:  E(UB3LYP) =  -2359.50075163     A.U. after   10 cycles
 SCF Done:  E(UB3LYP) =  -2359.50075229     A.U. after   11 cycles
 SCF Done:  E(UB3LYP) =  -2359.50075241     A.U. after    9 cycles
 SCF Done:  E(UB3LYP) =  -2359.50075248     A.U. after    9 cycles
 SCF Done:  E(UB3LYP) =  -2359.50075251     A.U. after    9 cycles
 SCF Done:  E(UB3LYP) =  -2359.50075251     A.U. after    7 cycles
 Optimization completed.
    -- Stationary point found.

                         Standard orientation:
 ---------------------------------------------------------------------
 Center     Atomic      Atomic             Coordinates (Angstroms)
 Number     Number       Type             X           Y           Z
 ---------------------------------------------------------------------
      1          6           0       -3.555770   -2.659385   -0.201248
      2          6           0       -2.797393   -1.439497    0.048595
      3          6           0       -3.413793   -0.175968   -0.109407
      4          6           0       -4.761438   -0.070420   -0.516952
      5          6           0       -5.544529   -1.274671   -0.778915
      6          6           0       -1.438892   -1.518109    0.365174
      7          6           0       -2.644639    1.001889    0.161587
      8          6           0       -1.287540    0.894730    0.581003
      9          6           0       -0.647414   -0.392012    0.611172
     10          6           0       -0.663073    2.092784    1.132874
     11          6           0       -2.559510    3.489131    0.321260
     12          6           0       -3.281349    2.261327    0.018861
     13          6           0       -4.623444    2.339462   -0.404813
     14          6           0       -5.353521    1.198880   -0.669402
     15          1           0       -6.386055    1.260731   -0.987525
     16          1           0       -5.071546    3.319160   -0.510153
     17          1           0       -0.984575   -2.498783    0.347892
     18          7           0       -1.280468    3.329311    0.859135
     19          7           0       -4.893312   -2.505253   -0.588868
     20          8           0       -3.083778   -3.797252   -0.088199
     21          8           0       -6.724574   -1.243760   -1.146508
     22          8           0       -3.035533    4.620124    0.153162
     23          8           0        0.350583    2.090159    1.839933
     24          6           0       -0.564622    4.530486    1.304520
     25          1           0       -0.677679    4.672360    2.382140
     26          1           0        0.493653    4.421949    1.078184
     27          1           0       -0.982424    5.385866    0.783309
     28          6           0       -5.647477   -3.741777   -0.826979
     29          1           0       -5.231895   -4.278429   -1.681547
     30          1           0       -5.584437   -4.385186    0.050116
     31          1           0       -6.679607   -3.473836   -1.025695
     32          6           0        0.803304   -0.624563    0.671565
     33          6           0        1.424302   -1.818613    0.990330
     34         16           0        1.959242    0.467725   -0.061593
     35          6           0        2.804392   -1.845162    0.686296
     36          1           0        0.902403   -2.644690    1.450191
     37          6           0        3.279953   -0.684748    0.085367
     38          8           0        3.663204   -2.874010    0.933604
     39          6           0        4.625827   -0.386026   -0.332658
     40          6           0        3.134437   -4.060060    1.534442
     41          6           0        5.101744    0.767900   -0.945387
     42         16           0        5.961118   -1.519173   -0.121014
     43          1           0        3.976329   -4.741423    1.639330
     44          1           0        2.712862   -3.845354    2.520346
     45          1           0        2.372275   -4.516009    0.896341
     46          6           0        6.496889    0.745288   -1.234338
     47          8           0        4.243894    1.789146   -1.216803
     48          6           0        7.086116   -0.424220   -0.845621
     49          1           0        7.035841    1.553122   -1.707507
     50          6           0        4.776058    2.967262   -1.831449
     51          1           0        8.121991   -0.710588   -0.944541
     52          1           0        5.205163    2.738217   -2.810741
     53          1           0        3.933952    3.645420   -1.952972
     54          1           0        5.532358    3.433546   -1.194095
 ---------------------------------------------------------------------

 The electronic state is 2-A.
 Alpha  occ. eigenvalues --  -88.88050 -88.87470 -19.16431 -19.16296 -19.10000
 Alpha  occ. eigenvalues --  -19.09952 -19.09615 -19.09509 -14.36760 -14.36390
 Alpha  occ. eigenvalues --  -10.28436 -10.28243 -10.28040 -10.27991 -10.24192
 Alpha  occ. eigenvalues --  -10.23909 -10.22531 -10.22477 -10.21396 -10.21330
 Alpha  occ. eigenvalues --  -10.21316 -10.20708 -10.20398 -10.20339 -10.20086
 Alpha  occ. eigenvalues --  -10.19760 -10.19648 -10.19220 -10.18953 -10.18891
 Alpha  occ. eigenvalues --  -10.18773 -10.18554 -10.18357 -10.18165 -10.18076
 Alpha  occ. eigenvalues --  -10.18024  -7.96612  -7.96035  -5.92920  -5.92536
 Alpha  occ. eigenvalues --   -5.92357  -5.92182  -5.91966  -5.91575  -1.07776
 Alpha  occ. eigenvalues --   -1.07595  -1.05917  -1.05651  -1.03872  -1.03552
 Alpha  occ. eigenvalues --   -0.93970  -0.93627  -0.89970  -0.89232  -0.87856
 Alpha  occ. eigenvalues --   -0.84147  -0.81819  -0.78910  -0.76385  -0.75944
 Alpha  occ. eigenvalues --   -0.75359  -0.74448  -0.73428  -0.72322  -0.70782
 Alpha  occ. eigenvalues --   -0.70025  -0.69561  -0.67587  -0.65084  -0.64057
 Alpha  occ. eigenvalues --   -0.63204  -0.62610  -0.59806  -0.58673  -0.56663
 Alpha  occ. eigenvalues --   -0.55796  -0.55410  -0.55018  -0.54065  -0.52896
 Alpha  occ. eigenvalues --   -0.51805  -0.49409  -0.48847  -0.48306  -0.47904
 Alpha  occ. eigenvalues --   -0.47828  -0.47657  -0.47444  -0.47337  -0.47003
 Alpha  occ. eigenvalues --   -0.46560  -0.45342  -0.45162  -0.44681  -0.44509
 Alpha  occ. eigenvalues --   -0.43693  -0.43143  -0.43030  -0.42477  -0.42020
 Alpha  occ. eigenvalues --   -0.41447  -0.41147  -0.40906  -0.40534  -0.40307
 Alpha  occ. eigenvalues --   -0.40050  -0.39870  -0.39604  -0.39210  -0.38750
 Alpha  occ. eigenvalues --   -0.38082  -0.37666  -0.37038  -0.36743  -0.35608
 Alpha  occ. eigenvalues --   -0.34949  -0.34731  -0.33617  -0.33311  -0.32942
 Alpha  occ. eigenvalues --   -0.32337  -0.29981  -0.29383  -0.29036  -0.28202
 Alpha  occ. eigenvalues --   -0.27945  -0.27269  -0.26950  -0.26385  -0.26209
 Alpha  occ. eigenvalues --   -0.24630  -0.24317  -0.23744  -0.19053  -0.15360
 Alpha virt. eigenvalues --   -0.06681  -0.05290  -0.03221  -0.02627  -0.00325
 Alpha virt. eigenvalues --    0.00295   0.00462   0.00602   0.00800   0.01473
 Alpha virt. eigenvalues --    0.01848   0.02309   0.02376   0.02515   0.02671

  Beta  occ. eigenvalues --  -88.88049 -88.87468 -19.16413 -19.16306 -19.09816
  Beta  occ. eigenvalues --  -19.09761 -19.09439 -19.09319 -14.36813 -14.36442
  Beta  occ. eigenvalues --  -10.28377 -10.28185 -10.27982 -10.27936 -10.24155
  Beta  occ. eigenvalues --  -10.23943 -10.22532 -10.22477 -10.21415 -10.21367
  Beta  occ. eigenvalues --  -10.21253 -10.20586 -10.20446 -10.20303 -10.20142
  Beta  occ. eigenvalues --  -10.19759 -10.19648 -10.19068 -10.18808 -10.18728
  Beta  occ. eigenvalues --  -10.18624 -10.18498 -10.18371 -10.18088 -10.17996
  Beta  occ. eigenvalues --  -10.17953  -7.96612  -7.96032  -5.92920  -5.92536
  Beta  occ. eigenvalues --   -5.92354  -5.92179  -5.91963  -5.91570  -1.07742
  Beta  occ. eigenvalues --   -1.07612  -1.05677  -1.05418  -1.03547  -1.03236
  Beta  occ. eigenvalues --   -0.93857  -0.93521  -0.89869  -0.89140  -0.87805
  Beta  occ. eigenvalues --   -0.83838  -0.81531  -0.78763  -0.76276  -0.75646
  Beta  occ. eigenvalues --   -0.75187  -0.74399  -0.73361  -0.72238  -0.70740
  Beta  occ. eigenvalues --   -0.69765  -0.69406  -0.67471  -0.64932  -0.63873
  Beta  occ. eigenvalues --   -0.63085  -0.62464  -0.59735  -0.58611  -0.56587
  Beta  occ. eigenvalues --   -0.55674  -0.55379  -0.54903  -0.54044  -0.52768
  Beta  occ. eigenvalues --   -0.51695  -0.49246  -0.48782  -0.48033  -0.47791
  Beta  occ. eigenvalues --   -0.47686  -0.47582  -0.47432  -0.47255  -0.46887
  Beta  occ. eigenvalues --   -0.46506  -0.45277  -0.45096  -0.44555  -0.44425
  Beta  occ. eigenvalues --   -0.43588  -0.42980  -0.42834  -0.42330  -0.41809
  Beta  occ. eigenvalues --   -0.41389  -0.41056  -0.40828  -0.40100  -0.39924
  Beta  occ. eigenvalues --   -0.39880  -0.39447  -0.39168  -0.38842  -0.38578
  Beta  occ. eigenvalues --   -0.37958  -0.37471  -0.36766  -0.36711  -0.35587
  Beta  occ. eigenvalues --   -0.34797  -0.34498  -0.33495  -0.33269  -0.32920
  Beta  occ. eigenvalues --   -0.31827  -0.29256  -0.28941  -0.28669  -0.27958
  Beta  occ. eigenvalues --   -0.27472  -0.26987  -0.26751  -0.26184  -0.25740
  Beta  occ. eigenvalues --   -0.24373  -0.23932  -0.22697  -0.18665
  Beta virt. eigenvalues --   -0.11124  -0.06062  -0.04369  -0.02507  -0.02250
  Beta virt. eigenvalues --   -0.00309   0.00375   0.00581   0.00617   0.00862
  Beta virt. eigenvalues --    0.01482   0.01865   0.02388   0.02526   0.02940

 Mulliken charges and spin densities:
               1          2
     1  C    0.373265   0.027038
     2  C   -0.095320   0.114308
     3  C    0.123415  -0.038557
     4  C    0.223880   0.100417
     5  C    0.233930   0.025590
     6  C    0.033930   0.040535
     7  C    0.103559  -0.029815
     8  C    0.304297   0.113294
     9  C    0.244106   0.082759
    10  C   -0.641015   0.022569
    11  C    0.352443   0.027070
    12  C    0.041071   0.097627
    13  C   -0.506518   0.056759
    14  C   -0.572011   0.061627
    15  H    0.144057  -0.004215
    16  H    0.144448  -0.004000
    17  H    0.145169  -0.001973
    18  N    0.020823  -0.021701
    19  N   -0.137407  -0.022350
    20  O   -0.430477   0.071437
    21  O   -0.415855   0.068106
    22  O   -0.431885   0.065571
    23  O   -0.365970   0.072060
    24  C   -0.202777   0.001527
    25  H    0.177780  -0.001187
    26  H    0.174764  -0.000577
    27  H    0.174132  -0.000432
    28  C   -0.205159   0.001275
    29  H    0.175094  -0.001024
    30  H    0.169569  -0.000844
    31  H    0.173610  -0.000325
    32  C    0.024765  -0.020792
    33  C   -0.604046   0.052306
    34  S   -0.712252   0.006781
    35  C   -0.321302  -0.026385
    36  H    0.153426  -0.002458
    37  C    0.697402   0.043931
    38  O   -0.166016  -0.001562
    39  C    0.854744  -0.015968
    40  C   -0.238399   0.000229
    41  C   -0.018606   0.024630
    42  S   -0.216552  -0.000840
    43  H    0.175362   0.000000
    44  H    0.160414  -0.000260
    45  H    0.162024  -0.000227
    46  C   -0.580087  -0.010729
    47  O   -0.161175   0.003836
    48  C   -0.325236   0.025670
    49  H    0.159543   0.000470
    50  C   -0.252015  -0.000296
    51  H    0.187384  -0.001540
    52  H    0.158708   0.000351
    53  H    0.173212  -0.000011
    54  H    0.159756   0.000295
 Sum of Mulliken charges =  -1.00000   1.00000

 Dipole moment (field-independent basis, Debye):
    X=             14.9791    Y=             -2.2848    Z=             -1.4595  Tot=             15.2225
 Quadrupole moment (field-independent basis, Debye-Ang):
   XX=           -288.1551   YY=           -250.4078   ZZ=           -229.7613
   XY=             14.1876   XZ=            -20.3712   YZ=            -15.7443

 Normal termination of Gaussian 16 at Thu Oct 28 11:58:05 2021.
