 Gaussian 16, Revision C.01,
 Gaussian 16:  ES64L-G16RevC.01  3-Jul-2019

 ---------------------------------------------------------------
 # opt=modredundant b3lyp/6-311+g(d,p) scrf=(pcm, solvent=water)
 ---------------------------------------------------------------

 -----------
 NDI_-25.pdb
 -----------
 Symbolic Z-matrix:
 Charge = -1 Multiplicity = 2

 SCF Done:  E(UB3LYP) =  -2359.49324818     A.U. after   23 cycles
 SCF Done:  E(UB3LYP) =  -2359.49175622     A.U. after   21 cycles
 SCF Done:  E(UB3LYP) =  -2359.49857917     A.U. after   19 cycles
 SCF Done:  E(UB3LYP) =  -2359.50027250     A.U. after   20 cycles
 SCF Done:  E(UB3LYP) =  -2359.50168318     A.U. after   21 cycles
 SCF Done:  E(UB3LYP) =  -2359.50211082     A.U. after   18 cycles
 SCF Done:  E(UB3LYP) =  -2359.50216602     A.U. after   18 cycles
 SCF Done:  E(UB3LYP) =  -2359.50224493     A.U. after   16 cycles
 SCF Done:  E(UB3LYP) =  -2359.50226398     A.U. after   14 cycles
 SCF Done:  E(UB3LYP) =  -2359.50227700     A.U. after   14 cycles
 SCF Done:  E(UB3LYP) =  -2359.50236455     A.U. after   12 cycles
 SCF Done:  E(UB3LYP) =  -2359.50236545     A.U. after   12 cycles
 SCF Done:  E(UB3LYP) =  -2359.50236640     A.U. after   12 cycles
 SCF Done:  E(UB3LYP) =  -2359.50236728     A.U. after   12 cycles
 SCF Done:  E(UB3LYP) =  -2359.50236798     A.U. after   10 cycles
 SCF Done:  E(UB3LYP) =  -2359.50236820     A.U. after   12 cycles
 SCF Done:  E(UB3LYP) =  -2359.50236824     A.U. after   11 cycles
 SCF Done:  E(UB3LYP) =  -2359.50236827     A.U. after    8 cycles
 SCF Done:  E(UB3LYP) =  -2359.50236830     A.U. after    8 cycles
 SCF Done:  E(UB3LYP) =  -2359.50236831     A.U. after    7 cycles
 Optimization completed.
    -- Stationary point found.

                         Standard orientation:
 ---------------------------------------------------------------------
 Center     Atomic      Atomic             Coordinates (Angstroms)
 Number     Number       Type             X           Y           Z
 ---------------------------------------------------------------------
      1          6           0        2.701571   -2.998649    0.236178
      2          6           0        2.336795   -1.595943    0.081493
      3          6           0        3.338289   -0.597215    0.070016
      4          6           0        4.701145   -0.936737    0.217072
      5          6           0        5.096817   -2.333054    0.380027
      6          6           0        0.990253   -1.230885    0.020860
      7          6           0        2.945279    0.770486   -0.104506
      8          6           0        1.570444    1.112669   -0.265580
      9          6           0        0.564698    0.093116   -0.121593
     10          6           0        1.268746    2.464482   -0.732039
     11          6           0        3.631894    3.156687   -0.340879
     12          6           0        3.966093    1.755337   -0.131865
     13          6           0        5.317671    1.391204    0.032873
     14          6           0        5.683876    0.072234    0.204199
     15          1           0        6.722900   -0.205958    0.323065
     16          1           0        6.064887    2.174071    0.014291
     17          1           0        0.259455   -2.018130    0.153349
     18          7           0        2.291697    3.429253   -0.619187
     19          7           0        4.065975   -3.287679    0.367292
     20          8           0        1.879789   -3.923028    0.256540
     21          8           0        6.273152   -2.686851    0.520240
     22          8           0        4.468256    4.069925   -0.310006
     23          8           0        0.197592    2.816177   -1.236332
     24          6           0        1.926159    4.809097   -0.959818
     25          1           0        1.862677    4.937730   -2.043072
     26          1           0        0.955948    5.040733   -0.526055
     27          1           0        2.691220    5.468718   -0.562850
     28          6           0        4.418693   -4.704805    0.515610
     29          1           0        3.998560   -5.102174    1.440901
     30          1           0        4.014833   -5.274634   -0.321033
     31          1           0        5.500361   -4.782502    0.536990
     32          6           0       -0.863996    0.353273    0.078001
     33          6           0       -1.495382    1.451875    0.613631
     34         16           0       -2.049495   -0.853154   -0.401703
     35          6           0       -2.902925    1.319950    0.676966
     36          1           0       -0.962013    2.319619    0.965331
     37          6           0       -3.397106    0.125378    0.163428
     38          8           0       -3.771733    2.237794    1.184603
     39          6           0       -4.767396   -0.308759    0.074992
     40          6           0       -3.233131    3.457656    1.704680
     41          6           0       -5.259825   -1.503011   -0.439157
     42         16           0       -6.117052    0.676899    0.638483
     43          1           0       -4.087846    4.038539    2.045320
     44          1           0       -2.564312    3.262182    2.547386
     45          1           0       -2.699355    4.012151    0.928163
     46          6           0       -6.678259   -1.624948   -0.382290
     47          8           0       -4.394665   -2.427722   -0.938430
     48          6           0       -7.269315   -0.525738    0.173201
     49          1           0       -7.232080   -2.482622   -0.735295
     50          6           0       -4.939596   -3.644778   -1.458806
     51          1           0       -8.321240   -0.349737    0.338358
     52          1           0       -5.605814   -3.445892   -2.302748
     53          1           0       -4.087843   -4.230831   -1.797756
     54          1           0       -5.477366   -4.196123   -0.682657
 ---------------------------------------------------------------------

 The electronic state is 2-A.
 Alpha  occ. eigenvalues --  -88.88060 -88.87687 -19.16439 -19.16339 -19.09999
 Alpha  occ. eigenvalues --  -19.09950 -19.09583 -19.09399 -14.36767 -14.36346
 Alpha  occ. eigenvalues --  -10.28441 -10.28234 -10.28039 -10.27953 -10.24181
 Alpha  occ. eigenvalues --  -10.24013 -10.22536 -10.22476 -10.21428 -10.21389
 Alpha  occ. eigenvalues --  -10.21141 -10.20705 -10.20435 -10.20332 -10.20105
 Alpha  occ. eigenvalues --  -10.19765 -10.19622 -10.19309 -10.18956 -10.18892
 Alpha  occ. eigenvalues --  -10.18757 -10.18557 -10.18364 -10.18150 -10.18062
 Alpha  occ. eigenvalues --  -10.17800  -7.96622  -7.96259  -5.92930  -5.92576
 Alpha  occ. eigenvalues --   -5.92546  -5.92194  -5.92191  -5.91811  -1.07784
 Alpha  occ. eigenvalues --   -1.07647  -1.05920  -1.05612  -1.03874  -1.03504
 Alpha  occ. eigenvalues --   -0.93977  -0.93564  -0.89987  -0.89233  -0.87870
 Alpha  occ. eigenvalues --   -0.84147  -0.81817  -0.78853  -0.76601  -0.75826
 Alpha  occ. eigenvalues --   -0.75367  -0.74446  -0.73416  -0.72321  -0.70726
 Alpha  occ. eigenvalues --   -0.70357  -0.69354  -0.67536  -0.65125  -0.63996
 Alpha  occ. eigenvalues --   -0.63286  -0.62550  -0.59879  -0.58678  -0.56639
 Alpha  occ. eigenvalues --   -0.55707  -0.55407  -0.55040  -0.54046  -0.53158
 Alpha  occ. eigenvalues --   -0.51581  -0.49536  -0.48969  -0.48230  -0.47874
 Alpha  occ. eigenvalues --   -0.47815  -0.47715  -0.47466  -0.47225  -0.47047
 Alpha  occ. eigenvalues --   -0.46551  -0.45261  -0.45106  -0.44671  -0.44368
 Alpha  occ. eigenvalues --   -0.43897  -0.43111  -0.42905  -0.42295  -0.42015
 Alpha  occ. eigenvalues --   -0.41479  -0.41187  -0.41018  -0.40546  -0.40307
 Alpha  occ. eigenvalues --   -0.40175  -0.39861  -0.39402  -0.39087  -0.38832
 Alpha  occ. eigenvalues --   -0.38150  -0.37662  -0.37121  -0.36737  -0.35770
 Alpha  occ. eigenvalues --   -0.34980  -0.34657  -0.33619  -0.33399  -0.32914
 Alpha  occ. eigenvalues --   -0.32442  -0.30124  -0.29398  -0.28930  -0.28156
 Alpha  occ. eigenvalues --   -0.27978  -0.27260  -0.26929  -0.26361  -0.26148
 Alpha  occ. eigenvalues --   -0.24652  -0.24307  -0.23792  -0.19086  -0.15369
 Alpha virt. eigenvalues --   -0.06632  -0.05339  -0.03259  -0.02489  -0.00296
 Alpha virt. eigenvalues --    0.00376   0.00416   0.00617   0.00886   0.01399
 Alpha virt. eigenvalues --    0.01771   0.02237   0.02365   0.02580   0.02792

  Beta  occ. eigenvalues --  -88.88060 -88.87677 -19.16423 -19.16344 -19.09815
  Beta  occ. eigenvalues --  -19.09756 -19.09408 -19.09213 -14.36820 -14.36398
  Beta  occ. eigenvalues --  -10.28382 -10.28176 -10.27980 -10.27898 -10.24148
  Beta  occ. eigenvalues --  -10.24036 -10.22537 -10.22475 -10.21435 -10.21330
  Beta  occ. eigenvalues --  -10.21189 -10.20588 -10.20483 -10.20301 -10.20161
  Beta  occ. eigenvalues --  -10.19764 -10.19621 -10.19154 -10.18811 -10.18727
  Beta  occ. eigenvalues --  -10.18609 -10.18500 -10.18376 -10.18072 -10.17982
  Beta  occ. eigenvalues --  -10.17747  -7.96621  -7.96250  -5.92930  -5.92571
  Beta  occ. eigenvalues --   -5.92546  -5.92189  -5.92189  -5.91781  -1.07756
  Beta  occ. eigenvalues --   -1.07653  -1.05679  -1.05382  -1.03547  -1.03191
  Beta  occ. eigenvalues --   -0.93864  -0.93458  -0.89889  -0.89140  -0.87820
  Beta  occ. eigenvalues --   -0.83837  -0.81528  -0.78712  -0.76484  -0.75509
  Beta  occ. eigenvalues --   -0.75208  -0.74406  -0.73349  -0.72259  -0.70679
  Beta  occ. eigenvalues --   -0.70081  -0.69204  -0.67418  -0.64970  -0.63807
  Beta  occ. eigenvalues --   -0.63197  -0.62361  -0.59829  -0.58618  -0.56554
  Beta  occ. eigenvalues --   -0.55603  -0.55371  -0.54933  -0.54023  -0.53008
  Beta  occ. eigenvalues --   -0.51478  -0.49399  -0.48856  -0.47971  -0.47795
  Beta  occ. eigenvalues --   -0.47736  -0.47556  -0.47448  -0.47158  -0.46926
  Beta  occ. eigenvalues --   -0.46500  -0.45207  -0.45018  -0.44583  -0.44242
  Beta  occ. eigenvalues --   -0.43813  -0.42934  -0.42733  -0.42040  -0.41926
  Beta  occ. eigenvalues --   -0.41370  -0.41087  -0.40914  -0.40282  -0.39906
  Beta  occ. eigenvalues --   -0.39850  -0.39483  -0.39079  -0.38655  -0.38558
  Beta  occ. eigenvalues --   -0.38071  -0.37514  -0.36823  -0.36687  -0.35744
  Beta  occ. eigenvalues --   -0.34876  -0.34391  -0.33477  -0.33383  -0.32878
  Beta  occ. eigenvalues --   -0.31934  -0.29449  -0.28925  -0.28586  -0.27857
  Beta  occ. eigenvalues --   -0.27506  -0.26963  -0.26723  -0.26104  -0.25772
  Beta  occ. eigenvalues --   -0.24333  -0.24078  -0.22664  -0.18665
  Beta virt. eigenvalues --   -0.11139  -0.06045  -0.04416  -0.02406  -0.02231
  Beta virt. eigenvalues --   -0.00280   0.00417   0.00566   0.00623   0.00957
  Beta virt. eigenvalues --    0.01424   0.01785   0.02303   0.02636   0.02791

 Mulliken charges and spin densities:
               1          2
     1  C    0.322661   0.026553
     2  C   -0.131565   0.116285
     3  C    0.169500  -0.036492
     4  C    0.196093   0.099445
     5  C    0.250623   0.025960
     6  C   -0.079753   0.043910
     7  C    0.228551  -0.028138
     8  C    0.511907   0.115140
     9  C    0.220537   0.081151
    10  C   -0.767065   0.021428
    11  C    0.273528   0.025242
    12  C    0.087473   0.097185
    13  C   -0.502085   0.057887
    14  C   -0.611067   0.062022
    15  H    0.144063  -0.004200
    16  H    0.144534  -0.004066
    17  H    0.148949  -0.002053
    18  N   -0.015410  -0.021817
    19  N   -0.132076  -0.022417
    20  O   -0.434349   0.072025
    21  O   -0.415291   0.068353
    22  O   -0.432305   0.065489
    23  O   -0.352700   0.069517
    24  C   -0.186516   0.001443
    25  H    0.176824  -0.001172
    26  H    0.171606  -0.000552
    27  H    0.172993  -0.000429
    28  C   -0.210375   0.001167
    29  H    0.174531  -0.001006
    30  H    0.170149  -0.000870
    31  H    0.173586  -0.000326
    32  C   -0.083388  -0.035667
    33  C   -0.500141   0.039844
    34  S   -0.642486   0.017049
    35  C   -0.307466  -0.012617
    36  H    0.159689  -0.002774
    37  C    0.698085   0.044647
    38  O   -0.161238  -0.000593
    39  C    0.833982  -0.013708
    40  C   -0.240636   0.000088
    41  C    0.035072   0.021756
    42  S   -0.222541  -0.000337
    43  H    0.175365  -0.000002
    44  H    0.161262  -0.000143
    45  H    0.162364  -0.000246
    46  C   -0.625258  -0.008978
    47  O   -0.163498   0.003404
    48  C   -0.333856   0.022157
    49  H    0.159867   0.000406
    50  C   -0.251250  -0.000219
    51  H    0.187471  -0.001325
    52  H    0.158598   0.000296
    53  H    0.173181  -0.000011
    54  H    0.159267   0.000311
 Sum of Mulliken charges =  -1.00000   1.00000

 Dipole moment (field-independent basis, Debye):
    X=            -15.4759    Y=             -0.5722    Z=              1.3204  Tot=             15.5426
 Quadrupole moment (field-independent basis, Debye-Ang):
   XX=           -294.2588   YY=           -248.6388   ZZ=           -227.0829
   XY=              8.8933   XZ=             -0.6789   YZ=             18.5388

 Normal termination of Gaussian 16 at Thu Oct 28 10:48:26 2021.
