 Gaussian 16, Revision C.01,
 Gaussian 16:  ES64L-G16RevC.01  3-Jul-2019

 ---------------------------------------------------------------
 # opt=modredundant b3lyp/6-311+g(d,p) scrf=(pcm, solvent=water)
 ---------------------------------------------------------------

 ----------
 NDI_95.pdb
 ----------
 Symbolic Z-matrix:
 Charge = -1 Multiplicity = 2

 SCF Done:  E(UB3LYP) =  -2359.49533761     A.U. after   22 cycles
 SCF Done:  E(UB3LYP) =  -2359.50185917     A.U. after   19 cycles
 SCF Done:  E(UB3LYP) =  -2359.50291897     A.U. after   18 cycles
 SCF Done:  E(UB3LYP) =  -2359.50298875     A.U. after   15 cycles
 SCF Done:  E(UB3LYP) =  -2359.50330880     A.U. after   14 cycles
 SCF Done:  E(UB3LYP) =  -2359.50334159     A.U. after   14 cycles
 SCF Done:  E(UB3LYP) =  -2359.50336814     A.U. after   12 cycles
 SCF Done:  E(UB3LYP) =  -2359.50337414     A.U. after   11 cycles
 SCF Done:  E(UB3LYP) =  -2359.50338021     A.U. after   12 cycles
 SCF Done:  E(UB3LYP) =  -2359.50338502     A.U. after   11 cycles
 SCF Done:  E(UB3LYP) =  -2359.50338889     A.U. after   11 cycles
 SCF Done:  E(UB3LYP) =  -2359.50339355     A.U. after   10 cycles
 SCF Done:  E(UB3LYP) =  -2359.50339514     A.U. after   10 cycles
 SCF Done:  E(UB3LYP) =  -2359.50339560     A.U. after    9 cycles
 SCF Done:  E(UB3LYP) =  -2359.50339582     A.U. after    9 cycles
 SCF Done:  E(UB3LYP) =  -2359.50339587     A.U. after    9 cycles
 SCF Done:  E(UB3LYP) =  -2359.50339593     A.U. after    9 cycles
 SCF Done:  E(UB3LYP) =  -2359.50339595     A.U. after    8 cycles
 Optimization completed.
    -- Stationary point found.

                         Standard orientation:
 ---------------------------------------------------------------------
 Center     Atomic      Atomic             Coordinates (Angstroms)
 Number     Number       Type             X           Y           Z
 ---------------------------------------------------------------------
      1          6           0        3.251111   -2.833624   -0.109443
      2          6           0        2.637554   -1.512858   -0.128542
      3          6           0        3.429672   -0.357771    0.056381
      4          6           0        4.825846   -0.462193    0.263181
      5          6           0        5.468777   -1.771349    0.287498
      6          6           0        1.255447   -1.384382   -0.329938
      7          6           0        2.800418    0.930844    0.029997
      8          6           0        1.395737    1.037536   -0.179147
      9          6           0        0.621760   -0.148355   -0.359302
     10          6           0        0.791869    2.369151   -0.211723
     11          6           0        3.024546    3.410852    0.195556
     12          6           0        3.612106    2.078646    0.215435
     13          6           0        4.999950    1.944720    0.421053
     14          6           0        5.598036    0.701303    0.444659
     15          1           0        6.664196    0.601888    0.602037
     16          1           0        5.587520    2.842990    0.559509
     17          1           0        0.669430   -2.284165   -0.465199
     18          7           0        1.644536    3.472688   -0.022396
     19          7           0        4.634625   -2.887069    0.103170
     20          8           0        2.619681   -3.886107   -0.268263
     21          8           0        6.684496   -1.922436    0.459847
     22          8           0        3.685368    4.445273    0.357725
     23          8           0       -0.409020    2.589050   -0.393452
     24          6           0        1.001413    4.791659   -0.061598
     25          1           0        0.505089    4.935629   -1.021603
     26          1           0        0.253265    4.866969    0.728361
     27          1           0        1.770457    5.543380    0.079459
     28          6           0        5.236522   -4.225509    0.125006
     29          1           0        4.761026   -4.832913    0.895380
     30          1           0        5.094684   -4.715600   -0.839188
     31          1           0        6.295099   -4.115213    0.334143
     32          6           0       -0.844970   -0.164229   -0.589076
     33          6           0       -1.511095   -0.213709   -1.781387
     34         16           0       -1.950902   -0.259061    0.755157
     35          6           0       -2.925521   -0.295897   -1.625438
     36          1           0       -1.005046   -0.173920   -2.735154
     37          6           0       -3.356973   -0.329026   -0.308713
     38          8           0       -3.838966   -0.351417   -2.636222
     39          6           0       -4.709610   -0.419330    0.189888
     40          6           0       -3.356607   -0.282570   -3.981663
     41          6           0       -5.139126   -0.462518    1.509152
     42         16           0       -6.112121   -0.487037   -0.875858
     43          1           0       -4.238839   -0.330406   -4.616933
     44          1           0       -2.827497    0.657495   -4.160907
     45          1           0       -2.699007   -1.126866   -4.206402
     46          6           0       -6.554179   -0.546476    1.663444
     47          8           0       -4.223300   -0.425052    2.518559
     48          6           0       -7.204852   -0.567648    0.462980
     49          1           0       -7.062996   -0.589239    2.615460
     50          6           0       -4.708056   -0.456861    3.864241
     51          1           0       -8.267356   -0.627096    0.283385
     52          1           0       -5.254870   -1.382950    4.062728
     53          1           0       -3.825740   -0.412896    4.499621
     54          1           0       -5.349912    0.404224    4.070541
 ---------------------------------------------------------------------

 The electronic state is 2-A.
 Alpha  occ. eigenvalues --  -88.87906 -88.87468 -19.16210 -19.16204 -19.09902
 Alpha  occ. eigenvalues --  -19.09889 -19.09724 -19.09583 -14.36733 -14.36523
 Alpha  occ. eigenvalues --  -10.28355 -10.28172 -10.28151 -10.28139 -10.23878
 Alpha  occ. eigenvalues --  -10.23801 -10.22449 -10.22426 -10.21222 -10.21036
 Alpha  occ. eigenvalues --  -10.20879 -10.20512 -10.20445 -10.20303 -10.20103
 Alpha  occ. eigenvalues --  -10.19741 -10.19662 -10.19607 -10.18954 -10.18926
 Alpha  occ. eigenvalues --  -10.18921 -10.18469 -10.18257 -10.18229 -10.18189
 Alpha  occ. eigenvalues --  -10.17669  -7.96469  -7.96033  -5.92777  -5.92393
 Alpha  occ. eigenvalues --   -5.92355  -5.92039  -5.91968  -5.91575  -1.07532
 Alpha  occ. eigenvalues --   -1.07448  -1.05842  -1.05766  -1.03779  -1.03683
 Alpha  occ. eigenvalues --   -0.93937  -0.93690  -0.89910  -0.89155  -0.87716
 Alpha  occ. eigenvalues --   -0.84185  -0.81907  -0.78701  -0.76327  -0.75895
 Alpha  occ. eigenvalues --   -0.75297  -0.74270  -0.73456  -0.72144  -0.70764
 Alpha  occ. eigenvalues --   -0.70180  -0.69341  -0.67485  -0.65136  -0.64084
 Alpha  occ. eigenvalues --   -0.63139  -0.62656  -0.59743  -0.58516  -0.56674
 Alpha  occ. eigenvalues --   -0.55676  -0.55250  -0.54979  -0.53870  -0.53032
 Alpha  occ. eigenvalues --   -0.51592  -0.49509  -0.48980  -0.48264  -0.47913
 Alpha  occ. eigenvalues --   -0.47781  -0.47656  -0.47337  -0.47237  -0.46979
 Alpha  occ. eigenvalues --   -0.46575  -0.45108  -0.45004  -0.44744  -0.44490
 Alpha  occ. eigenvalues --   -0.43977  -0.43243  -0.42882  -0.42532  -0.42143
 Alpha  occ. eigenvalues --   -0.41257  -0.40872  -0.40790  -0.40409  -0.40403
 Alpha  occ. eigenvalues --   -0.40260  -0.39836  -0.39691  -0.39142  -0.38294
 Alpha  occ. eigenvalues --   -0.38039  -0.37493  -0.37335  -0.36872  -0.35532
 Alpha  occ. eigenvalues --   -0.34832  -0.33754  -0.33607  -0.33118  -0.32925
 Alpha  occ. eigenvalues --   -0.32703  -0.30089  -0.29199  -0.28671  -0.28215
 Alpha  occ. eigenvalues --   -0.27768  -0.27456  -0.26801  -0.26624  -0.26113
 Alpha  occ. eigenvalues --   -0.24420  -0.24354  -0.24087  -0.18772  -0.15645
 Alpha virt. eigenvalues --   -0.05813  -0.04630  -0.03768  -0.02949  -0.00306
 Alpha virt. eigenvalues --   -0.00104   0.00322   0.00802   0.00988   0.01105
 Alpha virt. eigenvalues --    0.01494   0.02290   0.02367   0.02477   0.02564

  Beta  occ. eigenvalues --  -88.87906 -88.87463 -19.16210 -19.16203 -19.09705
  Beta  occ. eigenvalues --  -19.09686 -19.09534 -19.09363 -14.36789 -14.36579
  Beta  occ. eigenvalues --  -10.28293 -10.28112 -10.28098 -10.28080 -10.23879
  Beta  occ. eigenvalues --  -10.23799 -10.22449 -10.22426 -10.21221 -10.21043
  Beta  occ. eigenvalues --  -10.20879 -10.20569 -10.20358 -10.20342 -10.20103
  Beta  occ. eigenvalues --  -10.19740 -10.19606 -10.19484 -10.18797 -10.18762
  Beta  occ. eigenvalues --  -10.18750 -10.18399 -10.18229 -10.18168 -10.18105
  Beta  occ. eigenvalues --  -10.17661  -7.96469  -7.96027  -5.92777  -5.92393
  Beta  occ. eigenvalues --   -5.92347  -5.92039  -5.91962  -5.91572  -1.07531
  Beta  occ. eigenvalues --   -1.07446  -1.05587  -1.05508  -1.03433  -1.03333
  Beta  occ. eigenvalues --   -0.93814  -0.93572  -0.89794  -0.89097  -0.87681
  Beta  occ. eigenvalues --   -0.83861  -0.81595  -0.78570  -0.76222  -0.75520
  Beta  occ. eigenvalues --   -0.75163  -0.74251  -0.73384  -0.72105  -0.70722
  Beta  occ. eigenvalues --   -0.69844  -0.69222  -0.67389  -0.64982  -0.63881
  Beta  occ. eigenvalues --   -0.63049  -0.62468  -0.59706  -0.58463  -0.56590
  Beta  occ. eigenvalues --   -0.55540  -0.55246  -0.54866  -0.53866  -0.52885
  Beta  occ. eigenvalues --   -0.51467  -0.49338  -0.48916  -0.47982  -0.47721
  Beta  occ. eigenvalues --   -0.47662  -0.47623  -0.47332  -0.47166  -0.46860
  Beta  occ. eigenvalues --   -0.46537  -0.45048  -0.44857  -0.44718  -0.44383
  Beta  occ. eigenvalues --   -0.43868  -0.43071  -0.42702  -0.42376  -0.41881
  Beta  occ. eigenvalues --   -0.41209  -0.40862  -0.40711  -0.40150  -0.39955
  Beta  occ. eigenvalues --   -0.39809  -0.39482  -0.39109  -0.38774  -0.38166
  Beta  occ. eigenvalues --   -0.38005  -0.37282  -0.37072  -0.36789  -0.35524
  Beta  occ. eigenvalues --   -0.34747  -0.33627  -0.33411  -0.33070  -0.32879
  Beta  occ. eigenvalues --   -0.32080  -0.29034  -0.29031  -0.28529  -0.27642
  Beta  occ. eigenvalues --   -0.27527  -0.27126  -0.26607  -0.25945  -0.25931
  Beta  occ. eigenvalues --   -0.24398  -0.24067  -0.22777  -0.18764
  Beta virt. eigenvalues --   -0.11017  -0.04633  -0.04601  -0.02967  -0.02266
  Beta virt. eigenvalues --   -0.00289  -0.00099   0.00330   0.00810   0.01001
  Beta virt. eigenvalues --    0.01115   0.01501   0.02364   0.02523   0.02854

 Mulliken charges and spin densities:
               1          2
     1  C    0.438547   0.025359
     2  C    0.038322   0.126023
     3  C    0.219714  -0.039914
     4  C    0.175138   0.111060
     5  C    0.290590   0.026644
     6  C   -0.600713   0.053257
     7  C    0.208359  -0.035591
     8  C   -0.110135   0.132315
     9  C    0.478467   0.074977
    10  C   -0.352312   0.024377
    11  C    0.225736   0.026146
    12  C    0.194236   0.113226
    13  C   -0.564775   0.058853
    14  C   -0.656691   0.066212
    15  H    0.144468  -0.004677
    16  H    0.144932  -0.004337
    17  H    0.137461  -0.003644
    18  N   -0.155721  -0.022919
    19  N   -0.138858  -0.023492
    20  O   -0.427949   0.075535
    21  O   -0.419702   0.073335
    22  O   -0.420128   0.070962
    23  O   -0.272874   0.082199
    24  C   -0.226580   0.001308
    25  H    0.171764  -0.000964
    26  H    0.173806  -0.001017
    27  H    0.174792  -0.000344
    28  C   -0.209299   0.001428
    29  H    0.170879  -0.000963
    30  H    0.173013  -0.001044
    31  H    0.173985  -0.000348
    32  C    0.081928  -0.026215
    33  C   -0.455238   0.006845
    34  S   -0.128136   0.009351
    35  C   -0.130027   0.004415
    36  H    0.139102  -0.000006
    37  C    0.199176   0.002312
    38  O   -0.173544   0.000039
    39  C    0.734982  -0.000076
    40  C   -0.235328   0.000090
    41  C    0.050038  -0.000633
    42  S   -0.255675   0.000175
    43  H    0.173868  -0.000008
    44  H    0.163394   0.000036
    45  H    0.160777  -0.000019
    46  C   -0.534604  -0.000323
    47  O   -0.180445   0.000072
    48  C   -0.373234  -0.000154
    49  H    0.158285  -0.000003
    50  C   -0.246391   0.000120
    51  H    0.185218   0.000017
    52  H    0.157284   0.000001
    53  H    0.171806   0.000004
    54  H    0.158290  -0.000002
 Sum of Mulliken charges =  -1.00000   1.00000

 Dipole moment (field-independent basis, Debye):
    X=            -13.9844    Y=             -1.2078    Z=             -0.2658  Tot=             14.0390
 Quadrupole moment (field-independent basis, Debye-Ang):
   XX=           -299.6305   YY=           -276.3802   ZZ=           -197.6179
   XY=             -0.5405   XZ=            -17.6551   YZ=             -3.4038

 Normal termination of Gaussian 16 at Thu Oct 28 07:26:50 2021.
