 Gaussian 16, Revision C.01,
 Gaussian 16:  ES64L-G16RevC.01  3-Jul-2019

 ---------------------------------------------------------------
 # opt=modredundant b3lyp/6-311+g(d,p) scrf=(pcm, solvent=water)
 ---------------------------------------------------------------

 -----------
 NDI_-45.pdb
 -----------
 Symbolic Z-matrix:
 Charge = -1 Multiplicity = 2

 SCF Done:  E(UB3LYP) =  -2359.49791387     A.U. after   21 cycles
 SCF Done:  E(UB3LYP) =  -2359.50252411     A.U. after   18 cycles
 SCF Done:  E(UB3LYP) =  -2359.50329195     A.U. after   17 cycles
 SCF Done:  E(UB3LYP) =  -2359.50355953     A.U. after   16 cycles
 SCF Done:  E(UB3LYP) =  -2359.50369917     A.U. after   15 cycles
 SCF Done:  E(UB3LYP) =  -2359.50375523     A.U. after   17 cycles
 SCF Done:  E(UB3LYP) =  -2359.50379324     A.U. after   15 cycles
 SCF Done:  E(UB3LYP) =  -2359.50380684     A.U. after   13 cycles
 SCF Done:  E(UB3LYP) =  -2359.50381869     A.U. after   12 cycles
 SCF Done:  E(UB3LYP) =  -2359.50383002     A.U. after   13 cycles
 SCF Done:  E(UB3LYP) =  -2359.50385183     A.U. after   13 cycles
 SCF Done:  E(UB3LYP) =  -2359.50385345     A.U. after   13 cycles
 SCF Done:  E(UB3LYP) =  -2359.50385385     A.U. after   10 cycles
 SCF Done:  E(UB3LYP) =  -2359.50385419     A.U. after   10 cycles
 SCF Done:  E(UB3LYP) =  -2359.50385497     A.U. after    9 cycles
 SCF Done:  E(UB3LYP) =  -2359.50385560     A.U. after   11 cycles
 SCF Done:  E(UB3LYP) =  -2359.50385606     A.U. after   10 cycles
 SCF Done:  E(UB3LYP) =  -2359.50385620     A.U. after    9 cycles
 SCF Done:  E(UB3LYP) =  -2359.50385624     A.U. after    8 cycles
 SCF Done:  E(UB3LYP) =  -2359.50385626     A.U. after    8 cycles
 Optimization completed.
    -- Stationary point found.

                         Standard orientation:
 ---------------------------------------------------------------------
 Center     Atomic      Atomic             Coordinates (Angstroms)
 Number     Number       Type             X           Y           Z
 ---------------------------------------------------------------------
      1          6           0        2.810812   -2.948740    0.433773
      2          6           0        2.394801   -1.569359    0.215842
      3          6           0        3.363152   -0.548900    0.072431
      4          6           0        4.743435   -0.844583    0.145139
      5          6           0        5.190256   -2.216180    0.367305
      6          6           0        1.033833   -1.244103    0.206364
      7          6           0        2.923710    0.796535   -0.158244
      8          6           0        1.532687    1.094198   -0.242549
      9          6           0        0.574747    0.058761    0.013453
     10          6           0        1.146652    2.425365   -0.709681
     11          6           0        3.521118    3.181435   -0.577768
     12          6           0        3.910128    1.803338   -0.314594
     13          6           0        5.279674    1.482610   -0.225447
     14          6           0        5.692749    0.185628   -0.000034
     15          1           0        6.744869   -0.059835    0.062311
     16          1           0        6.002120    2.279833   -0.343739
     17          1           0        0.324404   -2.034652    0.413538
     18          7           0        2.153915    3.410983   -0.749302
     19          7           0        4.188966   -3.194219    0.489141
     20          8           0        2.020223   -3.891015    0.568509
     21          8           0        6.383653   -2.531270    0.445512
     22          8           0        4.333557    4.111318   -0.673000
     23          8           0        0.014688    2.739796   -1.088461
     24          6           0        1.721359    4.764777   -1.115374
     25          1           0        1.486318    4.819848   -2.180789
     26          1           0        0.828255    5.024075   -0.550308
     27          1           0        2.530882    5.450131   -0.886404
     28          6           0        4.592206   -4.589211    0.702724
     29          1           0        4.229969   -4.940504    1.669958
     30          1           0        4.166134   -5.220780   -0.076887
     31          1           0        5.675539   -4.634836    0.673210
     32          6           0       -0.863308    0.296401    0.207099
     33          6           0       -1.487861    1.254365    0.965836
     34         16           0       -2.035685   -0.788096   -0.507910
     35          6           0       -2.898990    1.119462    0.986518
     36          1           0       -0.946710    2.023993    1.494892
     37          6           0       -3.389636    0.058305    0.234182
     38          8           0       -3.770225    1.915071    1.667990
     39          6           0       -4.761191   -0.341317    0.040561
     40          6           0       -3.235635    3.020913    2.402491
     41          6           0       -5.248844   -1.406275   -0.706873
     42         16           0       -6.116326    0.521900    0.767037
     43          1           0       -4.091621    3.524212    2.847517
     44          1           0       -2.562392    2.677454    3.192753
     45          1           0       -2.707787    3.712273    1.739985
     46          6           0       -6.668816   -1.527915   -0.697814
     47          8           0       -4.377947   -2.219579   -1.366836
     48          6           0       -7.265688   -0.556996    0.055087
     49          1           0       -7.219327   -2.295328   -1.222326
     50          6           0       -4.917798   -3.312882   -2.116035
     51          1           0       -8.319452   -0.410632    0.236488
     52          1           0       -5.574714   -2.954774   -2.913508
     53          1           0       -4.062906   -3.825755   -2.552002
     54          1           0       -5.464458   -4.001302   -1.465652
 ---------------------------------------------------------------------

 The electronic state is 2-A.
 Alpha  occ. eigenvalues --  -88.87999 -88.87718 -19.16357 -19.16288 -19.09942
 Alpha  occ. eigenvalues --  -19.09908 -19.09635 -19.09448 -14.36739 -14.36396
 Alpha  occ. eigenvalues --  -10.28385 -10.28192 -10.28088 -10.28021 -10.24058
 Alpha  occ. eigenvalues --  -10.23955 -10.22505 -10.22459 -10.21342 -10.21214
 Alpha  occ. eigenvalues --  -10.21053 -10.20591 -10.20448 -10.20240 -10.20170
 Alpha  occ. eigenvalues --  -10.19747 -10.19611 -10.19409 -10.18940 -10.18898
 Alpha  occ. eigenvalues --  -10.18809 -10.18504 -10.18313 -10.18177 -10.18107
 Alpha  occ. eigenvalues --  -10.17758  -7.96561  -7.96284  -5.92869  -5.92600
 Alpha  occ. eigenvalues --   -5.92485  -5.92217  -5.92131  -5.91837  -1.07690
 Alpha  occ. eigenvalues --   -1.07579  -1.05869  -1.05655  -1.03814  -1.03561
 Alpha  occ. eigenvalues --   -0.93943  -0.93595  -0.89975  -0.89209  -0.87841
 Alpha  occ. eigenvalues --   -0.84157  -0.81840  -0.78799  -0.76511  -0.75833
 Alpha  occ. eigenvalues --   -0.75341  -0.74409  -0.73420  -0.72261  -0.70726
 Alpha  occ. eigenvalues --   -0.70311  -0.69337  -0.67521  -0.65116  -0.64012
 Alpha  occ. eigenvalues --   -0.63236  -0.62574  -0.59831  -0.58616  -0.56638
 Alpha  occ. eigenvalues --   -0.55666  -0.55356  -0.55025  -0.53981  -0.53130
 Alpha  occ. eigenvalues --   -0.51553  -0.49521  -0.48986  -0.48224  -0.47872
 Alpha  occ. eigenvalues --   -0.47757  -0.47736  -0.47421  -0.47222  -0.47012
 Alpha  occ. eigenvalues --   -0.46553  -0.45212  -0.45057  -0.44668  -0.44397
 Alpha  occ. eigenvalues --   -0.43933  -0.43162  -0.42877  -0.42360  -0.42092
 Alpha  occ. eigenvalues --   -0.41396  -0.41086  -0.40917  -0.40486  -0.40335
 Alpha  occ. eigenvalues --   -0.40182  -0.39847  -0.39484  -0.39097  -0.38687
 Alpha  occ. eigenvalues --   -0.38128  -0.37631  -0.37161  -0.36816  -0.35713
 Alpha  occ. eigenvalues --   -0.34913  -0.34331  -0.33553  -0.33324  -0.33001
 Alpha  occ. eigenvalues --   -0.32565  -0.30083  -0.29353  -0.28843  -0.28136
 Alpha  occ. eigenvalues --   -0.27942  -0.27323  -0.26877  -0.26377  -0.26174
 Alpha  occ. eigenvalues --   -0.24562  -0.24264  -0.23920  -0.18984  -0.15449
 Alpha virt. eigenvalues --   -0.06240  -0.05219  -0.03334  -0.02645  -0.00283
 Alpha virt. eigenvalues --    0.00163   0.00390   0.00702   0.00871   0.01288
 Alpha virt. eigenvalues --    0.01708   0.02301   0.02382   0.02458   0.02673

  Beta  occ. eigenvalues --  -88.87998 -88.87713 -19.16347 -19.16292 -19.09752
  Beta  occ. eigenvalues --  -19.09710 -19.09455 -19.09255 -14.36793 -14.36449
  Beta  occ. eigenvalues --  -10.28324 -10.28132 -10.28032 -10.27966 -10.24037
  Beta  occ. eigenvalues --  -10.23973 -10.22505 -10.22458 -10.21355 -10.21165
  Beta  occ. eigenvalues --  -10.21087 -10.20499 -10.20485 -10.20226 -10.20219
  Beta  occ. eigenvalues --  -10.19746 -10.19610 -10.19245 -10.18789 -10.18730
  Beta  occ. eigenvalues --  -10.18655 -10.18438 -10.18321 -10.18096 -10.18025
  Beta  occ. eigenvalues --  -10.17718  -7.96560  -7.96279  -5.92869  -5.92596
  Beta  occ. eigenvalues --   -5.92485  -5.92214  -5.92129  -5.91822  -1.07674
  Beta  occ. eigenvalues --   -1.07582  -1.05621  -1.05417  -1.03478  -1.03238
  Beta  occ. eigenvalues --   -0.93826  -0.93485  -0.89876  -0.89124  -0.87798
  Beta  occ. eigenvalues --   -0.83844  -0.81543  -0.78663  -0.76398  -0.75489
  Beta  occ. eigenvalues --   -0.75195  -0.74379  -0.73351  -0.72208  -0.70681
  Beta  occ. eigenvalues --   -0.70020  -0.69190  -0.67409  -0.64962  -0.63817
  Beta  occ. eigenvalues --   -0.63151  -0.62379  -0.59787  -0.58559  -0.56553
  Beta  occ. eigenvalues --   -0.55550  -0.55333  -0.54917  -0.53965  -0.52980
  Beta  occ. eigenvalues --   -0.51444  -0.49377  -0.48889  -0.47956  -0.47757
  Beta  occ. eigenvalues --   -0.47711  -0.47571  -0.47409  -0.47156  -0.46889
  Beta  occ. eigenvalues --   -0.46506  -0.45161  -0.44961  -0.44588  -0.44270
  Beta  occ. eigenvalues --   -0.43846  -0.42982  -0.42706  -0.42182  -0.41901
  Beta  occ. eigenvalues --   -0.41314  -0.41007  -0.40830  -0.40224  -0.39915
  Beta  occ. eigenvalues --   -0.39829  -0.39441  -0.39065  -0.38624  -0.38530
  Beta  occ. eigenvalues --   -0.38082  -0.37469  -0.36844  -0.36778  -0.35695
  Beta  occ. eigenvalues --   -0.34818  -0.34093  -0.33419  -0.33279  -0.32985
  Beta  occ. eigenvalues --   -0.32028  -0.29341  -0.28918  -0.28559  -0.27784
  Beta  occ. eigenvalues --   -0.27496  -0.27014  -0.26665  -0.26052  -0.25820
  Beta  occ. eigenvalues --   -0.24344  -0.24042  -0.22701  -0.18701
  Beta virt. eigenvalues --   -0.11097  -0.05623  -0.04378  -0.02558  -0.02247
  Beta virt. eigenvalues --   -0.00267   0.00312   0.00402   0.00707   0.00898
  Beta virt. eigenvalues --    0.01331   0.01722   0.02375   0.02516   0.02748

 Mulliken charges and spin densities:
               1          2
     1  C    0.397709   0.026950
     2  C   -0.174116   0.117424
     3  C    0.100218  -0.036539
     4  C    0.198928   0.103189
     5  C    0.268288   0.026111
     6  C   -0.445705   0.054521
     7  C    0.192958  -0.031006
     8  C    0.294779   0.118984
     9  C    0.437426   0.072190
    10  C   -0.492522   0.026896
    11  C    0.263952   0.025484
    12  C    0.101925   0.102114
    13  C   -0.495724   0.060860
    14  C   -0.609278   0.063808
    15  H    0.144180  -0.004364
    16  H    0.144422  -0.004210
    17  H    0.153666  -0.002863
    18  N   -0.065897  -0.021977
    19  N   -0.134831  -0.023062
    20  O   -0.433445   0.073787
    21  O   -0.417118   0.070741
    22  O   -0.428059   0.067274
    23  O   -0.320347   0.072117
    24  C   -0.195236   0.001329
    25  H    0.176524  -0.001161
    26  H    0.171168  -0.000602
    27  H    0.173621  -0.000398
    28  C   -0.208818   0.001211
    29  H    0.173727  -0.001023
    30  H    0.170467  -0.000919
    31  H    0.173953  -0.000335
    32  C    0.099085  -0.032559
    33  C   -0.489380   0.027118
    34  S   -0.551550   0.012381
    35  C   -0.288228  -0.009310
    36  H    0.151831  -0.002074
    37  C    0.675049   0.033767
    38  O   -0.166123  -0.000646
    39  C    0.737523  -0.010285
    40  C   -0.237011   0.000177
    41  C    0.002674   0.014456
    42  S   -0.236276  -0.000019
    43  H    0.174421  -0.000005
    44  H    0.160549  -0.000107
    45  H    0.162429  -0.000185
    46  C   -0.599950  -0.006046
    47  O   -0.166316   0.002434
    48  C   -0.329765   0.014649
    49  H    0.159313   0.000270
    50  C   -0.251312  -0.000051
    51  H    0.186478  -0.000872
    52  H    0.158461   0.000186
    53  H    0.172506  -0.000000
    54  H    0.158780   0.000192
 Sum of Mulliken charges =  -1.00000   1.00000

 Dipole moment (field-independent basis, Debye):
    X=            -14.9422    Y=             -0.5322    Z=              1.2049  Tot=             15.0001
 Quadrupole moment (field-independent basis, Debye-Ang):
   XX=           -296.9427   YY=           -253.4465   ZZ=           -221.3444
   XY=              8.4675   XZ=              4.6669   YZ=             24.1805

 Normal termination of Gaussian 16 at Thu Oct 28 06:35:56 2021.
