 Gaussian 16, Revision C.01,
 Gaussian 16:  ES64L-G16RevC.01  3-Jul-2019

 ---------------------------------------------------------------
 # opt=modredundant b3lyp/6-311+g(d,p) scrf=(pcm, solvent=water)
 ---------------------------------------------------------------

 ----------
 NDI_50.pdb
 ----------
 Symbolic Z-matrix:
 Charge = -1 Multiplicity = 2

 SCF Done:  E(UB3LYP) =  -2359.49394748     A.U. after   22 cycles
 SCF Done:  E(UB3LYP) =  -2359.50008116     A.U. after   19 cycles
 SCF Done:  E(UB3LYP) =  -2359.50166989     A.U. after   20 cycles
 SCF Done:  E(UB3LYP) =  -2359.50265158     A.U. after   17 cycles
 SCF Done:  E(UB3LYP) =  -2359.50320681     A.U. after   21 cycles
 SCF Done:  E(UB3LYP) =  -2359.50368352     A.U. after   16 cycles
 SCF Done:  E(UB3LYP) =  -2359.50376521     A.U. after   17 cycles
 SCF Done:  E(UB3LYP) =  -2359.50383658     A.U. after   13 cycles
 SCF Done:  E(UB3LYP) =  -2359.50385235     A.U. after   14 cycles
 SCF Done:  E(UB3LYP) =  -2359.50386878     A.U. after   14 cycles
 SCF Done:  E(UB3LYP) =  -2359.50390706     A.U. after   14 cycles
 SCF Done:  E(UB3LYP) =  -2359.50391605     A.U. after   13 cycles
 SCF Done:  E(UB3LYP) =  -2359.50391915     A.U. after   13 cycles
 SCF Done:  E(UB3LYP) =  -2359.50391989     A.U. after   12 cycles
 SCF Done:  E(UB3LYP) =  -2359.50392026     A.U. after   11 cycles
 SCF Done:  E(UB3LYP) =  -2359.50392061     A.U. after    9 cycles
 SCF Done:  E(UB3LYP) =  -2359.50392120     A.U. after   10 cycles
 SCF Done:  E(UB3LYP) =  -2359.50392178     A.U. after   12 cycles
 SCF Done:  E(UB3LYP) =  -2359.50392209     A.U. after   12 cycles
 SCF Done:  E(UB3LYP) =  -2359.50392225     A.U. after   10 cycles
 Optimization completed.
    -- Stationary point found.

                         Standard orientation:
 ---------------------------------------------------------------------
 Center     Atomic      Atomic             Coordinates (Angstroms)
 Number     Number       Type             X           Y           Z
 ---------------------------------------------------------------------
      1          6           0       -2.837669   -2.934247    0.471603
      2          6           0       -2.409302   -1.560609    0.242606
      3          6           0       -3.368566   -0.536398    0.069424
      4          6           0       -4.751991   -0.822977    0.121445
      5          6           0       -5.211201   -2.188547    0.354003
      6          6           0       -1.045555   -1.244066    0.247010
      7          6           0       -2.917781    0.803757   -0.170084
      8          6           0       -1.523919    1.092042   -0.233876
      9          6           0       -0.577815    0.053580    0.045846
     10          6           0       -1.119019    2.420179   -0.693678
     11          6           0       -3.492475    3.188244   -0.622597
     12          6           0       -3.894763    1.814876   -0.354403
     13          6           0       -5.267544    1.502917   -0.287205
     14          6           0       -5.692042    0.210896   -0.054295
     15          1           0       -6.746562   -0.027826   -0.008606
     16          1           0       -5.983194    2.302623   -0.427778
     17          1           0       -0.342000   -2.035877    0.468858
     18          7           0       -2.120402    3.409588   -0.765472
     19          7           0       -4.218127   -3.170401    0.508411
     20          8           0       -2.055480   -3.879629    0.631619
     21          8           0       -6.407781   -2.495642    0.414334
     22          8           0       -4.297836    4.121201   -0.743804
     23          8           0        0.025083    2.728500   -1.039136
     24          6           0       -1.671433    4.759034   -1.127782
     25          1           0       -0.799839    5.022731   -0.531757
     26          1           0       -1.395949    4.802747   -2.183860
     27          1           0       -2.487594    5.447888   -0.936141
     28          6           0       -4.633524   -4.559591    0.736172
     29          1           0       -4.211414   -5.203831   -0.035370
     30          1           0       -4.276099   -4.902778    1.707983
     31          1           0       -5.717146   -4.596333    0.704370
     32          6           0        0.863334    0.283711    0.239970
     33          6           0        1.488843    1.193080    1.054322
     34         16           0        2.030457   -0.760201   -0.537062
     35          6           0        2.900763    1.056483    1.062847
     36          1           0        0.948040    1.929752    1.629225
     37          6           0        3.388008    0.040721    0.248907
     38          8           0        3.774555    1.810491    1.787254
     39          6           0        4.758833   -0.348829    0.028748
     40          6           0        3.241944    2.865268    2.594594
     41          6           0        5.242485   -1.373273   -0.775307
     42         16           0        6.117470    0.474530    0.793602
     43          1           0        4.099323    3.339894    3.067582
     44          1           0        2.710115    3.597590    1.981069
     45          1           0        2.572810    2.470022    3.363907
     46          6           0        6.662471   -1.496130   -0.778575
     47          8           0        4.367827   -2.150798   -1.472808
     48          6           0        7.263288   -0.566112    0.021308
     49          1           0        7.210213   -2.235674   -1.344407
     50          6           0        4.903926   -3.197132   -2.288655
     51          1           0        8.317867   -0.430308    0.206145
     52          1           0        5.455713   -3.921995   -1.683764
     53          1           0        4.046737   -3.684789   -2.748430
     54          1           0        5.555126   -2.791649   -3.067985
 ---------------------------------------------------------------------

 The electronic state is 2-A.
 Alpha  occ. eigenvalues --  -88.87983 -88.87715 -19.16334 -19.16274 -19.09931
 Alpha  occ. eigenvalues --  -19.09900 -19.09649 -19.09475 -14.36734 -14.36413
 Alpha  occ. eigenvalues --  -10.28375 -10.28184 -10.28104 -10.28039 -10.24026
 Alpha  occ. eigenvalues --  -10.23936 -10.22496 -10.22454 -10.21321 -10.21160
 Alpha  occ. eigenvalues --  -10.21045 -10.20569 -10.20452 -10.20216 -10.20188
 Alpha  occ. eigenvalues --  -10.19743 -10.19614 -10.19440 -10.18938 -10.18901
 Alpha  occ. eigenvalues --  -10.18824 -10.18498 -10.18300 -10.18186 -10.18120
 Alpha  occ. eigenvalues --  -10.17739  -7.96545  -7.96279  -5.92853  -5.92595
 Alpha  occ. eigenvalues --   -5.92469  -5.92212  -5.92115  -5.91832  -1.07665
 Alpha  occ. eigenvalues --   -1.07559  -1.05859  -1.05672  -1.03804  -1.03581
 Alpha  occ. eigenvalues --   -0.93937  -0.93610  -0.89970  -0.89203  -0.87830
 Alpha  occ. eigenvalues --   -0.84161  -0.81850  -0.78784  -0.76488  -0.75838
 Alpha  occ. eigenvalues --   -0.75335  -0.74395  -0.73424  -0.72243  -0.70729
 Alpha  occ. eigenvalues --   -0.70300  -0.69332  -0.67515  -0.65117  -0.64020
 Alpha  occ. eigenvalues --   -0.63222  -0.62583  -0.59819  -0.58600  -0.56641
 Alpha  occ. eigenvalues --   -0.55661  -0.55340  -0.55021  -0.53962  -0.53125
 Alpha  occ. eigenvalues --   -0.51550  -0.49518  -0.48990  -0.48225  -0.47876
 Alpha  occ. eigenvalues --   -0.47747  -0.47739  -0.47407  -0.47222  -0.47006
 Alpha  occ. eigenvalues --   -0.46555  -0.45198  -0.45046  -0.44671  -0.44408
 Alpha  occ. eigenvalues --   -0.43947  -0.43173  -0.42874  -0.42385  -0.42101
 Alpha  occ. eigenvalues --   -0.41375  -0.41058  -0.40895  -0.40472  -0.40345
 Alpha  occ. eigenvalues --   -0.40189  -0.39850  -0.39509  -0.39103  -0.38636
 Alpha  occ. eigenvalues --   -0.38126  -0.37623  -0.37176  -0.36826  -0.35692
 Alpha  occ. eigenvalues --   -0.34901  -0.34236  -0.33554  -0.33301  -0.32991
 Alpha  occ. eigenvalues --   -0.32605  -0.30078  -0.29338  -0.28821  -0.28133
 Alpha  occ. eigenvalues --   -0.27933  -0.27339  -0.26867  -0.26395  -0.26176
 Alpha  occ. eigenvalues --   -0.24542  -0.24252  -0.23963  -0.18954  -0.15472
 Alpha virt. eigenvalues --   -0.06152  -0.05162  -0.03371  -0.02693  -0.00282
 Alpha virt. eigenvalues --    0.00111   0.00383   0.00728   0.00871   0.01256
 Alpha virt. eigenvalues --    0.01687   0.02309   0.02386   0.02442   0.02646

  Beta  occ. eigenvalues --  -88.87982 -88.87710 -19.16325 -19.16278 -19.09739
  Beta  occ. eigenvalues --  -19.09701 -19.09468 -19.09279 -14.36788 -14.36467
  Beta  occ. eigenvalues --  -10.28314 -10.28124 -10.28048 -10.27983 -10.24007
  Beta  occ. eigenvalues --  -10.23952 -10.22496 -10.22453 -10.21332 -10.21117
  Beta  occ. eigenvalues --  -10.21076 -10.20505 -10.20465 -10.20243 -10.20198
  Beta  occ. eigenvalues --  -10.19742 -10.19613 -10.19273 -10.18786 -10.18733
  Beta  occ. eigenvalues --  -10.18668 -10.18431 -10.18306 -10.18104 -10.18037
  Beta  occ. eigenvalues --  -10.17702  -7.96544  -7.96275  -5.92853  -5.92592
  Beta  occ. eigenvalues --   -5.92469  -5.92209  -5.92113  -5.91820  -1.07651
  Beta  occ. eigenvalues --   -1.07562  -1.05610  -1.05432  -1.03466  -1.03255
  Beta  occ. eigenvalues --   -0.93819  -0.93500  -0.89869  -0.89121  -0.87788
  Beta  occ. eigenvalues --   -0.83846  -0.81550  -0.78648  -0.76375  -0.75488
  Beta  occ. eigenvalues --   -0.75192  -0.74368  -0.73355  -0.72193  -0.70685
  Beta  occ. eigenvalues --   -0.70003  -0.69187  -0.67406  -0.64964  -0.63823
  Beta  occ. eigenvalues --   -0.63139  -0.62386  -0.59776  -0.58543  -0.56556
  Beta  occ. eigenvalues --   -0.55541  -0.55320  -0.54913  -0.53948  -0.52975
  Beta  occ. eigenvalues --   -0.51438  -0.49372  -0.48897  -0.47955  -0.47748
  Beta  occ. eigenvalues --   -0.47704  -0.47581  -0.47397  -0.47156  -0.46883
  Beta  occ. eigenvalues --   -0.46510  -0.45148  -0.44947  -0.44595  -0.44282
  Beta  occ. eigenvalues --   -0.43858  -0.42993  -0.42702  -0.42214  -0.41895
  Beta  occ. eigenvalues --   -0.41299  -0.40988  -0.40810  -0.40213  -0.39921
  Beta  occ. eigenvalues --   -0.39824  -0.39440  -0.39067  -0.38645  -0.38487
  Beta  occ. eigenvalues --   -0.38082  -0.37457  -0.36858  -0.36787  -0.35676
  Beta  occ. eigenvalues --   -0.34807  -0.34005  -0.33424  -0.33255  -0.32975
  Beta  occ. eigenvalues --   -0.32053  -0.29310  -0.28922  -0.28553  -0.27766
  Beta  occ. eigenvalues --   -0.27497  -0.27027  -0.26653  -0.26040  -0.25837
  Beta  occ. eigenvalues --   -0.24345  -0.24047  -0.22710  -0.18709
  Beta virt. eigenvalues --   -0.11085  -0.05510  -0.04367  -0.02615  -0.02249
  Beta virt. eigenvalues --   -0.00265   0.00241   0.00395   0.00733   0.00894
  Beta virt. eigenvalues --    0.01301   0.01700   0.02396   0.02484   0.02755

 Mulliken charges and spin densities:
               1          2
     1  C    0.413745   0.026974
     2  C   -0.168615   0.117936
     3  C    0.097617  -0.036584
     4  C    0.196220   0.104240
     5  C    0.271313   0.026188
     6  C   -0.490684   0.056538
     7  C    0.193867  -0.031669
     8  C    0.237341   0.119973
     9  C    0.463688   0.069856
    10  C   -0.457741   0.027818
    11  C    0.258307   0.025446
    12  C    0.104846   0.103461
    13  C   -0.495797   0.061399
    14  C   -0.612653   0.064332
    15  H    0.144165  -0.004412
    16  H    0.144385  -0.004236
    17  H    0.153343  -0.003028
    18  N   -0.078718  -0.022092
    19  N   -0.135798  -0.023202
    20  O   -0.432889   0.074144
    21  O   -0.417462   0.071233
    22  O   -0.427359   0.067807
    23  O   -0.312250   0.073184
    24  C   -0.197849   0.001306
    25  H    0.171245  -0.000625
    26  H    0.176470  -0.001158
    27  H    0.173783  -0.000392
    28  C   -0.208278   0.001225
    29  H    0.170735  -0.000938
    30  H    0.173302  -0.001016
    31  H    0.174007  -0.000337
    32  C    0.095298  -0.030581
    33  C   -0.467949   0.024602
    34  S   -0.520971   0.010816
    35  C   -0.260712  -0.008574
    36  H    0.150139  -0.001866
    37  C    0.660485   0.030276
    38  O   -0.167922  -0.000612
    39  C    0.720607  -0.009120
    40  C   -0.235851   0.000220
    41  C   -0.004723   0.012408
    42  S   -0.239000   0.000017
    43  H    0.174214  -0.000007
    44  H    0.162416  -0.000161
    45  H    0.160345  -0.000095
    46  C   -0.592088  -0.005274
    47  O   -0.167241   0.002179
    48  C   -0.332972   0.012620
    49  H    0.159143   0.000234
    50  C   -0.251139  -0.000026
    51  H    0.186258  -0.000750
    52  H    0.158544   0.000159
    53  H    0.172356   0.000002
    54  H    0.158477   0.000160
 Sum of Mulliken charges =  -1.00000   1.00000

 Dipole moment (field-independent basis, Debye):
    X=             14.8018    Y=             -0.5499    Z=              1.1933  Tot=             14.8600
 Quadrupole moment (field-independent basis, Debye-Ang):
   XX=           -297.6016   YY=           -255.0864   ZZ=           -219.4767
   XY=             -8.2844   XZ=             -5.9328   YZ=             25.1285

 Normal termination of Gaussian 16 at Thu Oct 28 07:43:27 2021.
