 Gaussian 16, Revision C.01,
 Gaussian 16:  ES64L-G16RevC.01  3-Jul-2019

 ---------------------------------------------------------------
 # opt=modredundant b3lyp/6-311+g(d,p) scrf=(pcm, solvent=water)
 ---------------------------------------------------------------

 ----------
 NDI_-5.pdb
 ----------
 Symbolic Z-matrix:
 Charge = -1 Multiplicity = 2

 SCF Done:  E(UB3LYP) =  -2359.47911418     A.U. after   21 cycles
 SCF Done:  E(UB3LYP) =  -2359.47452162     A.U. after   22 cycles
 SCF Done:  E(UB3LYP) =  -2359.49182277     A.U. after   18 cycles
 SCF Done:  E(UB3LYP) =  -2359.49515122     A.U. after   20 cycles
 SCF Done:  E(UB3LYP) =  -2359.49710377     A.U. after   21 cycles
 SCF Done:  E(UB3LYP) =  -2359.49805341     A.U. after   21 cycles
 SCF Done:  E(UB3LYP) =  -2359.49856220     A.U. after   20 cycles
 SCF Done:  E(UB3LYP) =  -2359.49885955     A.U. after   17 cycles
 SCF Done:  E(UB3LYP) =  -2359.49898218     A.U. after   17 cycles
 SCF Done:  E(UB3LYP) =  -2359.49903618     A.U. after   16 cycles
 SCF Done:  E(UB3LYP) =  -2359.49915909     A.U. after   15 cycles
 SCF Done:  E(UB3LYP) =  -2359.49916291     A.U. after   14 cycles
 SCF Done:  E(UB3LYP) =  -2359.49916479     A.U. after   13 cycles
 SCF Done:  E(UB3LYP) =  -2359.49916581     A.U. after   13 cycles
 SCF Done:  E(UB3LYP) =  -2359.49916662     A.U. after   11 cycles
 SCF Done:  E(UB3LYP) =  -2359.49916741     A.U. after   13 cycles
 SCF Done:  E(UB3LYP) =  -2359.49916769     A.U. after   10 cycles
 SCF Done:  E(UB3LYP) =  -2359.49916785     A.U. after    9 cycles
 SCF Done:  E(UB3LYP) =  -2359.49916790     A.U. after    9 cycles
 SCF Done:  E(UB3LYP) =  -2359.49916793     A.U. after    9 cycles
 Optimization completed.
    -- Stationary point found.

                         Standard orientation:
 ---------------------------------------------------------------------
 Center     Atomic      Atomic             Coordinates (Angstroms)
 Number     Number       Type             X           Y           Z
 ---------------------------------------------------------------------
      1          6           0       -2.576946   -3.024107    0.044843
      2          6           0       -2.271157   -1.599284    0.095186
      3          6           0       -3.302717   -0.643656   -0.055593
      4          6           0       -4.637086   -1.047233   -0.272957
      5          6           0       -4.972930   -2.467542   -0.340431
      6          6           0       -0.947250   -1.179004    0.209081
      7          6           0       -2.964862    0.746121    0.033568
      8          6           0       -1.617492    1.153512    0.268922
      9          6           0       -0.560450    0.166243    0.262139
     10          6           0       -1.418495    2.538644    0.684005
     11          6           0       -3.749502    3.113903    0.021858
     12          6           0       -4.018119    1.688877   -0.097723
     13          6           0       -5.339968    1.260747   -0.334414
     14          6           0       -5.650733   -0.080341   -0.420196
     15          1           0       -6.667916   -0.406943   -0.592542
     16          1           0       -6.110383    2.013958   -0.437925
     17          1           0       -0.196609   -1.958656    0.197026
     18          7           0       -2.451591    3.456277    0.399659
     19          7           0       -3.915164   -3.376616   -0.170151
     20          8           0       -1.727761   -3.913473    0.177345
     21          8           0       -6.122974   -2.877586   -0.532118
     22          8           0       -4.606223    3.990720   -0.158129
     23          8           0       -0.425661    2.959765    1.289053
     24          6           0       -2.168741    4.870077    0.673125
     25          1           0       -2.281900    5.091890    1.737365
     26          1           0       -1.146137    5.092792    0.378700
     27          1           0       -2.871965    5.471668    0.105595
     28          6           0       -4.208117   -4.813985   -0.222297
     29          1           0       -3.644450   -5.279941   -1.031221
     30          1           0       -3.920830   -5.286463    0.717512
     31          1           0       -5.272734   -4.934597   -0.391357
     32          6           0        0.866337    0.444552    0.068181
     33          6           0        1.530357    1.615346   -0.233527
     34         16           0        2.041094   -0.859654    0.277324
     35          6           0        2.932560    1.469297   -0.340843
     36          1           0        1.025894    2.553447   -0.380258
     37          6           0        3.404658    0.186607   -0.086960
     38          8           0        3.816928    2.455462   -0.656370
     39          6           0        4.764480   -0.284070   -0.106826
     40          6           0        3.300533    3.763480   -0.923860
     41          6           0        5.236411   -1.566556    0.153224
     42         16           0        6.129325    0.767539   -0.485250
     43          1           0        4.165452    4.383099   -1.151836
     44          1           0        2.623865    3.748667   -1.782594
     45          1           0        2.781792    4.165872   -0.049605
     46          6           0        6.650866   -1.701792    0.050692
     47          8           0        4.357948   -2.554745    0.473253
     48          6           0        7.259155   -0.525769   -0.286010
     49          1           0        7.190167   -2.622695    0.217956
     50          6           0        4.881712   -3.861503    0.733614
     51          1           0        8.312818   -0.341197   -0.429519
     52          1           0        5.562345   -3.846784    1.589207
     53          1           0        4.020977   -4.485905    0.963845
     54          1           0        5.397130   -4.258509   -0.145161
 ---------------------------------------------------------------------

 The electronic state is 2-A.
 Alpha  occ. eigenvalues --  -88.88115 -88.87617 -19.16503 -19.16365 -19.10057
 Alpha  occ. eigenvalues --  -19.10006 -19.09544 -19.09447 -14.36798 -14.36339
 Alpha  occ. eigenvalues --  -10.28499 -10.28289 -10.28052 -10.27892 -10.24294
 Alpha  occ. eigenvalues --  -10.24017 -10.22563 -10.22478 -10.21541 -10.21469
 Alpha  occ. eigenvalues --  -10.21360 -10.20901 -10.20441 -10.20416 -10.20052
 Alpha  occ. eigenvalues --  -10.19780 -10.19651 -10.19312 -10.18976 -10.18900
 Alpha  occ. eigenvalues --  -10.18731 -10.18637 -10.18409 -10.18139 -10.18031
 Alpha  occ. eigenvalues --  -10.17716  -7.96676  -7.96198  -5.92985  -5.92600
 Alpha  occ. eigenvalues --   -5.92518  -5.92245  -5.92133  -5.91746  -1.07859
 Alpha  occ. eigenvalues --   -1.07680  -1.05981  -1.05619  -1.03940  -1.03492
 Alpha  occ. eigenvalues --   -0.94022  -0.93579  -0.89985  -0.89260  -0.87875
 Alpha  occ. eigenvalues --   -0.84148  -0.81810  -0.78893  -0.76673  -0.75839
 Alpha  occ. eigenvalues --   -0.75394  -0.74442  -0.73427  -0.72365  -0.70738
 Alpha  occ. eigenvalues --   -0.70400  -0.69373  -0.67545  -0.65164  -0.64002
 Alpha  occ. eigenvalues --   -0.63340  -0.62545  -0.59928  -0.58727  -0.56668
 Alpha  occ. eigenvalues --   -0.55760  -0.55441  -0.55058  -0.54095  -0.53204
 Alpha  occ. eigenvalues --   -0.51608  -0.49555  -0.48981  -0.48261  -0.47887
 Alpha  occ. eigenvalues --   -0.47859  -0.47734  -0.47491  -0.47218  -0.47103
 Alpha  occ. eigenvalues --   -0.46568  -0.45298  -0.45170  -0.44693  -0.44372
 Alpha  occ. eigenvalues --   -0.43906  -0.43081  -0.42947  -0.42347  -0.41856
 Alpha  occ. eigenvalues --   -0.41478  -0.41307  -0.41109  -0.40573  -0.40301
 Alpha  occ. eigenvalues --   -0.40209  -0.39907  -0.39426  -0.39149  -0.38853
 Alpha  occ. eigenvalues --   -0.38084  -0.37702  -0.37108  -0.36628  -0.35786
 Alpha  occ. eigenvalues --   -0.35127  -0.34858  -0.33677  -0.33438  -0.32704
 Alpha  occ. eigenvalues --   -0.32342  -0.30161  -0.29437  -0.29014  -0.28169
 Alpha  occ. eigenvalues --   -0.28020  -0.27196  -0.26980  -0.26385  -0.26138
 Alpha  occ. eigenvalues --   -0.24794  -0.24347  -0.23758  -0.19170  -0.15319
 Alpha virt. eigenvalues --   -0.07006  -0.05391  -0.03242  -0.02385  -0.00311
 Alpha virt. eigenvalues --    0.00417   0.00573   0.00604   0.00924   0.01451
 Alpha virt. eigenvalues --    0.01795   0.02202   0.02343   0.02646   0.02796

  Beta  occ. eigenvalues --  -88.88114 -88.87603 -19.16483 -19.16370 -19.09879
  Beta  occ. eigenvalues --  -19.09817 -19.09372 -19.09259 -14.36848 -14.36390
  Beta  occ. eigenvalues --  -10.28443 -10.28233 -10.27991 -10.27839 -10.24254
  Beta  occ. eigenvalues --  -10.24042 -10.22564 -10.22478 -10.21506 -10.21441
  Beta  occ. eigenvalues --  -10.21416 -10.20767 -10.20486 -10.20377 -10.20109
  Beta  occ. eigenvalues --  -10.19779 -10.19650 -10.19164 -10.18836 -10.18739
  Beta  occ. eigenvalues --  -10.18588 -10.18586 -10.18424 -10.18065 -10.17953
  Beta  occ. eigenvalues --  -10.17657  -7.96675  -7.96186  -5.92984  -5.92600
  Beta  occ. eigenvalues --   -5.92512  -5.92242  -5.92127  -5.91704  -1.07821
  Beta  occ. eigenvalues --   -1.07688  -1.05746  -1.05389  -1.03623  -1.03180
  Beta  occ. eigenvalues --   -0.93912  -0.93473  -0.89886  -0.89163  -0.87819
  Beta  occ. eigenvalues --   -0.83839  -0.81529  -0.78748  -0.76552  -0.75540
  Beta  occ. eigenvalues --   -0.75226  -0.74395  -0.73362  -0.72296  -0.70690
  Beta  occ. eigenvalues --   -0.70130  -0.69227  -0.67426  -0.65008  -0.63819
  Beta  occ. eigenvalues --   -0.63245  -0.62362  -0.59872  -0.58665  -0.56582
  Beta  occ. eigenvalues --   -0.55664  -0.55395  -0.54952  -0.54067  -0.53055
  Beta  occ. eigenvalues --   -0.51510  -0.49418  -0.48858  -0.48007  -0.47820
  Beta  occ. eigenvalues --   -0.47767  -0.47580  -0.47471  -0.47150  -0.46985
  Beta  occ. eigenvalues --   -0.46513  -0.45235  -0.45084  -0.44606  -0.44249
  Beta  occ. eigenvalues --   -0.43817  -0.42914  -0.42773  -0.42095  -0.41765
  Beta  occ. eigenvalues --   -0.41358  -0.41183  -0.40997  -0.40338  -0.39923
  Beta  occ. eigenvalues --   -0.39861  -0.39577  -0.39136  -0.38773  -0.38553
  Beta  occ. eigenvalues --   -0.37933  -0.37562  -0.36826  -0.36569  -0.35750
  Beta  occ. eigenvalues --   -0.34962  -0.34634  -0.33539  -0.33417  -0.32621
  Beta  occ. eigenvalues --   -0.31874  -0.29516  -0.28959  -0.28622  -0.27928
  Beta  occ. eigenvalues --   -0.27530  -0.26898  -0.26779  -0.26150  -0.25761
  Beta  occ. eigenvalues --   -0.24409  -0.24150  -0.22656  -0.18658
  Beta virt. eigenvalues --   -0.11160  -0.06408  -0.04451  -0.02359  -0.02179
  Beta virt. eigenvalues --   -0.00295   0.00426   0.00580   0.00717   0.01106
  Beta virt. eigenvalues --    0.01464   0.01806   0.02276   0.02691   0.02895

 Mulliken charges and spin densities:
               1          2
     1  C    0.305469   0.025956
     2  C   -0.031444   0.116054
     3  C    0.251925  -0.037442
     4  C    0.189258   0.096994
     5  C    0.256343   0.025756
     6  C    0.112797   0.029837
     7  C    0.211677  -0.024227
     8  C    0.434573   0.107005
     9  C    0.054440   0.077198
    10  C   -0.900623   0.016849
    11  C    0.254748   0.026026
    12  C    0.123255   0.090922
    13  C   -0.504855   0.057341
    14  C   -0.589170   0.062235
    15  H    0.143730  -0.004090
    16  H    0.144735  -0.003915
    17  H    0.145324  -0.001189
    18  N    0.014964  -0.021679
    19  N   -0.129319  -0.021624
    20  O   -0.432883   0.069995
    21  O   -0.413482   0.066028
    22  O   -0.435813   0.064242
    23  O   -0.380684   0.070476
    24  C   -0.177295   0.001754
    25  H    0.176981  -0.001189
    26  H    0.171880  -0.000527
    27  H    0.172591  -0.000472
    28  C   -0.207359   0.001055
    29  H    0.173064  -0.000916
    30  H    0.171902  -0.000898
    31  H    0.173727  -0.000313
    32  C   -0.304545  -0.029580
    33  C   -0.129113   0.063863
    34  S   -0.639410   0.015885
    35  C   -0.522106  -0.014546
    36  H    0.165807  -0.003104
    37  C    0.618932   0.051311
    38  O   -0.157878  -0.000454
    39  C    0.924897  -0.015829
    40  C   -0.243626   0.000158
    41  C    0.040747   0.026503
    42  S   -0.199297  -0.000645
    43  H    0.176086  -0.000000
    44  H    0.159906  -0.000171
    45  H    0.162293  -0.000276
    46  C   -0.600451  -0.010908
    47  O   -0.163151   0.004144
    48  C   -0.357957   0.027158
    49  H    0.160227   0.000497
    50  C   -0.252191  -0.000370
    51  H    0.188358  -0.001635
    52  H    0.158994   0.000370
    53  H    0.173631  -0.000016
    54  H    0.159392   0.000403
 Sum of Mulliken charges =  -1.00000   1.00000

 Dipole moment (field-independent basis, Debye):
    X=             15.8589    Y=             -0.6713    Z=             -1.3667  Tot=             15.9318
 Quadrupole moment (field-independent basis, Debye-Ang):
   XX=           -291.6764   YY=           -244.8825   ZZ=           -231.8089
   XY=             -8.8682   XZ=             -6.3229   YZ=             -9.7758

 Normal termination of Gaussian 16 at Thu Oct 28 12:59:15 2021.
