 Gaussian 16, Revision C.01,
 Gaussian 16:  ES64L-G16RevC.01  3-Jul-2019

 ---------------------------------------------------------------
 # opt=modredundant b3lyp/6-311+g(d,p) scrf=(pcm, solvent=water)
 ---------------------------------------------------------------

 ------------
 NDI_-110.pdb
 ------------
 Symbolic Z-matrix:
 Charge = -1 Multiplicity = 2

 SCF Done:  E(UB3LYP) =  -2359.49419629     A.U. after   22 cycles
 SCF Done:  E(UB3LYP) =  -2359.50202019     A.U. after   21 cycles
 SCF Done:  E(UB3LYP) =  -2359.50300095     A.U. after   18 cycles
 SCF Done:  E(UB3LYP) =  -2359.50315818     A.U. after   17 cycles
 SCF Done:  E(UB3LYP) =  -2359.50366581     A.U. after   17 cycles
 SCF Done:  E(UB3LYP) =  -2359.50371352     A.U. after   16 cycles
 SCF Done:  E(UB3LYP) =  -2359.50373556     A.U. after   14 cycles
 SCF Done:  E(UB3LYP) =  -2359.50374287     A.U. after   12 cycles
 SCF Done:  E(UB3LYP) =  -2359.50374830     A.U. after   12 cycles
 SCF Done:  E(UB3LYP) =  -2359.50375580     A.U. after   14 cycles
 SCF Done:  E(UB3LYP) =  -2359.50372586     A.U. after   11 cycles
 SCF Done:  E(UB3LYP) =  -2359.50372667     A.U. after   10 cycles
 SCF Done:  E(UB3LYP) =  -2359.50377928     A.U. after   13 cycles
 SCF Done:  E(UB3LYP) =  -2359.50377964     A.U. after   11 cycles
 SCF Done:  E(UB3LYP) =  -2359.50377985     A.U. after   10 cycles
 SCF Done:  E(UB3LYP) =  -2359.50377998     A.U. after    8 cycles
 SCF Done:  E(UB3LYP) =  -2359.50378004     A.U. after    8 cycles
 SCF Done:  E(UB3LYP) =  -2359.50378016     A.U. after    8 cycles
 SCF Done:  E(UB3LYP) =  -2359.50378023     A.U. after    9 cycles
 SCF Done:  E(UB3LYP) =  -2359.50378020     A.U. after    9 cycles
 Optimization completed.
    -- Stationary point found.

                         Standard orientation:
 ---------------------------------------------------------------------
 Center     Atomic      Atomic             Coordinates (Angstroms)
 Number     Number       Type             X           Y           Z
 ---------------------------------------------------------------------
      1          6           0       -3.360839   -2.776931    0.275804
      2          6           0       -2.696158   -1.498929    0.060086
      3          6           0       -3.435328   -0.295662    0.111267
      4          6           0       -4.825435   -0.309403    0.375161
      5          6           0       -5.517906   -1.573646    0.598864
      6          6           0       -1.314502   -1.457864   -0.176855
      7          6           0       -2.758299    0.948264   -0.114631
      8          6           0       -1.360464    0.963660   -0.386412
      9          6           0       -0.632358   -0.264947   -0.387461
     10          6           0       -0.727954    2.240514   -0.714767
     11          6           0       -2.880879    3.433509   -0.298900
     12          6           0       -3.517560    2.144723   -0.066724
     13          6           0       -4.900231    2.101574    0.202616
     14          6           0       -5.544320    0.900688    0.420018
     15          1           0       -6.606719    0.870378    0.624178
     16          1           0       -5.446994    3.035094    0.232597
     17          1           0       -0.763742   -2.389455   -0.174028
     18          7           0       -1.516611    3.401055   -0.604107
     19          7           0       -4.738187   -2.740493    0.529355
     20          8           0       -2.777496   -3.868040    0.245448
     21          8           0       -6.729644   -1.645770    0.837490
     22          8           0       -3.490184    4.509995   -0.245579
     23          8           0        0.442123    2.366581   -1.087443
     24          6           0       -0.836854    4.669620   -0.892511
     25          1           0        0.063966    4.749903   -0.285358
     26          1           0       -0.550281    4.715869   -1.944686
     27          1           0       -1.522764    5.477633   -0.661265
     28          6           0       -5.394213   -4.036291    0.740062
     29          1           0       -5.239829   -4.675540   -0.129478
     30          1           0       -4.971086   -4.532290    1.614563
     31          1           0       -6.453310   -3.856581    0.890285
     32          6           0        0.833938   -0.372696   -0.574163
     33          6           0        1.504343   -0.880199   -1.653203
     34         16           0        1.934582    0.027617    0.718631
     35          6           0        2.916150   -0.919819   -1.463707
     36          1           0        1.002175   -1.194428   -2.556823
     37          6           0        3.341670   -0.462057   -0.226531
     38          8           0        3.832559   -1.360651   -2.371705
     39          6           0        4.690491   -0.384032    0.283549
     40          6           0        3.353879   -1.821491   -3.639044
     41          6           0        5.115351    0.063847    1.526962
     42         16           0        6.094089   -0.875132   -0.663250
     43          1           0        4.237254   -2.118363   -4.200889
     44          1           0        2.691219   -2.682959   -3.518353
     45          1           0        2.831212   -1.023968   -4.174327
     46          6           0        6.527770    0.017200    1.716638
     47          8           0        4.197728    0.494696    2.438401
     48          6           0        7.180898   -0.466804    0.619261
     49          1           0        7.032942    0.326174    2.620214
     50          6           0        4.678552    0.969157    3.699588
     51          1           0        8.242327   -0.609882    0.486532
     52          1           0        5.335050    1.833976    3.568910
     53          1           0        3.795660    1.264747    4.262809
     54          1           0        5.208610    0.179606    4.239587
 ---------------------------------------------------------------------

 The electronic state is 2-A.
 Alpha  occ. eigenvalues --  -88.87921 -88.87415 -19.16229 -19.16221 -19.09904
 Alpha  occ. eigenvalues --  -19.09888 -19.09715 -19.09599 -14.36728 -14.36512
 Alpha  occ. eigenvalues --  -10.28353 -10.28173 -10.28153 -10.28125 -10.23907
 Alpha  occ. eigenvalues --  -10.23816 -10.22453 -10.22431 -10.21234 -10.21064
 Alpha  occ. eigenvalues --  -10.20932 -10.20496 -10.20445 -10.20281 -10.20125
 Alpha  occ. eigenvalues --  -10.19737 -10.19617 -10.19611 -10.18950 -10.18914
 Alpha  occ. eigenvalues --  -10.18908 -10.18466 -10.18244 -10.18242 -10.18180
 Alpha  occ. eigenvalues --  -10.17735  -7.96484  -7.95983  -5.92792  -5.92408
 Alpha  occ. eigenvalues --   -5.92307  -5.92054  -5.91921  -5.91523  -1.07557
 Alpha  occ. eigenvalues --   -1.07471  -1.05839  -1.05762  -1.03778  -1.03679
 Alpha  occ. eigenvalues --   -0.93933  -0.93691  -0.89909  -0.89161  -0.87725
 Alpha  occ. eigenvalues --   -0.84178  -0.81896  -0.78732  -0.76315  -0.75904
 Alpha  occ. eigenvalues --   -0.75302  -0.74283  -0.73452  -0.72169  -0.70770
 Alpha  occ. eigenvalues --   -0.70135  -0.69376  -0.67497  -0.65124  -0.64082
 Alpha  occ. eigenvalues --   -0.63143  -0.62648  -0.59747  -0.58529  -0.56671
 Alpha  occ. eigenvalues --   -0.55691  -0.55267  -0.54977  -0.53886  -0.52994
 Alpha  occ. eigenvalues --   -0.51623  -0.49489  -0.48972  -0.48266  -0.47912
 Alpha  occ. eigenvalues --   -0.47778  -0.47663  -0.47346  -0.47260  -0.46977
 Alpha  occ. eigenvalues --   -0.46573  -0.45114  -0.45021  -0.44728  -0.44514
 Alpha  occ. eigenvalues --   -0.43933  -0.43242  -0.42929  -0.42518  -0.42130
 Alpha  occ. eigenvalues --   -0.41273  -0.40890  -0.40789  -0.40420  -0.40397
 Alpha  occ. eigenvalues --   -0.40233  -0.39842  -0.39676  -0.39150  -0.38372
 Alpha  occ. eigenvalues --   -0.37998  -0.37446  -0.37338  -0.36887  -0.35541
 Alpha  occ. eigenvalues --   -0.34837  -0.33956  -0.33528  -0.33118  -0.32992
 Alpha  occ. eigenvalues --   -0.32593  -0.30071  -0.29212  -0.28704  -0.28182
 Alpha  occ. eigenvalues --   -0.27797  -0.27438  -0.26818  -0.26562  -0.26159
 Alpha  occ. eigenvalues --   -0.24507  -0.24301  -0.24046  -0.18810  -0.15614
 Alpha virt. eigenvalues --   -0.05851  -0.04835  -0.03585  -0.02889  -0.00315
 Alpha virt. eigenvalues --   -0.00107   0.00335   0.00781   0.00904   0.01229
 Alpha virt. eigenvalues --    0.01477   0.02316   0.02373   0.02461   0.02569

  Beta  occ. eigenvalues --  -88.87921 -88.87409 -19.16227 -19.16221 -19.09708
  Beta  occ. eigenvalues --  -19.09685 -19.09526 -19.09382 -14.36784 -14.36567
  Beta  occ. eigenvalues --  -10.28292 -10.28113 -10.28100 -10.28067 -10.23905
  Beta  occ. eigenvalues --  -10.23816 -10.22453 -10.22431 -10.21235 -10.21075
  Beta  occ. eigenvalues --  -10.20926 -10.20551 -10.20342 -10.20336 -10.20123
  Beta  occ. eigenvalues --  -10.19736 -10.19616 -10.19435 -10.18794 -10.18746
  Beta  occ. eigenvalues --  -10.18744 -10.18396 -10.18243 -10.18157 -10.18096
  Beta  occ. eigenvalues --  -10.17724  -7.96484  -7.95977  -5.92791  -5.92408
  Beta  occ. eigenvalues --   -5.92297  -5.92054  -5.91914  -5.91516  -1.07554
  Beta  occ. eigenvalues --   -1.07470  -1.05586  -1.05506  -1.03432  -1.03333
  Beta  occ. eigenvalues --   -0.93811  -0.93574  -0.89796  -0.89100  -0.87689
  Beta  occ. eigenvalues --   -0.83855  -0.81586  -0.78600  -0.76212  -0.75537
  Beta  occ. eigenvalues --   -0.75161  -0.74260  -0.73380  -0.72124  -0.70728
  Beta  occ. eigenvalues --   -0.69806  -0.69256  -0.67399  -0.64970  -0.63880
  Beta  occ. eigenvalues --   -0.63047  -0.62468  -0.59705  -0.58474  -0.56589
  Beta  occ. eigenvalues --   -0.55554  -0.55261  -0.54863  -0.53881  -0.52851
  Beta  occ. eigenvalues --   -0.51499  -0.49314  -0.48912  -0.47986  -0.47713
  Beta  occ. eigenvalues --   -0.47679  -0.47619  -0.47341  -0.47185  -0.46858
  Beta  occ. eigenvalues --   -0.46534  -0.45050  -0.44912  -0.44666  -0.44414
  Beta  occ. eigenvalues --   -0.43822  -0.43072  -0.42740  -0.42374  -0.41867
  Beta  occ. eigenvalues --   -0.41227  -0.40874  -0.40716  -0.40143  -0.39953
  Beta  occ. eigenvalues --   -0.39817  -0.39469  -0.39101  -0.38788  -0.38255
  Beta  occ. eigenvalues --   -0.37936  -0.37212  -0.37124  -0.36787  -0.35533
  Beta  occ. eigenvalues --   -0.34752  -0.33734  -0.33394  -0.33081  -0.32945
  Beta  occ. eigenvalues --   -0.31994  -0.29082  -0.28983  -0.28536  -0.27674
  Beta  occ. eigenvalues --   -0.27511  -0.27114  -0.26617  -0.25983  -0.25894
  Beta  occ. eigenvalues --   -0.24457  -0.24012  -0.22767  -0.18761
  Beta virt. eigenvalues --   -0.11029  -0.04894  -0.04499  -0.02825  -0.02258
  Beta virt. eigenvalues --   -0.00298  -0.00081   0.00344   0.00791   0.00917
  Beta virt. eigenvalues --    0.01239   0.01487   0.02357   0.02551   0.02872

 Mulliken charges and spin densities:
               1          2
     1  C    0.436156   0.025857
     2  C   -0.039093   0.125451
     3  C    0.128024  -0.040735
     4  C    0.219341   0.111329
     5  C    0.274924   0.025229
     6  C   -0.701447   0.053214
     7  C    0.187964  -0.035757
     8  C   -0.068596   0.133453
     9  C    0.416040   0.071314
    10  C   -0.185024   0.023696
    11  C    0.330405   0.026657
    12  C    0.201401   0.113348
    13  C   -0.568238   0.059346
    14  C   -0.663459   0.064990
    15  H    0.144530  -0.004626
    16  H    0.145223  -0.004312
    17  H    0.139583  -0.003539
    18  N   -0.120279  -0.022560
    19  N   -0.136140  -0.023498
    20  O   -0.428173   0.075483
    21  O   -0.420045   0.072985
    22  O   -0.423293   0.070290
    23  O   -0.306055   0.080741
    24  C   -0.208631   0.001237
    25  H    0.172986  -0.000827
    26  H    0.175670  -0.001127
    27  H    0.174985  -0.000356
    28  C   -0.209738   0.001346
    29  H    0.171027  -0.000961
    30  H    0.173138  -0.001043
    31  H    0.174647  -0.000347
    32  C    0.321386  -0.034078
    33  C   -0.750757   0.027106
    34  S   -0.321276   0.013395
    35  C   -0.213334  -0.005286
    36  H    0.142097  -0.000123
    37  C    0.362063  -0.006417
    38  O   -0.157215  -0.000039
    39  C    0.867926   0.004024
    40  C   -0.256005   0.000604
    41  C    0.018833   0.002763
    42  S   -0.228426   0.000032
    43  H    0.174139  -0.000007
    44  H    0.162560  -0.000005
    45  H    0.162679   0.000020
    46  C   -0.529156   0.000221
    47  O   -0.176241  -0.000068
    48  C   -0.351254   0.001591
    49  H    0.158668   0.000028
    50  C   -0.247607   0.000001
    51  H    0.185748  -0.000091
    52  H    0.158286   0.000013
    53  H    0.171803   0.000000
    54  H    0.157255   0.000036
 Sum of Mulliken charges =  -1.00000   1.00000

 Dipole moment (field-independent basis, Debye):
    X=             14.0797    Y=             -1.4548    Z=              0.2639  Tot=             14.1571
 Quadrupole moment (field-independent basis, Debye-Ang):
   XX=           -298.0011   YY=           -271.9884   ZZ=           -202.9642
   XY=              5.8217   XZ=             19.2103   YZ=             15.0020

 Normal termination of Gaussian 16 at Thu Oct 28 07:37:51 2021.
