 Gaussian 16, Revision C.01,
 Gaussian 16:  ES64L-G16RevC.01  3-Jul-2019

 ---------------------------------------------------------------
 # opt=modredundant b3lyp/6-311+g(d,p) scrf=(pcm, solvent=water)
 ---------------------------------------------------------------

 -----------
 NDI_180.pdb
 -----------
 Symbolic Z-matrix:
 Charge = -1 Multiplicity = 2

 SCF Done:  E(UB3LYP) =  -2359.44793591     A.U. after   21 cycles
 SCF Done:  E(UB3LYP) =  -2359.48139801     A.U. after   21 cycles
 SCF Done:  E(UB3LYP) =  -2359.49142922     A.U. after   19 cycles
 SCF Done:  E(UB3LYP) =  -2359.49426029     A.U. after   17 cycles
 SCF Done:  E(UB3LYP) =  -2359.49468704     A.U. after   14 cycles
 SCF Done:  E(UB3LYP) =  -2359.49490157     A.U. after   16 cycles
 SCF Done:  E(UB3LYP) =  -2359.49522725     A.U. after   21 cycles
 SCF Done:  E(UB3LYP) =  -2359.49558009     A.U. after   19 cycles
 SCF Done:  E(UB3LYP) =  -2359.49619631     A.U. after   19 cycles
 SCF Done:  E(UB3LYP) =  -2359.49690932     A.U. after   18 cycles
 SCF Done:  E(UB3LYP) =  -2359.49791135     A.U. after   13 cycles
 SCF Done:  E(UB3LYP) =  -2359.49791371     A.U. after   13 cycles
 SCF Done:  E(UB3LYP) =  -2359.49791454     A.U. after   11 cycles
 SCF Done:  E(UB3LYP) =  -2359.49791523     A.U. after    9 cycles
 SCF Done:  E(UB3LYP) =  -2359.49791585     A.U. after   11 cycles
 SCF Done:  E(UB3LYP) =  -2359.49791607     A.U. after   10 cycles
 SCF Done:  E(UB3LYP) =  -2359.49791631     A.U. after    9 cycles
 SCF Done:  E(UB3LYP) =  -2359.49791640     A.U. after    8 cycles
 SCF Done:  E(UB3LYP) =  -2359.49791647     A.U. after    9 cycles
 SCF Done:  E(UB3LYP) =  -2359.49791646     A.U. after    7 cycles
 Optimization completed.
    -- Stationary point found.

                         Standard orientation:
 ---------------------------------------------------------------------
 Center     Atomic      Atomic             Coordinates (Angstroms)
 Number     Number       Type             X           Y           Z
 ---------------------------------------------------------------------
      1          6           0       -3.643848   -2.611263   -0.007165
      2          6           0       -2.849445   -1.397767    0.149299
      3          6           0       -3.433630   -0.131908   -0.089080
      4          6           0       -4.780500   -0.017017   -0.492789
      5          6           0       -5.598305   -1.214428   -0.666799
      6          6           0       -1.492447   -1.494076    0.455045
      7          6           0       -2.627918    1.035950    0.102147
      8          6           0       -1.269947    0.917874    0.520031
      9          6           0       -0.653522   -0.383088    0.615098
     10          6           0       -0.624668    2.131680    1.001690
     11          6           0       -2.480077    3.526062    0.104168
     12          6           0       -3.233178    2.300831   -0.117593
     13          6           0       -4.575704    2.388520   -0.539032
     14          6           0       -5.339872    1.255198   -0.724567
     15          1           0       -6.372845    1.325182   -1.039372
     16          1           0       -4.996797    3.371758   -0.705316
     17          1           0       -1.084798   -2.492831    0.502858
     18          7           0       -1.206475    3.365561    0.652208
     19          7           0       -4.977633   -2.447494   -0.402697
     20          8           0       -3.204219   -3.750679    0.188041
     21          8           0       -6.781254   -1.175161   -1.023176
     22          8           0       -2.925387    4.657150   -0.134822
     23          8           0        0.384139    2.145241    1.717822
     24          6           0       -0.460920    4.572886    1.026685
     25          1           0       -0.596806    4.800345    2.086992
     26          1           0        0.597953    4.412021    0.839064
     27          1           0       -0.835360    5.399998    0.431819
     28          6           0       -5.765201   -3.676763   -0.554764
     29          1           0       -5.329957   -4.306410   -1.331899
     30          1           0       -5.766920   -4.233820    0.382275
     31          1           0       -6.777083   -3.396601   -0.826858
     32          6           0        0.791275   -0.667656    0.647576
     33          6           0        1.361810   -1.930907    0.739663
     34         16           0        2.020337    0.484384    0.157209
     35          6           0        2.738179   -1.969990    0.440589
     36          1           0        0.807396   -2.810961    1.025620
     37          6           0        3.275518   -0.742636    0.065633
     38          8           0        3.543256   -3.068552    0.493871
     39          6           0        4.639073   -0.438751   -0.281612
     40          6           0        2.953316   -4.316536    0.869545
     41          6           0        5.177420    0.781898   -0.676564
     42         16           0        5.918300   -1.654199   -0.265544
     43          1           0        3.761296   -5.045174    0.851904
     44          1           0        2.531126   -4.263152    1.876985
     45          1           0        2.177859   -4.613378    0.157768
     46          6           0        6.573832    0.743510   -0.956086
     47          8           0        4.373087    1.875457   -0.765813
     48          6           0        7.102573   -0.503450   -0.777331
     49          1           0        7.156540    1.595376   -1.274953
     50          6           0        4.962875    3.109871   -1.187446
     51          1           0        8.125381   -0.817099   -0.920044
     52          1           0        5.383508    3.019312   -2.192690
     53          1           0        4.154421    3.837938   -1.195327
     54          1           0        5.738548    3.432167   -0.487466
 ---------------------------------------------------------------------

 The electronic state is 2-A.
 Alpha  occ. eigenvalues --  -88.88063 -88.87436 -19.16462 -19.16280 -19.10040
 Alpha  occ. eigenvalues --  -19.09995 -19.09559 -19.09508 -14.36783 -14.36383
 Alpha  occ. eigenvalues --  -10.28475 -10.28283 -10.27986 -10.27921 -10.24254
 Alpha  occ. eigenvalues --  -10.23850 -10.22539 -10.22477 -10.21461 -10.21410
 Alpha  occ. eigenvalues --  -10.21289 -10.20930 -10.20387 -10.20384 -10.20006
 Alpha  occ. eigenvalues --  -10.19770 -10.19652 -10.19189 -10.18948 -10.18878
 Alpha  occ. eigenvalues --  -10.18729 -10.18571 -10.18374 -10.18131 -10.18063
 Alpha  occ. eigenvalues --  -10.18027  -7.96625  -7.95980  -5.92933  -5.92549
 Alpha  occ. eigenvalues --   -5.92302  -5.92196  -5.91903  -5.91525  -1.07817
 Alpha  occ. eigenvalues --   -1.07584  -1.05959  -1.05646  -1.03919  -1.03525
 Alpha  occ. eigenvalues --   -0.93998  -0.93632  -0.89931  -0.89232  -0.87836
 Alpha  occ. eigenvalues --   -0.84129  -0.81795  -0.78911  -0.76386  -0.75944
 Alpha  occ. eigenvalues --   -0.75369  -0.74462  -0.73436  -0.72311  -0.70786
 Alpha  occ. eigenvalues --   -0.70026  -0.69582  -0.67591  -0.65087  -0.64070
 Alpha  occ. eigenvalues --   -0.63234  -0.62606  -0.59787  -0.58705  -0.56659
 Alpha  occ. eigenvalues --   -0.55851  -0.55424  -0.55021  -0.54107  -0.52894
 Alpha  occ. eigenvalues --   -0.51853  -0.49402  -0.48777  -0.48335  -0.47926
 Alpha  occ. eigenvalues --   -0.47838  -0.47612  -0.47453  -0.47344  -0.47014
 Alpha  occ. eigenvalues --   -0.46561  -0.45459  -0.45170  -0.44698  -0.44465
 Alpha  occ. eigenvalues --   -0.43654  -0.43172  -0.42993  -0.42437  -0.41981
 Alpha  occ. eigenvalues --   -0.41493  -0.41220  -0.40944  -0.40533  -0.40284
 Alpha  occ. eigenvalues --   -0.39978  -0.39901  -0.39658  -0.39232  -0.38856
 Alpha  occ. eigenvalues --   -0.38056  -0.37749  -0.36986  -0.36611  -0.35543
 Alpha  occ. eigenvalues --   -0.35009  -0.34753  -0.33658  -0.33349  -0.32729
 Alpha  occ. eigenvalues --   -0.32319  -0.29971  -0.29413  -0.29100  -0.28224
 Alpha  occ. eigenvalues --   -0.27957  -0.27206  -0.26992  -0.26432  -0.26160
 Alpha  occ. eigenvalues --   -0.24642  -0.24281  -0.23691  -0.19091  -0.15277
 Alpha virt. eigenvalues --   -0.06993  -0.05277  -0.03169  -0.02614  -0.00336
 Alpha virt. eigenvalues --    0.00379   0.00564   0.00677   0.00818   0.01524
 Alpha virt. eigenvalues --    0.01827   0.02319   0.02488   0.02560   0.02821

  Beta  occ. eigenvalues --  -88.88062 -88.87436 -19.16439 -19.16293 -19.09861
  Beta  occ. eigenvalues --  -19.09809 -19.09385 -19.09318 -14.36834 -14.36435
  Beta  occ. eigenvalues --  -10.28417 -10.28227 -10.27926 -10.27866 -10.24204
  Beta  occ. eigenvalues --  -10.23894 -10.22540 -10.22477 -10.21525 -10.21439
  Beta  occ. eigenvalues --  -10.21184 -10.20795 -10.20429 -10.20339 -10.20063
  Beta  occ. eigenvalues --  -10.19769 -10.19651 -10.19048 -10.18806 -10.18721
  Beta  occ. eigenvalues --  -10.18584 -10.18520 -10.18392 -10.18058 -10.17970
  Beta  occ. eigenvalues --  -10.17949  -7.96624  -7.95980  -5.92933  -5.92549
  Beta  occ. eigenvalues --   -5.92303  -5.92191  -5.91904  -5.91524  -1.07771
  Beta  occ. eigenvalues --   -1.07608  -1.05724  -1.05413  -1.03603  -1.03211
  Beta  occ. eigenvalues --   -0.93889  -0.93526  -0.89828  -0.89136  -0.87777
  Beta  occ. eigenvalues --   -0.83822  -0.81517  -0.78758  -0.76270  -0.75663
  Beta  occ. eigenvalues --   -0.75191  -0.74412  -0.73370  -0.72217  -0.70744
  Beta  occ. eigenvalues --   -0.69777  -0.69425  -0.67469  -0.64934  -0.63892
  Beta  occ. eigenvalues --   -0.63106  -0.62471  -0.59707  -0.58641  -0.56581
  Beta  occ. eigenvalues --   -0.55737  -0.55384  -0.54910  -0.54082  -0.52768
  Beta  occ. eigenvalues --   -0.51746  -0.49246  -0.48705  -0.48062  -0.47793
  Beta  occ. eigenvalues --   -0.47703  -0.47543  -0.47440  -0.47262  -0.46902
  Beta  occ. eigenvalues --   -0.46503  -0.45391  -0.45105  -0.44580  -0.44373
  Beta  occ. eigenvalues --   -0.43542  -0.43001  -0.42824  -0.42265  -0.41803
  Beta  occ. eigenvalues --   -0.41427  -0.41104  -0.40853  -0.39998  -0.39923
  Beta  occ. eigenvalues --   -0.39882  -0.39533  -0.39225  -0.38900  -0.38649
  Beta  occ. eigenvalues --   -0.37943  -0.37546  -0.36718  -0.36583  -0.35514
  Beta  occ. eigenvalues --   -0.34786  -0.34589  -0.33516  -0.33312  -0.32676
  Beta  occ. eigenvalues --   -0.31850  -0.29291  -0.28959  -0.28668  -0.28013
  Beta  occ. eigenvalues --   -0.27487  -0.26913  -0.26800  -0.26232  -0.25731
  Beta  occ. eigenvalues --   -0.24317  -0.23886  -0.22704  -0.18627
  Beta virt. eigenvalues --   -0.11112  -0.06334  -0.04336  -0.02500  -0.02231
  Beta virt. eigenvalues --   -0.00321   0.00406   0.00576   0.00799   0.00969
  Beta virt. eigenvalues --    0.01532   0.01837   0.02491   0.02543   0.02980

 Mulliken charges and spin densities:
               1          2
     1  C    0.360078   0.026132
     2  C   -0.119156   0.113874
     3  C    0.128789  -0.037919
     4  C    0.206824   0.097684
     5  C    0.221073   0.025632
     6  C    0.131668   0.034042
     7  C    0.064340  -0.026519
     8  C    0.373886   0.103137
     9  C    0.291783   0.089679
    10  C   -0.701811   0.021231
    11  C    0.308116   0.026839
    12  C    0.070916   0.092956
    13  C   -0.484863   0.055232
    14  C   -0.571310   0.061725
    15  H    0.143545  -0.004059
    16  H    0.144531  -0.003889
    17  H    0.146677  -0.001337
    18  N    0.027763  -0.021636
    19  N   -0.139060  -0.021818
    20  O   -0.426992   0.069226
    21  O   -0.412381   0.066560
    22  O   -0.434247   0.064971
    23  O   -0.357305   0.071354
    24  C   -0.194623   0.001567
    25  H    0.177137  -0.001201
    26  H    0.174857  -0.000587
    27  H    0.173407  -0.000447
    28  C   -0.204939   0.001219
    29  H    0.173322  -0.000946
    30  H    0.170773  -0.000869
    31  H    0.173084  -0.000315
    32  C   -0.068480  -0.032569
    33  C   -0.301260   0.071382
    34  S   -0.706793   0.003810
    35  C   -0.531185  -0.035821
    36  H    0.147770  -0.003382
    37  C    0.586634   0.063497
    38  O   -0.166710  -0.001953
    39  C    0.825812  -0.021900
    40  C   -0.239143   0.000331
    41  C   -0.006111   0.032202
    42  S   -0.228846  -0.001123
    43  H    0.175776  -0.000001
    44  H    0.161421  -0.000345
    45  H    0.160071  -0.000288
    46  C   -0.524345  -0.014011
    47  O   -0.154563   0.005272
    48  C   -0.333735   0.034269
    49  H    0.159590   0.000625
    50  C   -0.251661  -0.000295
    51  H    0.187438  -0.002052
    52  H    0.158755   0.000430
    53  H    0.173520  -0.000017
    54  H    0.160166   0.000418
 Sum of Mulliken charges =  -1.00000   1.00000

 Dipole moment (field-independent basis, Debye):
    X=             15.1938    Y=             -2.6203    Z=             -1.5546  Tot=             15.4963
 Quadrupole moment (field-independent basis, Debye-Ang):
   XX=           -286.5914   YY=           -247.8681   ZZ=           -233.4736
   XY=             16.0182   XZ=            -18.7539   YZ=             -8.1869

 Normal termination of Gaussian 16 at Thu Oct 28 15:12:27 2021.
