 Gaussian 16, Revision C.01,
 Gaussian 16:  ES64L-G16RevC.01  3-Jul-2019

 ---------------------------------------------------------------
 # opt=modredundant b3lyp/6-311+g(d,p) scrf=(pcm, solvent=water)
 ---------------------------------------------------------------

 ----------
 NDI_45.pdb
 ----------
 Symbolic Z-matrix:
 Charge = -1 Multiplicity = 2

 SCF Done:  E(UB3LYP) =  -2359.49333940     A.U. after   22 cycles
 SCF Done:  E(UB3LYP) =  -2359.49823379     A.U. after   19 cycles
 SCF Done:  E(UB3LYP) =  -2359.50128620     A.U. after   19 cycles
 SCF Done:  E(UB3LYP) =  -2359.50213232     A.U. after   19 cycles
 SCF Done:  E(UB3LYP) =  -2359.50297960     A.U. after   21 cycles
 SCF Done:  E(UB3LYP) =  -2359.50354526     A.U. after   16 cycles
 SCF Done:  E(UB3LYP) =  -2359.50369474     A.U. after   17 cycles
 SCF Done:  E(UB3LYP) =  -2359.50376153     A.U. after   15 cycles
 SCF Done:  E(UB3LYP) =  -2359.50378226     A.U. after   14 cycles
 SCF Done:  E(UB3LYP) =  -2359.50380274     A.U. after   15 cycles
 SCF Done:  E(UB3LYP) =  -2359.50385525     A.U. after   12 cycles
 SCF Done:  E(UB3LYP) =  -2359.50385559     A.U. after   10 cycles
 SCF Done:  E(UB3LYP) =  -2359.50385592     A.U. after    9 cycles
 SCF Done:  E(UB3LYP) =  -2359.50385636     A.U. after   12 cycles
 SCF Done:  E(UB3LYP) =  -2359.50385663     A.U. after   13 cycles
 SCF Done:  E(UB3LYP) =  -2359.50385686     A.U. after   12 cycles
 SCF Done:  E(UB3LYP) =  -2359.50385704     A.U. after   10 cycles
 SCF Done:  E(UB3LYP) =  -2359.50385709     A.U. after    8 cycles
 SCF Done:  E(UB3LYP) =  -2359.50385711     A.U. after    8 cycles
 SCF Done:  E(UB3LYP) =  -2359.50385711     A.U. after    8 cycles
 Optimization completed.
    -- Stationary point found.

                         Standard orientation:
 ---------------------------------------------------------------------
 Center     Atomic      Atomic             Coordinates (Angstroms)
 Number     Number       Type             X           Y           Z
 ---------------------------------------------------------------------
      1          6           0       -2.810505   -2.948721    0.433957
      2          6           0       -2.394628   -1.569282    0.215951
      3          6           0       -3.363098   -0.548950    0.072481
      4          6           0       -4.743358   -0.844731    0.145342
      5          6           0       -5.190004   -2.216392    0.367588
      6          6           0       -1.033709   -1.243914    0.206557
      7          6           0       -2.923792    0.796507   -0.158246
      8          6           0       -1.532788    1.094263   -0.242588
      9          6           0       -0.574747    0.058993    0.013560
     10          6           0       -1.146878    2.425488   -0.709709
     11          6           0       -3.521457    3.181356   -0.577807
     12          6           0       -3.910327    1.803216   -0.314515
     13          6           0       -5.279821    1.482414   -0.225099
     14          6           0       -5.692770    0.185394    0.000405
     15          1           0       -6.744854   -0.060167    0.062965
     16          1           0       -6.002321    2.279604   -0.343258
     17          1           0       -0.324223   -2.034393    0.413774
     18          7           0       -2.154299    3.410876   -0.749931
     19          7           0       -4.188635   -3.194440    0.488521
     20          8           0       -2.019790   -3.890772    0.569363
     21          8           0       -6.383331   -2.531561    0.446405
     22          8           0       -4.334013    4.111156   -0.672676
     23          8           0       -0.014872    2.740118   -1.088155
     24          6           0       -1.721634    4.764459   -1.116672
     25          1           0       -0.831425    5.026165   -0.548050
     26          1           0       -1.481725    4.817529   -2.181062
     27          1           0       -2.533002    5.449234   -0.892652
     28          6           0       -4.591837   -4.589551    0.701432
     29          1           0       -4.159029   -5.221570   -0.073993
     30          1           0       -4.236581   -4.939140    1.671944
     31          1           0       -5.674870   -4.636530    0.664076
     32          6           0        0.863301    0.296730    0.207014
     33          6           0        1.487912    1.254536    0.965887
     34         16           0        2.035677   -0.787686   -0.508225
     35          6           0        2.899054    1.119630    0.986492
     36          1           0        0.946851    2.024174    1.495022
     37          6           0        3.389665    0.058587    0.233991
     38          8           0        3.770322    1.915229    1.667924
     39          6           0        4.761200   -0.341072    0.040315
     40          6           0        3.235604    3.019794    2.404243
     41          6           0        5.248811   -1.405889   -0.707351
     42         16           0        6.116360    0.521783    0.767184
     43          1           0        4.091565    3.522673    2.849786
     44          1           0        2.707381    3.712017    1.742933
     45          1           0        2.562670    2.674940    3.194156
     46          6           0        6.668767   -1.527730   -0.698118
     47          8           0        4.377916   -2.218807   -1.367781
     48          6           0        7.265670   -0.557088    0.055107
     49          1           0        7.219235   -2.295075   -1.222773
     50          6           0        4.917625   -3.312955   -2.115858
     51          1           0        8.319430   -0.410888    0.236663
     52          1           0        5.463630   -4.001116   -1.464654
     53          1           0        4.062709   -3.825749   -2.551866
     54          1           0        5.575110   -2.955785   -2.913281
 ---------------------------------------------------------------------

 The electronic state is 2-A.
 Alpha  occ. eigenvalues --  -88.87999 -88.87718 -19.16357 -19.16288 -19.09942
 Alpha  occ. eigenvalues --  -19.09908 -19.09636 -19.09447 -14.36739 -14.36396
 Alpha  occ. eigenvalues --  -10.28385 -10.28192 -10.28087 -10.28022 -10.24058
 Alpha  occ. eigenvalues --  -10.23955 -10.22505 -10.22459 -10.21342 -10.21214
 Alpha  occ. eigenvalues --  -10.21053 -10.20590 -10.20447 -10.20240 -10.20170
 Alpha  occ. eigenvalues --  -10.19747 -10.19610 -10.19409 -10.18940 -10.18897
 Alpha  occ. eigenvalues --  -10.18809 -10.18503 -10.18313 -10.18177 -10.18107
 Alpha  occ. eigenvalues --  -10.17758  -7.96561  -7.96284  -5.92869  -5.92600
 Alpha  occ. eigenvalues --   -5.92485  -5.92217  -5.92131  -5.91837  -1.07690
 Alpha  occ. eigenvalues --   -1.07579  -1.05869  -1.05655  -1.03815  -1.03562
 Alpha  occ. eigenvalues --   -0.93944  -0.93595  -0.89975  -0.89209  -0.87841
 Alpha  occ. eigenvalues --   -0.84157  -0.81840  -0.78799  -0.76511  -0.75832
 Alpha  occ. eigenvalues --   -0.75341  -0.74409  -0.73420  -0.72261  -0.70726
 Alpha  occ. eigenvalues --   -0.70311  -0.69337  -0.67521  -0.65116  -0.64012
 Alpha  occ. eigenvalues --   -0.63236  -0.62575  -0.59831  -0.58616  -0.56638
 Alpha  occ. eigenvalues --   -0.55666  -0.55356  -0.55025  -0.53981  -0.53130
 Alpha  occ. eigenvalues --   -0.51553  -0.49521  -0.48985  -0.48224  -0.47872
 Alpha  occ. eigenvalues --   -0.47757  -0.47736  -0.47422  -0.47222  -0.47012
 Alpha  occ. eigenvalues --   -0.46553  -0.45211  -0.45057  -0.44668  -0.44398
 Alpha  occ. eigenvalues --   -0.43934  -0.43162  -0.42877  -0.42360  -0.42092
 Alpha  occ. eigenvalues --   -0.41396  -0.41086  -0.40917  -0.40487  -0.40336
 Alpha  occ. eigenvalues --   -0.40183  -0.39843  -0.39485  -0.39097  -0.38687
 Alpha  occ. eigenvalues --   -0.38128  -0.37629  -0.37163  -0.36816  -0.35713
 Alpha  occ. eigenvalues --   -0.34913  -0.34331  -0.33552  -0.33324  -0.33002
 Alpha  occ. eigenvalues --   -0.32565  -0.30083  -0.29353  -0.28842  -0.28139
 Alpha  occ. eigenvalues --   -0.27939  -0.27324  -0.26877  -0.26377  -0.26174
 Alpha  occ. eigenvalues --   -0.24562  -0.24264  -0.23920  -0.18984  -0.15448
 Alpha virt. eigenvalues --   -0.06239  -0.05219  -0.03335  -0.02645  -0.00283
 Alpha virt. eigenvalues --    0.00163   0.00390   0.00702   0.00871   0.01288
 Alpha virt. eigenvalues --    0.01708   0.02301   0.02382   0.02458   0.02673

  Beta  occ. eigenvalues --  -88.87998 -88.87712 -19.16347 -19.16292 -19.09752
  Beta  occ. eigenvalues --  -19.09710 -19.09455 -19.09254 -14.36793 -14.36449
  Beta  occ. eigenvalues --  -10.28324 -10.28132 -10.28031 -10.27967 -10.24036
  Beta  occ. eigenvalues --  -10.23973 -10.22505 -10.22459 -10.21355 -10.21165
  Beta  occ. eigenvalues --  -10.21087 -10.20499 -10.20485 -10.20225 -10.20219
  Beta  occ. eigenvalues --  -10.19746 -10.19609 -10.19245 -10.18789 -10.18730
  Beta  occ. eigenvalues --  -10.18655 -10.18438 -10.18321 -10.18096 -10.18025
  Beta  occ. eigenvalues --  -10.17718  -7.96560  -7.96278  -5.92869  -5.92596
  Beta  occ. eigenvalues --   -5.92485  -5.92214  -5.92129  -5.91822  -1.07674
  Beta  occ. eigenvalues --   -1.07582  -1.05622  -1.05418  -1.03479  -1.03239
  Beta  occ. eigenvalues --   -0.93827  -0.93485  -0.89876  -0.89124  -0.87797
  Beta  occ. eigenvalues --   -0.83844  -0.81542  -0.78663  -0.76398  -0.75489
  Beta  occ. eigenvalues --   -0.75195  -0.74379  -0.73351  -0.72207  -0.70681
  Beta  occ. eigenvalues --   -0.70020  -0.69190  -0.67409  -0.64963  -0.63816
  Beta  occ. eigenvalues --   -0.63151  -0.62379  -0.59788  -0.58559  -0.56553
  Beta  occ. eigenvalues --   -0.55549  -0.55333  -0.54917  -0.53965  -0.52980
  Beta  occ. eigenvalues --   -0.51443  -0.49377  -0.48889  -0.47956  -0.47757
  Beta  occ. eigenvalues --   -0.47711  -0.47570  -0.47410  -0.47156  -0.46889
  Beta  occ. eigenvalues --   -0.46507  -0.45161  -0.44961  -0.44588  -0.44271
  Beta  occ. eigenvalues --   -0.43847  -0.42982  -0.42706  -0.42182  -0.41901
  Beta  occ. eigenvalues --   -0.41314  -0.41007  -0.40830  -0.40224  -0.39915
  Beta  occ. eigenvalues --   -0.39830  -0.39441  -0.39064  -0.38625  -0.38529
  Beta  occ. eigenvalues --   -0.38082  -0.37467  -0.36845  -0.36778  -0.35694
  Beta  occ. eigenvalues --   -0.34818  -0.34093  -0.33416  -0.33281  -0.32986
  Beta  occ. eigenvalues --   -0.32028  -0.29341  -0.28919  -0.28559  -0.27784
  Beta  occ. eigenvalues --   -0.27495  -0.27015  -0.26665  -0.26052  -0.25820
  Beta  occ. eigenvalues --   -0.24344  -0.24042  -0.22701  -0.18701
  Beta virt. eigenvalues --   -0.11097  -0.05623  -0.04378  -0.02558  -0.02247
  Beta virt. eigenvalues --   -0.00267   0.00312   0.00402   0.00708   0.00898
  Beta virt. eigenvalues --    0.01331   0.01721   0.02376   0.02515   0.02748

 Mulliken charges and spin densities:
               1          2
     1  C    0.397410   0.026939
     2  C   -0.173924   0.117412
     3  C    0.100228  -0.036543
     4  C    0.198364   0.103186
     5  C    0.268646   0.026117
     6  C   -0.446005   0.054521
     7  C    0.193200  -0.031007
     8  C    0.294318   0.119009
     9  C    0.437633   0.072196
    10  C   -0.492125   0.026916
    11  C    0.264359   0.025485
    12  C    0.101994   0.102128
    13  C   -0.496250   0.060861
    14  C   -0.608806   0.063786
    15  H    0.144186  -0.004364
    16  H    0.144421  -0.004211
    17  H    0.153671  -0.002865
    18  N   -0.066101  -0.021979
    19  N   -0.134873  -0.023060
    20  O   -0.433420   0.073779
    21  O   -0.417193   0.070736
    22  O   -0.427959   0.067277
    23  O   -0.320398   0.072126
    24  C   -0.195003   0.001329
    25  H    0.171146  -0.000607
    26  H    0.176452  -0.001158
    27  H    0.173654  -0.000396
    28  C   -0.209068   0.001212
    29  H    0.170316  -0.000911
    30  H    0.173938  -0.001029
    31  H    0.173943  -0.000336
    32  C    0.098584  -0.032562
    33  C   -0.489096   0.027126
    34  S   -0.551378   0.012375
    35  C   -0.288078  -0.009313
    36  H    0.151850  -0.002074
    37  C    0.675069   0.033760
    38  O   -0.166147  -0.000645
    39  C    0.737246  -0.010283
    40  C   -0.236991   0.000178
    41  C    0.002827   0.014448
    42  S   -0.236265  -0.000019
    43  H    0.174426  -0.000005
    44  H    0.162422  -0.000185
    45  H    0.160555  -0.000107
    46  C   -0.599904  -0.006044
    47  O   -0.166310   0.002432
    48  C   -0.329778   0.014642
    49  H    0.159310   0.000270
    50  C   -0.251315  -0.000050
    51  H    0.186477  -0.000871
    52  H    0.158793   0.000192
    53  H    0.172503   0.000000
    54  H    0.158447   0.000186
 Sum of Mulliken charges =  -1.00000   1.00000

 Dipole moment (field-independent basis, Debye):
    X=             14.9403    Y=             -0.5365    Z=              1.2017  Tot=             14.9981
 Quadrupole moment (field-independent basis, Debye-Ang):
   XX=           -296.9468   YY=           -253.4460   ZZ=           -221.3357
   XY=             -8.4803   XZ=             -4.6229   YZ=             24.1919

 Normal termination of Gaussian 16 at Thu Oct 28 10:12:48 2021.
