 Gaussian 16, Revision C.01,
 Gaussian 16:  ES64L-G16RevC.01  3-Jul-2019

 ---------------------------------------------------------------
 # opt=modredundant b3lyp/6-311+g(d,p) scrf=(pcm, solvent=water)
 ---------------------------------------------------------------

 -----------
 NDI_-70.pdb
 -----------
 Symbolic Z-matrix:
 Charge = -1 Multiplicity = 2

 SCF Done:  E(UB3LYP) =  -2359.49689025     A.U. after   22 cycles
 SCF Done:  E(UB3LYP) =  -2359.50257743     A.U. after   18 cycles
 SCF Done:  E(UB3LYP) =  -2359.50336030     A.U. after   17 cycles
 SCF Done:  E(UB3LYP) =  -2359.50337504     A.U. after   16 cycles
 SCF Done:  E(UB3LYP) =  -2359.50356183     A.U. after   12 cycles
 SCF Done:  E(UB3LYP) =  -2359.50358429     A.U. after   13 cycles
 SCF Done:  E(UB3LYP) =  -2359.50359887     A.U. after   13 cycles
 SCF Done:  E(UB3LYP) =  -2359.50360465     A.U. after   11 cycles
 SCF Done:  E(UB3LYP) =  -2359.50361573     A.U. after   12 cycles
 SCF Done:  E(UB3LYP) =  -2359.50362382     A.U. after   11 cycles
 SCF Done:  E(UB3LYP) =  -2359.50364999     A.U. after   10 cycles
 SCF Done:  E(UB3LYP) =  -2359.50365028     A.U. after    9 cycles
 SCF Done:  E(UB3LYP) =  -2359.50365060     A.U. after   10 cycles
 SCF Done:  E(UB3LYP) =  -2359.50365087     A.U. after    9 cycles
 SCF Done:  E(UB3LYP) =  -2359.50365118     A.U. after    9 cycles
 SCF Done:  E(UB3LYP) =  -2359.50365123     A.U. after    8 cycles
 SCF Done:  E(UB3LYP) =  -2359.50365125     A.U. after    8 cycles
 SCF Done:  E(UB3LYP) =  -2359.50365124     A.U. after    8 cycles
 SCF Done:  E(UB3LYP) =  -2359.50365123     A.U. after    8 cycles
 SCF Done:  E(UB3LYP) =  -2359.50365123     A.U. after    8 cycles
 Optimization completed.
    -- Stationary point found.

                         Standard orientation:
 ---------------------------------------------------------------------
 Center     Atomic      Atomic             Coordinates (Angstroms)
 Number     Number       Type             X           Y           Z
 ---------------------------------------------------------------------
      1          6           0        3.019902   -2.869595    0.526034
      2          6           0        2.509928   -1.522774    0.306860
      3          6           0        3.402287   -0.459873    0.039365
      4          6           0        4.798632   -0.681296   -0.013952
      5          6           0        5.339106   -2.017987    0.207715
      6          6           0        1.133114   -1.271682    0.392757
      7          6           0        2.873334    0.853938   -0.185902
      8          6           0        1.467605    1.076633   -0.140901
      9          6           0        0.597020   -0.002763    0.201586
     10          6           0        0.960426    2.397068   -0.513878
     11          6           0        3.296076    3.257263   -0.703692
     12          6           0        3.782787    1.906739   -0.459726
     13          6           0        5.169435    1.658203   -0.501887
     14          6           0        5.670655    0.391009   -0.284360
     15          1           0        6.735657    0.202061   -0.320727
     16          1           0        5.833862    2.486317   -0.712051
     17          1           0        0.477110   -2.092469    0.652631
     18          7           0        1.907491    3.421711   -0.702656
     19          7           0        4.409210   -3.039323    0.465731
     20          8           0        2.298207   -3.847687    0.758567
     21          8           0        6.549898   -2.269639    0.175016
     22          8           0        4.044522    4.220581   -0.915622
     23          8           0       -0.231274    2.668487   -0.685455
     24          6           0        1.365543    4.752604   -1.001439
     25          1           0        0.921361    4.769965   -1.998770
     26          1           0        0.593999    5.002751   -0.275117
     27          1           0        2.181125    5.466282   -0.951858
     28          6           0        4.907286   -4.401267    0.691774
     29          1           0        4.583035   -4.757659    1.669806
     30          1           0        4.513510   -5.074584   -0.070675
     31          1           0        5.990548   -4.375775    0.642292
     32          6           0       -0.857910    0.152226    0.425702
     33          6           0       -1.496727    0.774017    1.463789
     34         16           0       -1.998723   -0.630828   -0.635325
     35          6           0       -2.912005    0.643276    1.403942
     36          1           0       -0.967447    1.310787    2.237592
     37          6           0       -3.377563   -0.090645    0.322121
     38          8           0       -3.801349    1.154492    2.301607
     39          6           0       -4.742889   -0.400609   -0.029500
     40          6           0       -3.289260    1.950696    3.374724
     41          6           0       -5.205234   -1.147859   -1.104470
     42         16           0       -6.120203    0.169329    0.911733
     43          1           0       -4.156771    2.269381    3.949199
     44          1           0       -2.623279    1.365039    4.014456
     45          1           0       -2.760009    2.828286    2.993377
     46          6           0       -6.624776   -1.260877   -1.173724
     47          8           0       -4.313113   -1.694204   -1.978465
     48          6           0       -7.246249   -0.600544   -0.152469
     49          1           0       -7.157288   -1.803989   -1.940914
     50          6           0       -4.829140   -2.460942   -3.070679
     51          1           0       -8.304946   -0.521535    0.041508
     52          1           0       -5.466693   -1.847805   -3.713751
     53          1           0       -3.961395   -2.797742   -3.634287
     54          1           0       -5.389911   -3.328060   -2.710688
 ---------------------------------------------------------------------

 The electronic state is 2-A.
 Alpha  occ. eigenvalues --  -88.87927 -88.87643 -19.16252 -19.16227 -19.09904
 Alpha  occ. eigenvalues --  -19.09888 -19.09704 -19.09576 -14.36726 -14.36487
 Alpha  occ. eigenvalues --  -10.28352 -10.28173 -10.28157 -10.28105 -10.23919
 Alpha  occ. eigenvalues --  -10.23859 -10.22463 -10.22434 -10.21254 -10.21037
 Alpha  occ. eigenvalues --  -10.20970 -10.20483 -10.20480 -10.20263 -10.20135
 Alpha  occ. eigenvalues --  -10.19736 -10.19623 -10.19572 -10.18943 -10.18923
 Alpha  occ. eigenvalues --  -10.18890 -10.18496 -10.18251 -10.18231 -10.18169
 Alpha  occ. eigenvalues --  -10.17669  -7.96490  -7.96205  -5.92798  -5.92523
 Alpha  occ. eigenvalues --   -5.92414  -5.92138  -5.92060  -5.91754  -1.07576
 Alpha  occ. eigenvalues --   -1.07489  -1.05840  -1.05741  -1.03779  -1.03657
 Alpha  occ. eigenvalues --   -0.93929  -0.93671  -0.89942  -0.89178  -0.87771
 Alpha  occ. eigenvalues --   -0.84180  -0.81888  -0.78726  -0.76396  -0.75866
 Alpha  occ. eigenvalues --   -0.75312  -0.74327  -0.73446  -0.72180  -0.70749
 Alpha  occ. eigenvalues --   -0.70249  -0.69324  -0.67498  -0.65132  -0.64058
 Alpha  occ. eigenvalues --   -0.63175  -0.62626  -0.59774  -0.58545  -0.56660
 Alpha  occ. eigenvalues --   -0.55656  -0.55281  -0.55002  -0.53903  -0.53097
 Alpha  occ. eigenvalues --   -0.51556  -0.49516  -0.48998  -0.48246  -0.47900
 Alpha  occ. eigenvalues --   -0.47775  -0.47686  -0.47362  -0.47224  -0.46992
 Alpha  occ. eigenvalues --   -0.46566  -0.45152  -0.45016  -0.44707  -0.44456
 Alpha  occ. eigenvalues --   -0.43993  -0.43218  -0.42873  -0.42477  -0.42135
 Alpha  occ. eigenvalues --   -0.41290  -0.40955  -0.40827  -0.40428  -0.40382
 Alpha  occ. eigenvalues --   -0.40230  -0.39873  -0.39600  -0.39132  -0.38415
 Alpha  occ. eigenvalues --   -0.38102  -0.37610  -0.37232  -0.36861  -0.35602
 Alpha  occ. eigenvalues --   -0.34862  -0.33925  -0.33547  -0.33190  -0.32928
 Alpha  occ. eigenvalues --   -0.32738  -0.30077  -0.29269  -0.28736  -0.28156
 Alpha  occ. eigenvalues --   -0.27871  -0.27402  -0.26834  -0.26518  -0.26149
 Alpha  occ. eigenvalues --   -0.24460  -0.24217  -0.24156  -0.18840  -0.15578
 Alpha virt. eigenvalues --   -0.05906  -0.04804  -0.03634  -0.02886  -0.00287
 Alpha virt. eigenvalues --   -0.00047   0.00343   0.00813   0.00909   0.01123
 Alpha virt. eigenvalues --    0.01588   0.02270   0.02411   0.02436   0.02574

  Beta  occ. eigenvalues --  -88.87927 -88.87640 -19.16249 -19.16229 -19.09709
  Beta  occ. eigenvalues --  -19.09686 -19.09516 -19.09367 -14.36782 -14.36541
  Beta  occ. eigenvalues --  -10.28290 -10.28113 -10.28103 -10.28047 -10.23913
  Beta  occ. eigenvalues --  -10.23866 -10.22463 -10.22434 -10.21257 -10.21053
  Beta  occ. eigenvalues --  -10.20953 -10.20535 -10.20382 -10.20317 -10.20128
  Beta  occ. eigenvalues --  -10.19735 -10.19622 -10.19398 -10.18787 -10.18754
  Beta  occ. eigenvalues --  -10.18728 -10.18426 -10.18253 -10.18145 -10.18085
  Beta  occ. eigenvalues --  -10.17649  -7.96490  -7.96201  -5.92798  -5.92518
  Beta  occ. eigenvalues --   -5.92414  -5.92134  -5.92059  -5.91751  -1.07573
  Beta  occ. eigenvalues --   -1.07489  -1.05587  -1.05490  -1.03435  -1.03315
  Beta  occ. eigenvalues --   -0.93808  -0.93556  -0.89834  -0.89109  -0.87734
  Beta  occ. eigenvalues --   -0.83859  -0.81580  -0.78594  -0.76287  -0.75497
  Beta  occ. eigenvalues --   -0.75178  -0.74307  -0.73374  -0.72138  -0.70707
  Beta  occ. eigenvalues --   -0.69928  -0.69191  -0.67397  -0.64978  -0.63856
  Beta  occ. eigenvalues --   -0.63092  -0.62429  -0.59737  -0.58491  -0.56574
  Beta  occ. eigenvalues --   -0.55526  -0.55272  -0.54893  -0.53895  -0.52947
  Beta  occ. eigenvalues --   -0.51437  -0.49357  -0.48922  -0.47968  -0.47727
  Beta  occ. eigenvalues --   -0.47674  -0.47621  -0.47356  -0.47157  -0.46870
  Beta  occ. eigenvalues --   -0.46525  -0.45098  -0.44891  -0.44657  -0.44338
  Beta  occ. eigenvalues --   -0.43894  -0.43041  -0.42699  -0.42318  -0.41888
  Beta  occ. eigenvalues --   -0.41235  -0.40913  -0.40746  -0.40182  -0.39943
  Beta  occ. eigenvalues --   -0.39817  -0.39462  -0.39088  -0.38726  -0.38284
  Beta  occ. eigenvalues --   -0.38064  -0.37420  -0.36935  -0.36802  -0.35591
  Beta  occ. eigenvalues --   -0.34772  -0.33766  -0.33406  -0.33129  -0.32902
  Beta  occ. eigenvalues --   -0.32126  -0.29182  -0.28954  -0.28537  -0.27701
  Beta  occ. eigenvalues --   -0.27513  -0.27076  -0.26620  -0.25991  -0.25908
  Beta  occ. eigenvalues --   -0.24337  -0.24108  -0.22750  -0.18752
  Beta virt. eigenvalues --   -0.11038  -0.05051  -0.04343  -0.02899  -0.02262
  Beta virt. eigenvalues --   -0.00270  -0.00001   0.00356   0.00820   0.00920
  Beta virt. eigenvalues --    0.01155   0.01598   0.02378   0.02477   0.02803

 Mulliken charges and spin densities:
               1          2
     1  C    0.447842   0.026315
     2  C   -0.098305   0.120732
     3  C    0.142290  -0.038101
     4  C    0.176936   0.108153
     5  C    0.273940   0.026746
     6  C   -0.531554   0.060010
     7  C    0.196351  -0.034822
     8  C    0.092703   0.126956
     9  C    0.510958   0.067551
    10  C   -0.415837   0.028275
    11  C    0.242740   0.025660
    12  C    0.132585   0.109024
    13  C   -0.513785   0.061673
    14  C   -0.636417   0.066463
    15  H    0.144183  -0.004606
    16  H    0.144593  -0.004306
    17  H    0.144982  -0.003460
    18  N   -0.121696  -0.022656
    19  N   -0.138482  -0.023513
    20  O   -0.430119   0.075093
    21  O   -0.419284   0.072747
    22  O   -0.424978   0.070122
    23  O   -0.280070   0.078171
    24  C   -0.213372   0.001337
    25  H    0.176632  -0.001157
    26  H    0.171890  -0.000752
    27  H    0.174359  -0.000373
    28  C   -0.208368   0.001322
    29  H    0.171650  -0.000972
    30  H    0.172240  -0.001018
    31  H    0.173919  -0.000345
    32  C    0.113176  -0.026469
    33  C   -0.518680   0.013250
    34  S   -0.333337   0.006958
    35  C   -0.191321  -0.003223
    36  H    0.143811  -0.000938
    37  C    0.465870   0.017001
    38  O   -0.173275  -0.000315
    39  C    0.719723  -0.003902
    40  C   -0.234535   0.000357
    41  C    0.002504   0.003766
    42  S   -0.249737   0.000148
    43  H    0.173630  -0.000010
    44  H    0.159692  -0.000040
    45  H    0.163547  -0.000041
    46  C   -0.554908  -0.002411
    47  O   -0.171377   0.001155
    48  C   -0.356250   0.004455
    49  H    0.158589   0.000085
    50  C   -0.249118   0.000053
    51  H    0.185566  -0.000265
    52  H    0.158349   0.000059
    53  H    0.171912   0.000011
    54  H    0.157644   0.000046
 Sum of Mulliken charges =  -1.00000   1.00000

 Dipole moment (field-independent basis, Debye):
    X=            -14.2654    Y=             -0.6993    Z=              1.0046  Tot=             14.3179
 Quadrupole moment (field-independent basis, Debye-Ang):
   XX=           -299.5138   YY=           -264.0456   ZZ=           -209.7559
   XY=              6.1308   XZ=             11.7233   YZ=             24.8600

 Normal termination of Gaussian 16 at Thu Oct 28 08:16:22 2021.
