 Gaussian 16, Revision C.01,
 Gaussian 16:  ES64L-G16RevC.01  3-Jul-2019

 ---------------------------------------------------------------
 # opt=modredundant b3lyp/6-311+g(d,p) scrf=(pcm, solvent=water)
 ---------------------------------------------------------------

 -----------
 NDI_135.pdb
 -----------
 Symbolic Z-matrix:
 Charge = -1 Multiplicity = 2

 SCF Done:  E(UB3LYP) =  -2359.48814571     A.U. after   21 cycles
 SCF Done:  E(UB3LYP) =  -2359.49163885     A.U. after   22 cycles
 SCF Done:  E(UB3LYP) =  -2359.49894766     A.U. after   20 cycles
 SCF Done:  E(UB3LYP) =  -2359.50186699     A.U. after   18 cycles
 SCF Done:  E(UB3LYP) =  -2359.50313831     A.U. after   20 cycles
 SCF Done:  E(UB3LYP) =  -2359.50356217     A.U. after   17 cycles
 SCF Done:  E(UB3LYP) =  -2359.50362726     A.U. after   16 cycles
 SCF Done:  E(UB3LYP) =  -2359.50367203     A.U. after   15 cycles
 SCF Done:  E(UB3LYP) =  -2359.50369602     A.U. after   14 cycles
 SCF Done:  E(UB3LYP) =  -2359.50371724     A.U. after   15 cycles
 SCF Done:  E(UB3LYP) =  -2359.50379515     A.U. after   13 cycles
 SCF Done:  E(UB3LYP) =  -2359.50379678     A.U. after   13 cycles
 SCF Done:  E(UB3LYP) =  -2359.50379737     A.U. after    8 cycles
 SCF Done:  E(UB3LYP) =  -2359.50379856     A.U. after   12 cycles
 SCF Done:  E(UB3LYP) =  -2359.50379914     A.U. after   11 cycles
 SCF Done:  E(UB3LYP) =  -2359.50379969     A.U. after   11 cycles
 SCF Done:  E(UB3LYP) =  -2359.50379998     A.U. after    9 cycles
 SCF Done:  E(UB3LYP) =  -2359.50380021     A.U. after    8 cycles
 SCF Done:  E(UB3LYP) =  -2359.50380025     A.U. after    8 cycles
 SCF Done:  E(UB3LYP) =  -2359.50380015     A.U. after    9 cycles
 Optimization completed.
    -- Stationary point found.

                         Standard orientation:
 ---------------------------------------------------------------------
 Center     Atomic      Atomic             Coordinates (Angstroms)
 Number     Number       Type             X           Y           Z
 ---------------------------------------------------------------------
      1          6           0        3.480538   -2.696920    0.415757
      2          6           0        2.756779   -1.472038    0.101824
      3          6           0        3.425573   -0.226117    0.128054
      4          6           0        4.796044   -0.144130    0.465518
      5          6           0        5.544411   -1.353227    0.793440
      6          6           0        1.383303   -1.520235   -0.170924
      7          6           0        2.694797    0.961429   -0.204993
      8          6           0        1.317200    0.879208   -0.554100
      9          6           0        0.642907   -0.379531   -0.472844
     10          6           0        0.678764    2.069675   -1.111697
     11          6           0        2.689767    3.431679   -0.546202
     12          6           0        3.382698    2.200936   -0.190278
     13          6           0        4.746527    2.254740    0.160934
     14          6           0        5.442539    1.107278    0.482870
     15          1           0        6.491344    1.150191    0.746127
     16          1           0        5.238048    3.219071    0.167183
     17          1           0        0.878836   -2.474388   -0.093740
     18          7           0        1.367864    3.290557   -0.979445
     19          7           0        4.837468   -2.566419    0.740051
     20          8           0        2.963390   -3.821130    0.409550
     21          8           0        6.741863   -1.341523    1.102853
     22          8           0        3.221617    4.548839   -0.500671
     23          8           0       -0.405568    2.071215   -1.702389
     24          6           0        0.660036    4.488537   -1.445949
     25          1           0        0.623602    4.514351   -2.537406
     26          1           0       -0.359586    4.476369   -1.065737
     27          1           0        1.193926    5.359452   -1.080237
     28          6           0        5.552629   -3.809545    1.052372
     29          1           0        5.111415   -4.285152    1.929347
     30          1           0        5.480870   -4.499434    0.211352
     31          1           0        6.590449   -3.561004    1.246800
     32          6           0       -0.816614   -0.555310   -0.576722
     33          6           0       -1.486380   -1.502839   -1.310606
     34         16           0       -1.916007    0.309100    0.470679
     35          6           0       -2.887063   -1.512535   -1.068666
     36          1           0       -0.987540   -2.153319   -2.014547
     37          6           0       -3.311018   -0.591728   -0.120776
     38          8           0       -3.799629   -2.322695   -1.675576
     39          6           0       -4.652748   -0.348945    0.351141
     40          6           0       -3.326175   -3.250214   -2.657149
     41          6           0       -5.074339    0.554379    1.318469
     42         16           0       -6.052468   -1.220370   -0.273559
     43          1           0       -4.205748   -3.785180   -3.009663
     44          1           0       -2.855806   -2.727933   -3.494872
     45          1           0       -2.619089   -3.959303   -2.217895
     46          6           0       -6.480706    0.550687    1.551350
     47          8           0       -4.159199    1.342082    1.949474
     48          6           0       -7.132463   -0.355294    0.764085
     49          1           0       -6.982932    1.185951    2.266352
     50          6           0       -4.634721    2.267506    2.931975
     51          1           0       -8.189802   -0.569343    0.732870
     52          1           0       -5.120402    1.744473    3.760490
     53          1           0       -3.753891    2.790457    3.298951
     54          1           0       -5.328937    2.987124    2.489256
 ---------------------------------------------------------------------

 The electronic state is 2-A.
 Alpha  occ. eigenvalues --  -88.87977 -88.87438 -19.16312 -19.16269 -19.09932
 Alpha  occ. eigenvalues --  -19.09902 -19.09697 -19.09605 -14.36732 -14.36462
 Alpha  occ. eigenvalues --  -10.28378 -10.28189 -10.28136 -10.28093 -10.24023
 Alpha  occ. eigenvalues --  -10.23891 -10.22488 -10.22457 -10.21300 -10.21146
 Alpha  occ. eigenvalues --  -10.21126 -10.20479 -10.20443 -10.20213 -10.20212
 Alpha  occ. eigenvalues --  -10.19742 -10.19648 -10.19412 -10.18952 -10.18913
 Alpha  occ. eigenvalues --  -10.18861 -10.18510 -10.18290 -10.18218 -10.18154
 Alpha  occ. eigenvalues --  -10.17883  -7.96540  -7.96009  -5.92848  -5.92464
 Alpha  occ. eigenvalues --   -5.92333  -5.92110  -5.91948  -5.91547  -1.07644
 Alpha  occ. eigenvalues --   -1.07540  -1.05856  -1.05727  -1.03802  -1.03644
 Alpha  occ. eigenvalues --   -0.93935  -0.93677  -0.89949  -0.89199  -0.87794
 Alpha  occ. eigenvalues --   -0.84174  -0.81870  -0.78824  -0.76343  -0.75928
 Alpha  occ. eigenvalues --   -0.75328  -0.74360  -0.73439  -0.72253  -0.70782
 Alpha  occ. eigenvalues --   -0.70074  -0.69464  -0.67546  -0.65100  -0.64069
 Alpha  occ. eigenvalues --   -0.63173  -0.62630  -0.59783  -0.58588  -0.56668
 Alpha  occ. eigenvalues --   -0.55733  -0.55334  -0.54999  -0.53959  -0.52946
 Alpha  occ. eigenvalues --   -0.51699  -0.49449  -0.48948  -0.48276  -0.47905
 Alpha  occ. eigenvalues --   -0.47777  -0.47692  -0.47392  -0.47306  -0.46987
 Alpha  occ. eigenvalues --   -0.46570  -0.45171  -0.45111  -0.44673  -0.44557
 Alpha  occ. eigenvalues --   -0.43838  -0.43222  -0.43002  -0.42503  -0.42084
 Alpha  occ. eigenvalues --   -0.41347  -0.40995  -0.40829  -0.40476  -0.40359
 Alpha  occ. eigenvalues --   -0.40160  -0.39878  -0.39604  -0.39177  -0.38545
 Alpha  occ. eigenvalues --   -0.38045  -0.37541  -0.37186  -0.36882  -0.35594
 Alpha  occ. eigenvalues --   -0.34894  -0.34329  -0.33545  -0.33201  -0.33056
 Alpha  occ. eigenvalues --   -0.32443  -0.30026  -0.29282  -0.28844  -0.28135
 Alpha  occ. eigenvalues --   -0.27925  -0.27361  -0.26877  -0.26400  -0.26267
 Alpha  occ. eigenvalues --   -0.24594  -0.24268  -0.23964  -0.18939  -0.15506
 Alpha virt. eigenvalues --   -0.06099  -0.05158  -0.03367  -0.02731  -0.00303
 Alpha virt. eigenvalues --   -0.00013   0.00362   0.00716   0.00833   0.01371
 Alpha virt. eigenvalues --    0.01622   0.02319   0.02392   0.02491   0.02577

  Beta  occ. eigenvalues --  -88.87977 -88.87432 -19.16304 -19.16273 -19.09740
  Beta  occ. eigenvalues --  -19.09702 -19.09514 -19.09404 -14.36787 -14.36515
  Beta  occ. eigenvalues --  -10.28317 -10.28129 -10.28081 -10.28037 -10.24008
  Beta  occ. eigenvalues --  -10.23903 -10.22488 -10.22457 -10.21309 -10.21173
  Beta  occ. eigenvalues --  -10.21094 -10.20496 -10.20373 -10.20268 -10.20197
  Beta  occ. eigenvalues --  -10.19741 -10.19647 -10.19243 -10.18800 -10.18745
  Beta  occ. eigenvalues --  -10.18704 -10.18444 -10.18295 -10.18136 -10.18070
  Beta  occ. eigenvalues --  -10.17852  -7.96539  -7.96003  -5.92848  -5.92464
  Beta  occ. eigenvalues --   -5.92324  -5.92109  -5.91941  -5.91537  -1.07633
  Beta  occ. eigenvalues --   -1.07543  -1.05607  -1.05483  -1.03464  -1.03313
  Beta  occ. eigenvalues --   -0.93816  -0.93566  -0.89843  -0.89124  -0.87754
  Beta  occ. eigenvalues --   -0.83857  -0.81567  -0.78688  -0.76241  -0.75589
  Beta  occ. eigenvalues --   -0.75171  -0.74326  -0.73369  -0.72193  -0.70739
  Beta  occ. eigenvalues --   -0.69771  -0.69332  -0.67441  -0.64948  -0.63874
  Beta  occ. eigenvalues --   -0.63067  -0.62463  -0.59731  -0.58530  -0.56590
  Beta  occ. eigenvalues --   -0.55598  -0.55320  -0.54882  -0.53947  -0.52812
  Beta  occ. eigenvalues --   -0.51579  -0.49275  -0.48891  -0.48000  -0.47736
  Beta  occ. eigenvalues --   -0.47693  -0.47611  -0.47384  -0.47227  -0.46869
  Beta  occ. eigenvalues --   -0.46526  -0.45106  -0.45037  -0.44552  -0.44480
  Beta  occ. eigenvalues --   -0.43730  -0.43055  -0.42804  -0.42369  -0.41835
  Beta  occ. eigenvalues --   -0.41298  -0.40951  -0.40763  -0.40160  -0.39939
  Beta  occ. eigenvalues --   -0.39851  -0.39433  -0.39117  -0.38787  -0.38417
  Beta  occ. eigenvalues --   -0.37947  -0.37336  -0.36976  -0.36775  -0.35582
  Beta  occ. eigenvalues --   -0.34796  -0.34042  -0.33440  -0.33165  -0.33042
  Beta  occ. eigenvalues --   -0.31874  -0.29166  -0.28949  -0.28588  -0.27808
  Beta  occ. eigenvalues --   -0.27483  -0.27060  -0.26670  -0.26100  -0.25803
  Beta  occ. eigenvalues --   -0.24475  -0.23974  -0.22736  -0.18740
  Beta virt. eigenvalues --   -0.11079  -0.05427  -0.04415  -0.02605  -0.02260
  Beta virt. eigenvalues --   -0.00286   0.00096   0.00374   0.00727   0.00865
  Beta virt. eigenvalues --    0.01380   0.01644   0.02361   0.02582   0.02883

 Mulliken charges and spin densities:
               1          2
     1  C    0.397837   0.026737
     2  C   -0.125126   0.119704
     3  C    0.128486  -0.038377
     4  C    0.185110   0.104832
     5  C    0.265667   0.025420
     6  C   -0.324778   0.053685
     7  C    0.179287  -0.033025
     8  C    0.072193   0.125782
     9  C    0.295703   0.067703
    10  C   -0.440764   0.024551
    11  C    0.316033   0.025705
    12  C    0.059128   0.106272
    13  C   -0.486111   0.060820
    14  C   -0.589327   0.063985
    15  H    0.144201  -0.004489
    16  H    0.144536  -0.004212
    17  H    0.143287  -0.003038
    18  N   -0.039851  -0.022242
    19  N   -0.135560  -0.023215
    20  O   -0.430548   0.074300
    21  O   -0.418938   0.071313
    22  O   -0.428107   0.068250
    23  O   -0.354742   0.075462
    24  C   -0.188118   0.001370
    25  H    0.177490  -0.001178
    26  H    0.173531  -0.000620
    27  H    0.174899  -0.000398
    28  C   -0.206601   0.001288
    29  H    0.173516  -0.001023
    30  H    0.170710  -0.000937
    31  H    0.174488  -0.000338
    32  C    0.222540  -0.014857
    33  C   -0.561487   0.024855
    34  S   -0.568711   0.011713
    35  C   -0.106757  -0.006169
    36  H    0.153239  -0.001081
    37  C    0.485442   0.012152
    38  O   -0.167952  -0.000575
    39  C    0.811539  -0.007342
    40  C   -0.235424  -0.000017
    41  C    0.022353   0.010523
    42  S   -0.241976  -0.000192
    43  H    0.174200   0.000000
    44  H    0.162304  -0.000086
    45  H    0.162462  -0.000081
    46  C   -0.596794  -0.003945
    47  O   -0.169045   0.001171
    48  C   -0.337466   0.010092
    49  H    0.159034   0.000185
    50  C   -0.250394  -0.000090
    51  H    0.186188  -0.000601
    52  H    0.157954   0.000162
    53  H    0.172451  -0.000007
    54  H    0.158771   0.000104
 Sum of Mulliken charges =  -1.00000   1.00000

 Dipole moment (field-independent basis, Debye):
    X=            -14.4719    Y=             -1.7397    Z=              1.0527  Tot=             14.6141
 Quadrupole moment (field-independent basis, Debye-Ang):
   XX=           -293.6922   YY=           -259.3583   ZZ=           -217.8284
   XY=            -10.8982   XZ=            -19.8968   YZ=             22.7621

 Normal termination of Gaussian 16 at Thu Oct 28 10:34:14 2021.
