 Gaussian 16, Revision C.01,
 Gaussian 16:  ES64L-G16RevC.01  3-Jul-2019

 ---------------------------------------------------------------
 # opt=modredundant b3lyp/6-311+g(d,p) scrf=(pcm, solvent=water)
 ---------------------------------------------------------------

 ------------
 NDI_-100.pdb
 ------------
 Symbolic Z-matrix:
 Charge = -1 Multiplicity = 2

 SCF Done:  E(UB3LYP) =  -2359.49503396     A.U. after   21 cycles
 SCF Done:  E(UB3LYP) =  -2359.50227139     A.U. after   18 cycles
 SCF Done:  E(UB3LYP) =  -2359.50321528     A.U. after   18 cycles
 SCF Done:  E(UB3LYP) =  -2359.50305409     A.U. after   15 cycles
 SCF Done:  E(UB3LYP) =  -2359.50348926     A.U. after   16 cycles
 SCF Done:  E(UB3LYP) =  -2359.50344885     A.U. after   14 cycles
 SCF Done:  E(UB3LYP) =  -2359.50345861     A.U. after   12 cycles
 SCF Done:  E(UB3LYP) =  -2359.50344638     A.U. after   13 cycles
 SCF Done:  E(UB3LYP) =  -2359.50346394     A.U. after   13 cycles
 SCF Done:  E(UB3LYP) =  -2359.50344697     A.U. after   13 cycles
 SCF Done:  E(UB3LYP) =  -2359.50347266     A.U. after   13 cycles
 SCF Done:  E(UB3LYP) =  -2359.50345630     A.U. after   13 cycles
 SCF Done:  E(UB3LYP) =  -2359.50347596     A.U. after   13 cycles
 SCF Done:  E(UB3LYP) =  -2359.50347754     A.U. after   10 cycles
 SCF Done:  E(UB3LYP) =  -2359.50347789     A.U. after    9 cycles
 SCF Done:  E(UB3LYP) =  -2359.50347816     A.U. after    9 cycles
 SCF Done:  E(UB3LYP) =  -2359.50347810     A.U. after    9 cycles
 SCF Done:  E(UB3LYP) =  -2359.50347801     A.U. after    9 cycles
 SCF Done:  E(UB3LYP) =  -2359.50347805     A.U. after    8 cycles
 SCF Done:  E(UB3LYP) =  -2359.50347812     A.U. after    8 cycles
 Optimization completed.
    -- Stationary point found.

                         Standard orientation:
 ---------------------------------------------------------------------
 Center     Atomic      Atomic             Coordinates (Angstroms)
 Number     Number       Type             X           Y           Z
 ---------------------------------------------------------------------
      1          6           0        3.280569   -2.822714   -0.021455
      2          6           0        2.653372   -1.511041    0.064467
      3          6           0        3.430939   -0.339993   -0.076697
      4          6           0        4.825376   -0.419442   -0.305155
      5          6           0        5.481453   -1.719033   -0.398301
      6          6           0        1.271553   -1.407279    0.280629
      7          6           0        2.788655    0.938962    0.018203
      8          6           0        1.385846    1.020700    0.250905
      9          6           0        0.624429   -0.181037    0.371922
     10          6           0        0.774955    2.342864    0.384575
     11          6           0        2.986152    3.426227   -0.030404
     12          6           0        3.586347    2.102788   -0.122266
     13          6           0        4.972637    1.993843   -0.351530
     14          6           0        5.583191    0.759588   -0.441509
     15          1           0        6.648232    0.679501   -0.616557
     16          1           0        5.548829    2.904179   -0.454368
     17          1           0        0.695029   -2.318737    0.370778
     18          7           0        1.610717    3.463131    0.219569
     19          7           0        4.661955   -2.851124   -0.251886
     20          8           0        2.662314   -3.888233    0.096847
     21          8           0        6.695893   -1.848716   -0.595186
     22          8           0        3.633422    4.473952   -0.157824
     23          8           0       -0.417676    2.541457    0.633523
     24          6           0        0.957868    4.772100    0.343017
     25          1           0        0.153552    4.856955   -0.387971
     26          1           0        0.531262    4.885767    1.340356
     27          1           0        1.706412    5.537324    0.168111
     28          6           0        5.277852   -4.180485   -0.339109
     29          1           0        5.139137   -4.718654    0.599408
     30          1           0        4.810372   -4.754530   -1.139592
     31          1           0        6.335498   -4.048956   -0.540546
     32          6           0       -0.842764   -0.228123    0.591680
     33          6           0       -1.510590   -0.435959    1.766177
     34         16           0       -1.946416   -0.157128   -0.756324
     35          6           0       -2.924412   -0.505223    1.597877
     36          1           0       -1.005790   -0.516587    2.718039
     37          6           0       -3.353278   -0.372422    0.286615
     38          8           0       -3.839441   -0.692262    2.591286
     39          6           0       -4.704347   -0.406771   -0.223056
     40          6           0       -3.359588   -0.798930    3.935154
     41          6           0       -5.130537   -0.292648   -1.539239
     42         16           0       -6.109062   -0.606559    0.822947
     43          1           0       -4.242830   -0.931322    4.556880
     44          1           0       -2.700344   -1.663937    4.048986
     45          1           0       -2.833159    0.110789    4.236932
     46          6           0       -6.544984   -0.361267   -1.706245
     47          8           0       -4.212304   -0.132412   -2.534335
     48          6           0       -7.198344   -0.528388   -0.518760
     49          1           0       -7.051768   -0.290885   -2.657711
     50          6           0       -4.693628    0.000249   -3.875067
     51          1           0       -8.261052   -0.612483   -0.350597
     52          1           0       -5.336196    0.879404   -3.976085
     53          1           0       -3.809775    0.122682   -4.497909
     54          1           0       -5.238474   -0.895230   -4.186964
 ---------------------------------------------------------------------

 The electronic state is 2-A.
 Alpha  occ. eigenvalues --  -88.87911 -88.87449 -19.16216 -19.16209 -19.09900
 Alpha  occ. eigenvalues --  -19.09885 -19.09720 -19.09590 -14.36729 -14.36522
 Alpha  occ. eigenvalues --  -10.28354 -10.28168 -10.28155 -10.28134 -10.23889
 Alpha  occ. eigenvalues --  -10.23808 -10.22451 -10.22428 -10.21226 -10.21048
 Alpha  occ. eigenvalues --  -10.20893 -10.20510 -10.20445 -10.20298 -10.20109
 Alpha  occ. eigenvalues --  -10.19739 -10.19661 -10.19608 -10.18953 -10.18919
 Alpha  occ. eigenvalues --  -10.18913 -10.18461 -10.18251 -10.18233 -10.18183
 Alpha  occ. eigenvalues --  -10.17692  -7.96474  -7.96015  -5.92782  -5.92398
 Alpha  occ. eigenvalues --   -5.92338  -5.92044  -5.91952  -5.91557  -1.07537
 Alpha  occ. eigenvalues --   -1.07453  -1.05840  -1.05765  -1.03777  -1.03682
 Alpha  occ. eigenvalues --   -0.93934  -0.93688  -0.89908  -0.89157  -0.87719
 Alpha  occ. eigenvalues --   -0.84181  -0.81902  -0.78709  -0.76321  -0.75896
 Alpha  occ. eigenvalues --   -0.75299  -0.74275  -0.73454  -0.72151  -0.70765
 Alpha  occ. eigenvalues --   -0.70165  -0.69352  -0.67486  -0.65132  -0.64083
 Alpha  occ. eigenvalues --   -0.63137  -0.62652  -0.59745  -0.58518  -0.56672
 Alpha  occ. eigenvalues --   -0.55680  -0.55255  -0.54976  -0.53874  -0.53018
 Alpha  occ. eigenvalues --   -0.51599  -0.49503  -0.48980  -0.48264  -0.47911
 Alpha  occ. eigenvalues --   -0.47779  -0.47658  -0.47339  -0.47245  -0.46977
 Alpha  occ. eigenvalues --   -0.46574  -0.45108  -0.45004  -0.44744  -0.44496
 Alpha  occ. eigenvalues --   -0.43963  -0.43243  -0.42892  -0.42529  -0.42140
 Alpha  occ. eigenvalues --   -0.41262  -0.40877  -0.40787  -0.40407  -0.40401
 Alpha  occ. eigenvalues --   -0.40251  -0.39839  -0.39686  -0.39146  -0.38315
 Alpha  occ. eigenvalues --   -0.38023  -0.37467  -0.37343  -0.36877  -0.35535
 Alpha  occ. eigenvalues --   -0.34830  -0.33814  -0.33575  -0.33119  -0.32952
 Alpha  occ. eigenvalues --   -0.32665  -0.30084  -0.29195  -0.28675  -0.28205
 Alpha  occ. eigenvalues --   -0.27768  -0.27456  -0.26800  -0.26612  -0.26127
 Alpha  occ. eigenvalues --   -0.24453  -0.24336  -0.24078  -0.18782  -0.15638
 Alpha virt. eigenvalues --   -0.05816  -0.04689  -0.03716  -0.02935  -0.00309
 Alpha virt. eigenvalues --   -0.00112   0.00323   0.00795   0.00966   0.01144
 Alpha virt. eigenvalues --    0.01488   0.02308   0.02363   0.02476   0.02566

  Beta  occ. eigenvalues --  -88.87911 -88.87444 -19.16216 -19.16209 -19.09703
  Beta  occ. eigenvalues --  -19.09682 -19.09530 -19.09371 -14.36785 -14.36578
  Beta  occ. eigenvalues --  -10.28292 -10.28108 -10.28102 -10.28075 -10.23889
  Beta  occ. eigenvalues --  -10.23807 -10.22451 -10.22428 -10.21226 -10.21055
  Beta  occ. eigenvalues --  -10.20891 -10.20567 -10.20353 -10.20342 -10.20109
  Beta  occ. eigenvalues --  -10.19738 -10.19607 -10.19483 -10.18796 -10.18756
  Beta  occ. eigenvalues --  -10.18743 -10.18392 -10.18233 -10.18163 -10.18099
  Beta  occ. eigenvalues --  -10.17685  -7.96474  -7.96010  -5.92782  -5.92398
  Beta  occ. eigenvalues --   -5.92329  -5.92044  -5.91945  -5.91553  -1.07536
  Beta  occ. eigenvalues --   -1.07451  -1.05585  -1.05507  -1.03431  -1.03332
  Beta  occ. eigenvalues --   -0.93811  -0.93570  -0.89793  -0.89098  -0.87683
  Beta  occ. eigenvalues --   -0.83857  -0.81591  -0.78578  -0.76217  -0.75523
  Beta  occ. eigenvalues --   -0.75162  -0.74254  -0.73381  -0.72110  -0.70723
  Beta  occ. eigenvalues --   -0.69831  -0.69233  -0.67390  -0.64978  -0.63880
  Beta  occ. eigenvalues --   -0.63045  -0.62467  -0.59706  -0.58465  -0.56588
  Beta  occ. eigenvalues --   -0.55544  -0.55250  -0.54863  -0.53869  -0.52873
  Beta  occ. eigenvalues --   -0.51474  -0.49330  -0.48918  -0.47982  -0.47717
  Beta  occ. eigenvalues --   -0.47667  -0.47620  -0.47335  -0.47173  -0.46858
  Beta  occ. eigenvalues --   -0.46536  -0.45047  -0.44868  -0.44708  -0.44391
  Beta  occ. eigenvalues --   -0.43853  -0.43072  -0.42709  -0.42377  -0.41876
  Beta  occ. eigenvalues --   -0.41215  -0.40866  -0.40710  -0.40142  -0.39954
  Beta  occ. eigenvalues --   -0.39805  -0.39483  -0.39106  -0.38779  -0.38194
  Beta  occ. eigenvalues --   -0.37978  -0.37250  -0.37093  -0.36788  -0.35527
  Beta  occ. eigenvalues --   -0.34746  -0.33652  -0.33404  -0.33072  -0.32904
  Beta  occ. eigenvalues --   -0.32051  -0.29047  -0.29010  -0.28528  -0.27645
  Beta  occ. eigenvalues --   -0.27522  -0.27127  -0.26606  -0.25952  -0.25923
  Beta  occ. eigenvalues --   -0.24423  -0.24054  -0.22774  -0.18768
  Beta virt. eigenvalues --   -0.11017  -0.04691  -0.04581  -0.02931  -0.02262
  Beta virt. eigenvalues --   -0.00292  -0.00103   0.00331   0.00803   0.00978
  Beta virt. eigenvalues --    0.01154   0.01496   0.02368   0.02531   0.02863

 Mulliken charges and spin densities:
               1          2
     1  C    0.436259   0.025251
     2  C    0.031348   0.126512
     3  C    0.218041  -0.039902
     4  C    0.173768   0.110875
     5  C    0.291038   0.026540
     6  C   -0.567035   0.052289
     7  C    0.211888  -0.035357
     8  C   -0.128942   0.131948
     9  C    0.413291   0.074348
    10  C   -0.328659   0.024300
    11  C    0.232167   0.026123
    12  C    0.184060   0.112901
    13  C   -0.549954   0.059151
    14  C   -0.657526   0.065840
    15  H    0.144549  -0.004666
    16  H    0.144878  -0.004338
    17  H    0.138038  -0.003613
    18  N   -0.149281  -0.022868
    19  N   -0.137960  -0.023492
    20  O   -0.428065   0.075549
    21  O   -0.419534   0.073267
    22  O   -0.420662   0.070832
    23  O   -0.284932   0.081970
    24  C   -0.222595   0.001299
    25  H    0.173235  -0.000961
    26  H    0.172676  -0.001016
    27  H    0.174743  -0.000345
    28  C   -0.209004   0.001407
    29  H    0.172516  -0.001027
    30  H    0.171334  -0.000979
    31  H    0.174019  -0.000348
    32  C    0.083555  -0.024613
    33  C   -0.387897   0.007162
    34  S   -0.188233   0.010601
    35  C   -0.121569   0.005424
    36  H    0.139326   0.000082
    37  C    0.205446   0.000192
    38  O   -0.171421   0.000035
    39  C    0.734784  -0.000334
    40  C   -0.235686  -0.000045
    41  C    0.042665  -0.000099
    42  S   -0.255291   0.000137
    43  H    0.173821  -0.000006
    44  H    0.160992  -0.000020
    45  H    0.163409   0.000034
    46  C   -0.533055  -0.000169
    47  O   -0.179490  -0.000075
    48  C   -0.369399   0.000081
    49  H    0.158324   0.000000
    50  C   -0.246601   0.000109
    51  H    0.185242   0.000005
    52  H    0.158376  -0.000001
    53  H    0.171747   0.000001
    54  H    0.157255   0.000008
 Sum of Mulliken charges =  -1.00000   1.00000

 Dipole moment (field-independent basis, Debye):
    X=            -13.9927    Y=             -1.3150    Z=              0.0938  Tot=             14.0547
 Quadrupole moment (field-independent basis, Debye-Ang):
   XX=           -299.1643   YY=           -276.1893   ZZ=           -198.0551
   XY=             -2.1845   XZ=             18.3518   YZ=             -2.9933

 Normal termination of Gaussian 16 at Thu Oct 28 07:55:21 2021.
