 Gaussian 16, Revision C.01,
 Gaussian 16:  ES64L-G16RevC.01  3-Jul-2019

 ---------------------------------------------------------------
 # opt=modredundant b3lyp/6-311+g(d,p) scrf=(pcm, solvent=water)
 ---------------------------------------------------------------

 -----------
 NDI_-30.pdb
 -----------
 Symbolic Z-matrix:
 Charge = -1 Multiplicity = 2

 SCF Done:  E(UB3LYP) =  -2359.49533427     A.U. after   22 cycles
 SCF Done:  E(UB3LYP) =  -2359.49813653     A.U. after   21 cycles
 SCF Done:  E(UB3LYP) =  -2359.50123332     A.U. after   20 cycles
 SCF Done:  E(UB3LYP) =  -2359.50210203     A.U. after   18 cycles
 SCF Done:  E(UB3LYP) =  -2359.50255442     A.U. after   18 cycles
 SCF Done:  E(UB3LYP) =  -2359.50273447     A.U. after   16 cycles
 SCF Done:  E(UB3LYP) =  -2359.50278802     A.U. after   16 cycles
 SCF Done:  E(UB3LYP) =  -2359.50281857     A.U. after   16 cycles
 SCF Done:  E(UB3LYP) =  -2359.50282875     A.U. after   15 cycles
 SCF Done:  E(UB3LYP) =  -2359.50284780     A.U. after   15 cycles
 SCF Done:  E(UB3LYP) =  -2359.50291804     A.U. after   12 cycles
 SCF Done:  E(UB3LYP) =  -2359.50291848     A.U. after   11 cycles
 SCF Done:  E(UB3LYP) =  -2359.50292012     A.U. after   13 cycles
 SCF Done:  E(UB3LYP) =  -2359.50292183     A.U. after   11 cycles
 SCF Done:  E(UB3LYP) =  -2359.50292360     A.U. after   12 cycles
 SCF Done:  E(UB3LYP) =  -2359.50292386     A.U. after   10 cycles
 SCF Done:  E(UB3LYP) =  -2359.50292399     A.U. after   12 cycles
 SCF Done:  E(UB3LYP) =  -2359.50292403     A.U. after   10 cycles
 SCF Done:  E(UB3LYP) =  -2359.50292404     A.U. after    8 cycles
 SCF Done:  E(UB3LYP) =  -2359.50292405     A.U. after    8 cycles
 Optimization completed.
    -- Stationary point found.

                         Standard orientation:
 ---------------------------------------------------------------------
 Center     Atomic      Atomic             Coordinates (Angstroms)
 Number     Number       Type             X           Y           Z
 ---------------------------------------------------------------------
      1          6           0        2.726406   -2.988129    0.293023
      2          6           0        2.349839   -1.590980    0.118569
      3          6           0        3.344440   -0.586538    0.070960
      4          6           0        4.712232   -0.915207    0.199160
      5          6           0        5.119714   -2.305635    0.380431
      6          6           0        0.999516   -1.235476    0.070234
      7          6           0        2.940670    0.776005   -0.119716
      8          6           0        1.561233    1.107241   -0.261785
      9          6           0        0.566619    0.083529   -0.088220
     10          6           0        1.238333    2.453694   -0.730919
     11          6           0        3.607043    3.162339   -0.405265
     12          6           0        3.954293    1.766424   -0.181695
     13          6           0        5.310981    1.413055   -0.036912
     14          6           0        5.688093    0.099266    0.150030
     15          1           0        6.730839   -0.170768    0.254165
     16          1           0        6.053011    2.199734   -0.082633
     17          1           0        0.273119   -2.022760    0.224523
     18          7           0        2.258899    3.424519   -0.654611
     19          7           0        4.094885   -3.266455    0.403628
     20          8           0        1.911095   -3.917048    0.346300
     21          8           0        6.300653   -2.649812    0.506278
     22          8           0        4.438828    4.080169   -0.408448
     23          8           0        0.151117    2.794932   -1.206639
     24          6           0        1.878322    4.799156   -0.999866
     25          1           0        1.792194    4.917938   -2.082710
     26          1           0        0.915826    5.028804   -0.548391
     27          1           0        2.647355    5.466884   -0.624659
     28          6           0        4.459438   -4.678410    0.570840
     29          1           0        4.064736   -5.059934    1.513886
     30          1           0        4.038241   -5.266517   -0.244259
     31          1           0        5.541741   -4.749871    0.566994
     32          6           0       -0.864040    0.339646    0.107645
     33          6           0       -1.492136    1.410495    0.698343
     34         16           0       -2.047523   -0.840957   -0.429555
     35          6           0       -2.900597    1.278471    0.751922
     36          1           0       -0.955271    2.257578    1.093995
     37          6           0       -3.395354    0.111092    0.179894
     38          8           0       -3.768954    2.171530    1.303068
     39          6           0       -4.766456   -0.315512    0.065681
     40          6           0       -3.230017    3.368272    1.873937
     41          6           0       -5.258895   -1.483794   -0.504492
     42         16           0       -6.116502    0.646229    0.667836
     43          1           0       -4.084391    3.933839    2.240265
     44          1           0       -2.560026    3.137399    2.706725
     45          1           0       -2.697461    3.955624    1.121056
     46          6           0       -6.677877   -1.605311   -0.459195
     47          8           0       -4.393205   -2.386348   -1.042548
     48          6           0       -7.269283   -0.531522    0.143550
     49          1           0       -7.231765   -2.444945   -0.853135
     50          6           0       -4.937586   -3.581288   -1.612238
     51          1           0       -8.321513   -0.361118    0.312540
     52          1           0       -5.602707   -3.348552   -2.448379
     53          1           0       -4.085492   -4.153347   -1.973553
     54          1           0       -5.476384   -4.163497   -0.859646
 ---------------------------------------------------------------------

 The electronic state is 2-A.
 Alpha  occ. eigenvalues --  -88.88045 -88.87698 -19.16419 -19.16327 -19.09984
 Alpha  occ. eigenvalues --  -19.09938 -19.09594 -19.09412 -14.36759 -14.36357
 Alpha  occ. eigenvalues --  -10.28425 -10.28222 -10.28058 -10.27963 -10.24151
 Alpha  occ. eigenvalues --  -10.24001 -10.22530 -10.22474 -10.21402 -10.21353
 Alpha  occ. eigenvalues --  -10.21108 -10.20674 -10.20438 -10.20309 -10.20121
 Alpha  occ. eigenvalues --  -10.19760 -10.19623 -10.19332 -10.18952 -10.18892
 Alpha  occ. eigenvalues --  -10.18766 -10.18538 -10.18351 -10.18155 -10.18072
 Alpha  occ. eigenvalues --  -10.17797  -7.96607  -7.96269  -5.92915  -5.92585
 Alpha  occ. eigenvalues --   -5.92531  -5.92203  -5.92176  -5.91821  -1.07760
 Alpha  occ. eigenvalues --   -1.07631  -1.05906  -1.05622  -1.03857  -1.03518
 Alpha  occ. eigenvalues --   -0.93968  -0.93571  -0.89985  -0.89227  -0.87865
 Alpha  occ. eigenvalues --   -0.84149  -0.81822  -0.78841  -0.76580  -0.75827
 Alpha  occ. eigenvalues --   -0.75361  -0.74439  -0.73417  -0.72307  -0.70727
 Alpha  occ. eigenvalues --   -0.70346  -0.69350  -0.67533  -0.65121  -0.64000
 Alpha  occ. eigenvalues --   -0.63275  -0.62555  -0.59867  -0.58663  -0.56636
 Alpha  occ. eigenvalues --   -0.55696  -0.55395  -0.55038  -0.54031  -0.53150
 Alpha  occ. eigenvalues --   -0.51574  -0.49532  -0.48972  -0.48228  -0.47874
 Alpha  occ. eigenvalues --   -0.47800  -0.47720  -0.47456  -0.47226  -0.47037
 Alpha  occ. eigenvalues --   -0.46549  -0.45249  -0.45093  -0.44668  -0.44374
 Alpha  occ. eigenvalues --   -0.43905  -0.43126  -0.42898  -0.42301  -0.42043
 Alpha  occ. eigenvalues --   -0.41461  -0.41162  -0.40989  -0.40534  -0.40308
 Alpha  occ. eigenvalues --   -0.40175  -0.39859  -0.39421  -0.39085  -0.38807
 Alpha  occ. eigenvalues --   -0.38148  -0.37654  -0.37129  -0.36760  -0.35759
 Alpha  occ. eigenvalues --   -0.34958  -0.34583  -0.33599  -0.33385  -0.32949
 Alpha  occ. eigenvalues --   -0.32470  -0.30114  -0.29392  -0.28908  -0.28152
 Alpha  occ. eigenvalues --   -0.27973  -0.27271  -0.26915  -0.26360  -0.26158
 Alpha  occ. eigenvalues --   -0.24627  -0.24296  -0.23817  -0.19062  -0.15386
 Alpha virt. eigenvalues --   -0.06532  -0.05320  -0.03271  -0.02521  -0.00293
 Alpha virt. eigenvalues --    0.00327   0.00407   0.00634   0.00880   0.01377
 Alpha virt. eigenvalues --    0.01758   0.02251   0.02366   0.02549   0.02761

  Beta  occ. eigenvalues --  -88.88044 -88.87690 -19.16404 -19.16332 -19.09798
  Beta  occ. eigenvalues --  -19.09743 -19.09417 -19.09225 -14.36812 -14.36409
  Beta  occ. eigenvalues --  -10.28366 -10.28163 -10.27999 -10.27908 -10.24120
  Beta  occ. eigenvalues --  -10.24024 -10.22530 -10.22473 -10.21415 -10.21292
  Beta  occ. eigenvalues --  -10.21152 -10.20560 -10.20487 -10.20280 -10.20177
  Beta  occ. eigenvalues --  -10.19759 -10.19622 -10.19175 -10.18805 -10.18726
  Beta  occ. eigenvalues --  -10.18617 -10.18479 -10.18362 -10.18076 -10.17992
  Beta  occ. eigenvalues --  -10.17747  -7.96606  -7.96261  -5.92915  -5.92581
  Beta  occ. eigenvalues --   -5.92530  -5.92199  -5.92173  -5.91795  -1.07735
  Beta  occ. eigenvalues --   -1.07636  -1.05663  -1.05390  -1.03527  -1.03203
  Beta  occ. eigenvalues --   -0.93853  -0.93464  -0.89888  -0.89135  -0.87817
  Beta  occ. eigenvalues --   -0.83838  -0.81531  -0.78701  -0.76464  -0.75503
  Beta  occ. eigenvalues --   -0.75205  -0.74402  -0.73350  -0.72247  -0.70680
  Beta  occ. eigenvalues --   -0.70068  -0.69199  -0.67416  -0.64967  -0.63809
  Beta  occ. eigenvalues --   -0.63186  -0.62364  -0.59819  -0.58603  -0.56552
  Beta  occ. eigenvalues --   -0.55588  -0.55362  -0.54930  -0.54009  -0.53000
  Beta  occ. eigenvalues --   -0.51469  -0.49393  -0.48863  -0.47966  -0.47786
  Beta  occ. eigenvalues --   -0.47730  -0.47560  -0.47439  -0.47159  -0.46916
  Beta  occ. eigenvalues --   -0.46499  -0.45196  -0.45003  -0.44581  -0.44247
  Beta  occ. eigenvalues --   -0.43820  -0.42947  -0.42727  -0.42069  -0.41926
  Beta  occ. eigenvalues --   -0.41359  -0.41066  -0.40892  -0.40266  -0.39904
  Beta  occ. eigenvalues --   -0.39852  -0.39463  -0.39079  -0.38633  -0.38564
  Beta  occ. eigenvalues --   -0.38083  -0.37503  -0.36826  -0.36713  -0.35735
  Beta  occ. eigenvalues --   -0.34860  -0.34318  -0.33456  -0.33367  -0.32920
  Beta  occ. eigenvalues --   -0.31956  -0.29428  -0.28923  -0.28579  -0.27844
  Beta  occ. eigenvalues --   -0.27502  -0.26973  -0.26708  -0.26094  -0.25782
  Beta  occ. eigenvalues --   -0.24333  -0.24061  -0.22673  -0.18672
  Beta virt. eigenvalues --   -0.11130  -0.05945  -0.04407  -0.02432  -0.02239
  Beta virt. eigenvalues --   -0.00276   0.00414   0.00512   0.00640   0.00935
  Beta virt. eigenvalues --    0.01407   0.01772   0.02317   0.02613   0.02770

 Mulliken charges and spin densities:
               1          2
     1  C    0.343831   0.026784
     2  C   -0.150037   0.116459
     3  C    0.145688  -0.036474
     4  C    0.196363   0.100305
     5  C    0.257534   0.026017
     6  C   -0.185555   0.046971
     7  C    0.212118  -0.029114
     8  C    0.472004   0.116310
     9  C    0.286489   0.079560
    10  C   -0.681035   0.022958
    11  C    0.272973   0.025352
    12  C    0.085058   0.098294
    13  C   -0.497528   0.058612
    14  C   -0.608628   0.062526
    15  H    0.144132  -0.004236
    16  H    0.144504  -0.004105
    17  H    0.150875  -0.002282
    18  N   -0.026096  -0.021815
    19  N   -0.132609  -0.022595
    20  O   -0.434239   0.072523
    21  O   -0.415980   0.068998
    22  O   -0.431399   0.065861
    23  O   -0.344687   0.069833
    24  C   -0.189615   0.001408
    25  H    0.176919  -0.001177
    26  H    0.171639  -0.000542
    27  H    0.172991  -0.000432
    28  C   -0.210544   0.001179
    29  H    0.174636  -0.001021
    30  H    0.170039  -0.000873
    31  H    0.173680  -0.000329
    32  C   -0.001665  -0.035922
    33  C   -0.531291   0.035729
    34  S   -0.625555   0.016322
    35  C   -0.319046  -0.011701
    36  H    0.157820  -0.002609
    37  C    0.696998   0.042483
    38  O   -0.162082  -0.000621
    39  C    0.810296  -0.013034
    40  C   -0.239887   0.000100
    41  C    0.025511   0.020077
    42  S   -0.226624  -0.000234
    43  H    0.175170  -0.000003
    44  H    0.161211  -0.000136
    45  H    0.162321  -0.000235
    46  C   -0.618917  -0.008292
    47  O   -0.163900   0.003169
    48  C   -0.330217   0.020416
    49  H    0.159696   0.000375
    50  C   -0.251339  -0.000167
    51  H    0.187189  -0.001219
    52  H    0.158497   0.000269
    53  H    0.173026  -0.000008
    54  H    0.159266   0.000284
 Sum of Mulliken charges =  -1.00000   1.00000

 Dipole moment (field-independent basis, Debye):
    X=            -15.3572    Y=             -0.5566    Z=              1.3071  Tot=             15.4227
 Quadrupole moment (field-independent basis, Debye-Ang):
   XX=           -294.9714   YY=           -249.6046   ZZ=           -225.8751
   XY=              8.8660   XZ=              0.6239   YZ=             20.2142

 Normal termination of Gaussian 16 at Thu Oct 28 10:43:53 2021.
