 Gaussian 16, Revision C.01,
 Gaussian 16:  ES64L-G16RevC.01  3-Jul-2019

 ---------------------------------------------------------------
 # opt=modredundant b3lyp/6-311+g(d,p) scrf=(pcm, solvent=water)
 ---------------------------------------------------------------

 ----------
 NDI_75.pdb
 ----------
 Symbolic Z-matrix:
 Charge = -1 Multiplicity = 2

 SCF Done:  E(UB3LYP) =  -2359.49434335     A.U. after   22 cycles
 SCF Done:  E(UB3LYP) =  -2359.50116952     A.U. after   17 cycles
 SCF Done:  E(UB3LYP) =  -2359.50282453     A.U. after   19 cycles
 SCF Done:  E(UB3LYP) =  -2359.50309717     A.U. after   16 cycles
 SCF Done:  E(UB3LYP) =  -2359.50334606     A.U. after   14 cycles
 SCF Done:  E(UB3LYP) =  -2359.50343109     A.U. after   14 cycles
 SCF Done:  E(UB3LYP) =  -2359.50345885     A.U. after   12 cycles
 SCF Done:  E(UB3LYP) =  -2359.50347284     A.U. after   11 cycles
 SCF Done:  E(UB3LYP) =  -2359.50348651     A.U. after   11 cycles
 SCF Done:  E(UB3LYP) =  -2359.50349641     A.U. after   11 cycles
 SCF Done:  E(UB3LYP) =  -2359.50351864     A.U. after   10 cycles
 SCF Done:  E(UB3LYP) =  -2359.50351993     A.U. after    9 cycles
 SCF Done:  E(UB3LYP) =  -2359.50352076     A.U. after    9 cycles
 SCF Done:  E(UB3LYP) =  -2359.50352172     A.U. after   10 cycles
 SCF Done:  E(UB3LYP) =  -2359.50352299     A.U. after    9 cycles
 SCF Done:  E(UB3LYP) =  -2359.50352391     A.U. after   10 cycles
 SCF Done:  E(UB3LYP) =  -2359.50352432     A.U. after    9 cycles
 SCF Done:  E(UB3LYP) =  -2359.50352448     A.U. after    9 cycles
 SCF Done:  E(UB3LYP) =  -2359.50352445     A.U. after    9 cycles
 SCF Done:  E(UB3LYP) =  -2359.50352443     A.U. after    8 cycles
 Optimization completed.
    -- Stationary point found.

                         Standard orientation:
 ---------------------------------------------------------------------
 Center     Atomic      Atomic             Coordinates (Angstroms)
 Number     Number       Type             X           Y           Z
 ---------------------------------------------------------------------
      1          6           0       -3.062985   -2.860542    0.495056
      2          6           0       -2.533926   -1.517582    0.299151
      3          6           0       -3.408602   -0.442021    0.024937
      4          6           0       -4.806064   -0.647433   -0.059166
      5          6           0       -5.365589   -1.980092    0.137714
      6          6           0       -1.155488   -1.283783    0.408579
      7          6           0       -2.861010    0.868485   -0.173871
      8          6           0       -1.454220    1.075485   -0.096325
      9          6           0       -0.601833   -0.019870    0.239436
     10          6           0       -0.925905    2.401303   -0.417372
     11          6           0       -3.248144    3.283291   -0.666702
     12          6           0       -3.753428    1.934553   -0.452595
     13          6           0       -5.141406    1.701424   -0.527534
     14          6           0       -5.660540    0.437315   -0.335632
     15          1           0       -6.726546    0.260533   -0.396367
     16          1           0       -5.792532    2.539008   -0.741827
     17          1           0       -0.511846   -2.116079    0.662761
     18          7           0       -1.858639    3.435002   -0.625178
     19          7           0       -4.452472   -3.014231    0.404572
     20          8           0       -2.356987   -3.848750    0.733212
     21          8           0       -6.578174   -2.217894    0.077679
     22          8           0       -3.982265    4.256082   -0.885266
     23          8           0        0.273495    2.670682   -0.527815
     24          6           0       -1.296001    4.765734   -0.883716
     25          1           0       -0.573634    5.014378   -0.107537
     26          1           0       -0.786588    4.782976   -1.849059
     27          1           0       -2.112191    5.480320   -0.886208
     28          6           0       -4.969855   -4.372612    0.607288
     29          1           0       -4.563467   -5.043993   -0.150155
     30          1           0       -4.674226   -4.739816    1.590401
     31          1           0       -6.051194   -4.335602    0.530710
     32          6           0        0.856496    0.107797    0.470556
     33          6           0        1.501077    0.626319    1.559677
     34         16           0        1.989419   -0.575549   -0.664622
     35          6           0        2.916659    0.500216    1.479873
     36          1           0        0.976762    1.089747    2.382754
     37          6           0        3.374803   -0.129034    0.331637
     38          8           0        3.811377    0.924490    2.416847
     39          6           0        4.737571   -0.410656   -0.053417
     40          6           0        3.304914    1.605444    3.569065
     41          6           0        5.192704   -1.047961   -1.199706
     42         16           0        6.120450    0.049218    0.938460
     43          1           0        4.175688    1.866472    4.167214
     44          1           0        2.771080    2.515939    3.283125
     45          1           0        2.644682    0.955579    4.150057
     46          6           0        6.611245   -1.165170   -1.282550
     47          8           0        4.295303   -1.495487   -2.123313
     48          6           0        7.239198   -0.617513   -0.200468
     49          1           0        7.138378   -1.631689   -2.102066
     50          6           0        4.804599   -2.143167   -3.293035
     51          1           0        8.298712   -0.566637   -0.001587
     52          1           0        5.361733   -3.046738   -3.030058
     53          1           0        3.933691   -2.413326   -3.886853
     54          1           0        5.443770   -1.467723   -3.868541
 ---------------------------------------------------------------------

 The electronic state is 2-A.
 Alpha  occ. eigenvalues --  -88.87920 -88.87606 -19.16237 -19.16220 -19.09900
 Alpha  occ. eigenvalues --  -19.09886 -19.09709 -19.09579 -14.36726 -14.36495
 Alpha  occ. eigenvalues --  -10.28349 -10.28172 -10.28155 -10.28114 -10.23901
 Alpha  occ. eigenvalues --  -10.23840 -10.22457 -10.22432 -10.21242 -10.21034
 Alpha  occ. eigenvalues --  -10.20934 -10.20488 -10.20470 -10.20276 -10.20122
 Alpha  occ. eigenvalues --  -10.19736 -10.19615 -10.19604 -10.18943 -10.18923
 Alpha  occ. eigenvalues --  -10.18901 -10.18490 -10.18243 -10.18237 -10.18175
 Alpha  occ. eigenvalues --  -10.17656  -7.96483  -7.96168  -5.92791  -5.92487
 Alpha  occ. eigenvalues --   -5.92407  -5.92101  -5.92053  -5.91716  -1.07559
 Alpha  occ. eigenvalues --   -1.07474  -1.05837  -1.05748  -1.03775  -1.03663
 Alpha  occ. eigenvalues --   -0.93929  -0.93675  -0.89931  -0.89170  -0.87754
 Alpha  occ. eigenvalues --   -0.84180  -0.81892  -0.78713  -0.76377  -0.75870
 Alpha  occ. eigenvalues --   -0.75306  -0.74309  -0.73448  -0.72165  -0.70751
 Alpha  occ. eigenvalues --   -0.70234  -0.69323  -0.67492  -0.65133  -0.64064
 Alpha  occ. eigenvalues --   -0.63161  -0.62633  -0.59764  -0.58533  -0.56663
 Alpha  occ. eigenvalues --   -0.55656  -0.55269  -0.54994  -0.53890  -0.53084
 Alpha  occ. eigenvalues --   -0.51559  -0.49514  -0.48993  -0.48249  -0.47902
 Alpha  occ. eigenvalues --   -0.47777  -0.47675  -0.47352  -0.47223  -0.46987
 Alpha  occ. eigenvalues --   -0.46567  -0.45137  -0.45010  -0.44717  -0.44461
 Alpha  occ. eigenvalues --   -0.43994  -0.43224  -0.42867  -0.42491  -0.42138
 Alpha  occ. eigenvalues --   -0.41277  -0.40927  -0.40819  -0.40415  -0.40389
 Alpha  occ. eigenvalues --   -0.40240  -0.39862  -0.39624  -0.39133  -0.38359
 Alpha  occ. eigenvalues --   -0.38099  -0.37589  -0.37251  -0.36863  -0.35581
 Alpha  occ. eigenvalues --   -0.34850  -0.33849  -0.33567  -0.33167  -0.32895
 Alpha  occ. eigenvalues --   -0.32773  -0.30078  -0.29246  -0.28713  -0.28173
 Alpha  occ. eigenvalues --   -0.27839  -0.27416  -0.26825  -0.26547  -0.26134
 Alpha  occ. eigenvalues --   -0.24439  -0.24248  -0.24153  -0.18814  -0.15599
 Alpha virt. eigenvalues --   -0.05869  -0.04712  -0.03707  -0.02914  -0.00289
 Alpha virt. eigenvalues --   -0.00064   0.00335   0.00816   0.00940   0.01095
 Alpha virt. eigenvalues --    0.01564   0.02265   0.02411   0.02444   0.02571

  Beta  occ. eigenvalues --  -88.87919 -88.87603 -19.16235 -19.16220 -19.09704
  Beta  occ. eigenvalues --  -19.09684 -19.09520 -19.09366 -14.36782 -14.36551
  Beta  occ. eigenvalues --  -10.28287 -10.28112 -10.28101 -10.28056 -10.23896
  Beta  occ. eigenvalues --  -10.23845 -10.22458 -10.22432 -10.21245 -10.21047
  Beta  occ. eigenvalues --  -10.20922 -10.20544 -10.20369 -10.20330 -10.20118
  Beta  occ. eigenvalues --  -10.19735 -10.19614 -10.19428 -10.18787 -10.18754
  Beta  occ. eigenvalues --  -10.18738 -10.18420 -10.18244 -10.18151 -10.18090
  Beta  occ. eigenvalues --  -10.17640  -7.96482  -7.96164  -5.92790  -5.92482
  Beta  occ. eigenvalues --   -5.92407  -5.92097  -5.92052  -5.91713  -1.07557
  Beta  occ. eigenvalues --   -1.07474  -1.05583  -1.05494  -1.03430  -1.03318
  Beta  occ. eigenvalues --   -0.93808  -0.93559  -0.89820  -0.89104  -0.87718
  Beta  occ. eigenvalues --   -0.83858  -0.81582  -0.78582  -0.76268  -0.75498
  Beta  occ. eigenvalues --   -0.75173  -0.74290  -0.73376  -0.72125  -0.70709
  Beta  occ. eigenvalues --   -0.69909  -0.69194  -0.67392  -0.64979  -0.63861
  Beta  occ. eigenvalues --   -0.63077  -0.62437  -0.59727  -0.58480  -0.56577
  Beta  occ. eigenvalues --   -0.55525  -0.55262  -0.54884  -0.53884  -0.52934
  Beta  occ. eigenvalues --   -0.51438  -0.49352  -0.48920  -0.47970  -0.47724
  Beta  occ. eigenvalues --   -0.47666  -0.47624  -0.47347  -0.47156  -0.46866
  Beta  occ. eigenvalues --   -0.46527  -0.45083  -0.44877  -0.44675  -0.44345
  Beta  occ. eigenvalues --   -0.43892  -0.43048  -0.42692  -0.42332  -0.41886
  Beta  occ. eigenvalues --   -0.41224  -0.40896  -0.40735  -0.40171  -0.39946
  Beta  occ. eigenvalues --   -0.39812  -0.39468  -0.39089  -0.38741  -0.38225
  Beta  occ. eigenvalues --   -0.38067  -0.37394  -0.36960  -0.36799  -0.35571
  Beta  occ. eigenvalues --   -0.34761  -0.33707  -0.33412  -0.33111  -0.32881
  Beta  occ. eigenvalues --   -0.32130  -0.29146  -0.28963  -0.28532  -0.27681
  Beta  occ. eigenvalues --   -0.27516  -0.27087  -0.26613  -0.25972  -0.25918
  Beta  occ. eigenvalues --   -0.24340  -0.24111  -0.22756  -0.18756
  Beta virt. eigenvalues --   -0.11028  -0.04948  -0.04360  -0.02951  -0.02263
  Beta virt. eigenvalues --   -0.00272  -0.00032   0.00347   0.00824   0.00950
  Beta virt. eigenvalues --    0.01121   0.01573   0.02369   0.02490   0.02815

 Mulliken charges and spin densities:
               1          2
     1  C    0.450625   0.026181
     2  C   -0.070741   0.121398
     3  C    0.166010  -0.038566
     4  C    0.173444   0.109067
     5  C    0.277091   0.026733
     6  C   -0.548517   0.059982
     7  C    0.195104  -0.035556
     8  C    0.065974   0.129434
     9  C    0.525528   0.068624
    10  C   -0.422341   0.027369
    11  C    0.239904   0.025812
    12  C    0.149360   0.110359
    13  C   -0.528995   0.060981
    14  C   -0.642756   0.066518
    15  H    0.144230  -0.004636
    16  H    0.144664  -0.004316
    17  H    0.142468  -0.003533
    18  N   -0.133130  -0.022754
    19  N   -0.138779  -0.023532
    20  O   -0.429686   0.075238
    21  O   -0.419462   0.072979
    22  O   -0.423812   0.070503
    23  O   -0.272780   0.079499
    24  C   -0.217797   0.001352
    25  H    0.171778  -0.000804
    26  H    0.176037  -0.001138
    27  H    0.174566  -0.000363
    28  C   -0.208343   0.001355
    29  H    0.172122  -0.001015
    30  H    0.171700  -0.000982
    31  H    0.173949  -0.000346
    32  C    0.118435  -0.027055
    33  C   -0.542854   0.011169
    34  S   -0.268202   0.006620
    35  C   -0.186103  -0.001608
    36  H    0.142701  -0.000735
    37  C    0.402396   0.014351
    38  O   -0.174334  -0.000203
    39  C    0.724182  -0.002685
    40  C   -0.234071   0.000379
    41  C    0.015716   0.001905
    42  S   -0.251187   0.000193
    43  H    0.173719  -0.000011
    44  H    0.163349  -0.000016
    45  H    0.160060  -0.000030
    46  C   -0.548362  -0.001898
    47  O   -0.173394   0.000936
    48  C   -0.362717   0.002815
    49  H    0.158514   0.000055
    50  C   -0.248446   0.000069
    51  H    0.185451  -0.000167
    52  H    0.157441   0.000026
    53  H    0.171889   0.000012
    54  H    0.158404   0.000039
 Sum of Mulliken charges =  -1.00000   1.00000

 Dipole moment (field-independent basis, Debye):
    X=             14.1610    Y=             -0.7803    Z=              0.8918  Tot=             14.2104
 Quadrupole moment (field-independent basis, Debye-Ang):
   XX=           -299.8353   YY=           -267.2317   ZZ=           -206.4723
   XY=             -5.2419   XZ=            -13.1053   YZ=             22.7924

 Normal termination of Gaussian 16 at Thu Oct 28 07:32:44 2021.
