 Gaussian 16, Revision C.01,
 Gaussian 16:  ES64L-G16RevC.01  3-Jul-2019

 ---------------------------------------------------------------
 # opt=modredundant b3lyp/6-311+g(d,p) scrf=(pcm, solvent=water)
 ---------------------------------------------------------------

 ------------
 NDI_-115.pdb
 ------------
 Symbolic Z-matrix:
 Charge = -1 Multiplicity = 2

 SCF Done:  E(UB3LYP) =  -2359.49347359     A.U. after   22 cycles
 SCF Done:  E(UB3LYP) =  -2359.50149948     A.U. after   23 cycles
 SCF Done:  E(UB3LYP) =  -2359.50290044     A.U. after   18 cycles
 SCF Done:  E(UB3LYP) =  -2359.50347125     A.U. after   17 cycles
 SCF Done:  E(UB3LYP) =  -2359.50373886     A.U. after   16 cycles
 SCF Done:  E(UB3LYP) =  -2359.50379841     A.U. after   16 cycles
 SCF Done:  E(UB3LYP) =  -2359.50381241     A.U. after   14 cycles
 SCF Done:  E(UB3LYP) =  -2359.50382263     A.U. after   14 cycles
 SCF Done:  E(UB3LYP) =  -2359.50382947     A.U. after   13 cycles
 SCF Done:  E(UB3LYP) =  -2359.50383395     A.U. after   13 cycles
 SCF Done:  E(UB3LYP) =  -2359.50385567     A.U. after   11 cycles
 SCF Done:  E(UB3LYP) =  -2359.50385593     A.U. after   11 cycles
 SCF Done:  E(UB3LYP) =  -2359.50385615     A.U. after    9 cycles
 SCF Done:  E(UB3LYP) =  -2359.50385620     A.U. after   10 cycles
 SCF Done:  E(UB3LYP) =  -2359.50385618     A.U. after    9 cycles
 SCF Done:  E(UB3LYP) =  -2359.50385605     A.U. after    9 cycles
 SCF Done:  E(UB3LYP) =  -2359.50385592     A.U. after    9 cycles
 SCF Done:  E(UB3LYP) =  -2359.50385589     A.U. after   10 cycles
 SCF Done:  E(UB3LYP) =  -2359.50385620     A.U. after   10 cycles
 SCF Done:  E(UB3LYP) =  -2359.50385609     A.U. after   11 cycles
 Optimization completed.
    -- Stationary point found.

                         Standard orientation:
 ---------------------------------------------------------------------
 Center     Atomic      Atomic             Coordinates (Angstroms)
 Number     Number       Type             X           Y           Z
 ---------------------------------------------------------------------
      1          6           0       -3.395254   -2.753020    0.351111
      2          6           0       -2.714134   -1.491027    0.095413
      3          6           0       -3.435583   -0.275986    0.120916
      4          6           0       -4.822575   -0.261962    0.399820
      5          6           0       -5.530822   -1.509457    0.664742
      6          6           0       -1.333168   -1.475722   -0.147428
      7          6           0       -2.743512    0.950959   -0.148088
      8          6           0       -1.349120    0.938065   -0.437403
      9          6           0       -0.635439   -0.298803   -0.396618
     10          6           0       -0.711439    2.190506   -0.841239
     11          6           0       -2.832684    3.431050   -0.404255
     12          6           0       -3.485087    2.159213   -0.126159
     13          6           0       -4.864771    2.144069    0.160886
     14          6           0       -5.523499    0.959327    0.419212
     15          1           0       -6.583802    0.950327    0.635920
     16          1           0       -5.397787    3.085943    0.170665
     17          1           0       -0.793744   -2.413208   -0.111817
     18          7           0       -1.476883    3.367532   -0.740393
     19          7           0       -4.769257   -2.689330    0.617411
     20          8           0       -2.828390   -3.853179    0.343405
     21          8           0       -6.740663   -1.557129    0.918290
     22          8           0       -3.422852    4.518765   -0.366027
     23          8           0        0.442058    2.282488   -1.271382
     24          6           0       -0.787607    4.615268   -1.090291
     25          1           0        0.146517    4.685334   -0.534839
     26          1           0       -0.558520    4.637329   -2.157441
     27          1           0       -1.442430    5.442510   -0.837780
     28          6           0       -5.442565   -3.969068    0.868312
     29          1           0       -5.305493   -4.633428    0.014884
     30          1           0       -5.019323   -4.448004    1.752243
     31          1           0       -6.497520   -3.769448    1.022646
     32          6           0        0.829802   -0.430088   -0.563465
     33          6           0        1.500956   -1.059532   -1.576807
     34         16           0        1.929721    0.101998    0.682337
     35          6           0        2.911277   -1.088258   -1.378051
     36          1           0        0.999666   -1.467872   -2.442525
     37          6           0        3.335919   -0.499699   -0.196866
     38          8           0        3.827670   -1.631698   -2.228490
     39          6           0        4.683632   -0.373200    0.305991
     40          6           0        3.351016   -2.217948   -3.443778
     41          6           0        5.107513    0.204308    1.495260
     42         16           0        6.087411   -0.970108   -0.577844
     43          1           0        4.234294   -2.580676   -3.965686
     44          1           0        2.678820   -3.055545   -3.237978
     45          1           0        2.839711   -1.475598   -4.062876
     46          6           0        6.519156    0.171898    1.693224
     47          8           0        4.189825    0.735438    2.351834
     48          6           0        7.172710   -0.430773    0.656517
     49          1           0        7.023564    0.574202    2.559749
     50          6           0        4.668847    1.333138    3.560314
     51          1           0        8.233750   -0.592350    0.543340
     52          1           0        5.333410    2.174543    3.345107
     53          1           0        3.785888    1.692381    4.085099
     54          1           0        5.189264    0.598873    4.181613
 ---------------------------------------------------------------------

 The electronic state is 2-A.
 Alpha  occ. eigenvalues --  -88.87932 -88.87418 -19.16244 -19.16231 -19.09906
 Alpha  occ. eigenvalues --  -19.09891 -19.09710 -19.09606 -14.36728 -14.36501
 Alpha  occ. eigenvalues --  -10.28355 -10.28177 -10.28155 -10.28118 -10.23929
 Alpha  occ. eigenvalues --  -10.23832 -10.22462 -10.22439 -10.21248 -10.21082
 Alpha  occ. eigenvalues --  -10.20970 -10.20489 -10.20451 -10.20271 -10.20142
 Alpha  occ. eigenvalues --  -10.19738 -10.19619 -10.19585 -10.18949 -10.18912
 Alpha  occ. eigenvalues --  -10.18900 -10.18469 -10.18252 -10.18237 -10.18175
 Alpha  occ. eigenvalues --  -10.17769  -7.96495  -7.95986  -5.92803  -5.92419
 Alpha  occ. eigenvalues --   -5.92310  -5.92065  -5.91924  -5.91525  -1.07573
 Alpha  occ. eigenvalues --   -1.07484  -1.05841  -1.05757  -1.03780  -1.03673
 Alpha  occ. eigenvalues --   -0.93932  -0.93686  -0.89914  -0.89167  -0.87738
 Alpha  occ. eigenvalues --   -0.84176  -0.81890  -0.78749  -0.76318  -0.75907
 Alpha  occ. eigenvalues --   -0.75308  -0.74298  -0.73448  -0.72186  -0.70771
 Alpha  occ. eigenvalues --   -0.70123  -0.69394  -0.67506  -0.65119  -0.64078
 Alpha  occ. eigenvalues --   -0.63147  -0.62643  -0.59754  -0.58539  -0.56669
 Alpha  occ. eigenvalues --   -0.55699  -0.55280  -0.54980  -0.53901  -0.52984
 Alpha  occ. eigenvalues --   -0.51638  -0.49480  -0.48972  -0.48267  -0.47910
 Alpha  occ. eigenvalues --   -0.47775  -0.47672  -0.47357  -0.47270  -0.46978
 Alpha  occ. eigenvalues --   -0.46572  -0.45121  -0.45036  -0.44717  -0.44525
 Alpha  occ. eigenvalues --   -0.43915  -0.43239  -0.42946  -0.42515  -0.42123
 Alpha  occ. eigenvalues --   -0.41289  -0.40908  -0.40795  -0.40430  -0.40390
 Alpha  occ. eigenvalues --   -0.40219  -0.39846  -0.39663  -0.39153  -0.38406
 Alpha  occ. eigenvalues --   -0.38005  -0.37455  -0.37315  -0.36891  -0.35551
 Alpha  occ. eigenvalues --   -0.34845  -0.34023  -0.33535  -0.33135  -0.33007
 Alpha  occ. eigenvalues --   -0.32560  -0.30062  -0.29222  -0.28726  -0.28167
 Alpha  occ. eigenvalues --   -0.27823  -0.27423  -0.26830  -0.26528  -0.26183
 Alpha  occ. eigenvalues --   -0.24533  -0.24284  -0.24041  -0.18838  -0.15595
 Alpha virt. eigenvalues --   -0.05882  -0.04915  -0.03527  -0.02857  -0.00314
 Alpha virt. eigenvalues --   -0.00104   0.00339   0.00770   0.00879   0.01261
 Alpha virt. eigenvalues --    0.01494   0.02312   0.02395   0.02452   0.02569

  Beta  occ. eigenvalues --  -88.87932 -88.87412 -19.16241 -19.16232 -19.09710
  Beta  occ. eigenvalues --  -19.09688 -19.09523 -19.09393 -14.36784 -14.36556
  Beta  occ. eigenvalues --  -10.28293 -10.28116 -10.28102 -10.28060 -10.23925
  Beta  occ. eigenvalues --  -10.23834 -10.22462 -10.22439 -10.21250 -10.21095
  Beta  occ. eigenvalues --  -10.20961 -10.20545 -10.20347 -10.20326 -10.20138
  Beta  occ. eigenvalues --  -10.19737 -10.19618 -10.19410 -10.18794 -10.18742
  Beta  occ. eigenvalues --  -10.18739 -10.18401 -10.18253 -10.18151 -10.18091
  Beta  occ. eigenvalues --  -10.17755  -7.96495  -7.95980  -5.92803  -5.92419
  Beta  occ. eigenvalues --   -5.92300  -5.92065  -5.91917  -5.91518  -1.07569
  Beta  occ. eigenvalues --   -1.07484  -1.05588  -1.05503  -1.03436  -1.03330
  Beta  occ. eigenvalues --   -0.93811  -0.93571  -0.89802  -0.89104  -0.87701
  Beta  occ. eigenvalues --   -0.83855  -0.81581  -0.78617  -0.76216  -0.75546
  Beta  occ. eigenvalues --   -0.75162  -0.74273  -0.73377  -0.72138  -0.70730
  Beta  occ. eigenvalues --   -0.69798  -0.69273  -0.67408  -0.64965  -0.63877
  Beta  occ. eigenvalues --   -0.63049  -0.62466  -0.59711  -0.58484  -0.56587
  Beta  occ. eigenvalues --   -0.55562  -0.55273  -0.54865  -0.53894  -0.52843
  Beta  occ. eigenvalues --   -0.51514  -0.49305  -0.48913  -0.47987  -0.47713
  Beta  occ. eigenvalues --   -0.47686  -0.47618  -0.47351  -0.47195  -0.46859
  Beta  occ. eigenvalues --   -0.46532  -0.45057  -0.44938  -0.44642  -0.44428
  Beta  occ. eigenvalues --   -0.43805  -0.43071  -0.42754  -0.42374  -0.41861
  Beta  occ. eigenvalues --   -0.41242  -0.40888  -0.40724  -0.40145  -0.39950
  Beta  occ. eigenvalues --   -0.39822  -0.39460  -0.39100  -0.38786  -0.38289
  Beta  occ. eigenvalues --   -0.37936  -0.37223  -0.37108  -0.36785  -0.35543
  Beta  occ. eigenvalues --   -0.34759  -0.33777  -0.33413  -0.33096  -0.32972
  Beta  occ. eigenvalues --   -0.31964  -0.29098  -0.28971  -0.28543  -0.27698
  Beta  occ. eigenvalues --   -0.27505  -0.27103  -0.26625  -0.26007  -0.25874
  Beta  occ. eigenvalues --   -0.24472  -0.24004  -0.22761  -0.18763
  Beta virt. eigenvalues --   -0.11038  -0.05004  -0.04472  -0.02771  -0.02257
  Beta virt. eigenvalues --   -0.00298  -0.00064   0.00349   0.00781   0.00895
  Beta virt. eigenvalues --    0.01271   0.01507   0.02358   0.02557   0.02874

 Mulliken charges and spin densities:
               1          2
     1  C    0.434818   0.026119
     2  C   -0.080134   0.124209
     3  C    0.115341  -0.040399
     4  C    0.230401   0.110473
     5  C    0.280516   0.025313
     6  C   -0.633927   0.053988
     7  C    0.176350  -0.035606
     8  C   -0.038732   0.132954
     9  C    0.362878   0.068539
    10  C   -0.197802   0.024218
    11  C    0.342168   0.026549
    12  C    0.185313   0.112456
    13  C   -0.544207   0.060114
    14  C   -0.671776   0.064340
    15  H    0.144580  -0.004601
    16  H    0.145212  -0.004296
    17  H    0.140851  -0.003451
    18  N   -0.102347  -0.022453
    19  N   -0.135381  -0.023470
    20  O   -0.428869   0.075354
    21  O   -0.419864   0.072715
    22  O   -0.424294   0.069898
    23  O   -0.318260   0.079745
    24  C   -0.199417   0.001259
    25  H    0.173034  -0.000783
    26  H    0.176288  -0.001145
    27  H    0.175017  -0.000363
    28  C   -0.209919   0.001321
    29  H    0.171080  -0.000956
    30  H    0.173210  -0.001041
    31  H    0.174759  -0.000345
    32  C    0.297527  -0.029544
    33  C   -0.685216   0.025185
    34  S   -0.379039   0.013102
    35  C   -0.219004  -0.005432
    36  H    0.144078  -0.000295
    37  C    0.369024  -0.003524
    38  O   -0.155460  -0.000108
    39  C    0.874200   0.002823
    40  C   -0.256806   0.000456
    41  C    0.008048   0.004043
    42  S   -0.226476   0.000022
    43  H    0.174228  -0.000006
    44  H    0.162557  -0.000013
    45  H    0.162750   0.000003
    46  C   -0.531123  -0.000240
    47  O   -0.174554   0.000068
    48  C   -0.345736   0.002855
    49  H    0.158775   0.000052
    50  C   -0.248117  -0.000019
    51  H    0.185833  -0.000167
    52  H    0.158214   0.000025
    53  H    0.171928  -0.000001
    54  H    0.157479   0.000056
 Sum of Mulliken charges =  -1.00000   1.00000

 Dipole moment (field-independent basis, Debye):
    X=             14.1430    Y=             -1.5115    Z=              0.4507  Tot=             14.2307
 Quadrupole moment (field-independent basis, Debye-Ang):
   XX=           -297.1362   YY=           -269.1883   ZZ=           -206.2135
   XY=              7.2944   XZ=             19.4206   YZ=             18.5205

 Normal termination of Gaussian 16 at Thu Oct 28 07:57:08 2021.
