 Gaussian 16, Revision C.01,
 Gaussian 16:  ES64L-G16RevC.01  3-Jul-2019

 ---------------------------------------------------------------
 # opt=modredundant b3lyp/6-311+g(d,p) scrf=(pcm, solvent=water)
 ---------------------------------------------------------------

 -----------
 NDI_-50.pdb
 -----------
 Symbolic Z-matrix:
 Charge = -1 Multiplicity = 2

 SCF Done:  E(UB3LYP) =  -2359.49798025     A.U. after   21 cycles
 SCF Done:  E(UB3LYP) =  -2359.50264528     A.U. after   18 cycles
 SCF Done:  E(UB3LYP) =  -2359.50331858     A.U. after   17 cycles
 SCF Done:  E(UB3LYP) =  -2359.50361608     A.U. after   16 cycles
 SCF Done:  E(UB3LYP) =  -2359.50373647     A.U. after   16 cycles
 SCF Done:  E(UB3LYP) =  -2359.50382427     A.U. after   15 cycles
 SCF Done:  E(UB3LYP) =  -2359.50384985     A.U. after   15 cycles
 SCF Done:  E(UB3LYP) =  -2359.50386282     A.U. after   13 cycles
 SCF Done:  E(UB3LYP) =  -2359.50388048     A.U. after   14 cycles
 SCF Done:  E(UB3LYP) =  -2359.50389349     A.U. after   13 cycles
 SCF Done:  E(UB3LYP) =  -2359.50392222     A.U. after    8 cycles
 SCF Done:  E(UB3LYP) =  -2359.50392224     A.U. after    8 cycles
 SCF Done:  E(UB3LYP) =  -2359.50392225     A.U. after    8 cycles
 SCF Done:  E(UB3LYP) =  -2359.50392226     A.U. after    8 cycles
 SCF Done:  E(UB3LYP) =  -2359.50392227     A.U. after    8 cycles
 SCF Done:  E(UB3LYP) =  -2359.50392229     A.U. after    8 cycles
 SCF Done:  E(UB3LYP) =  -2359.50392231     A.U. after    8 cycles
 SCF Done:  E(UB3LYP) =  -2359.50392232     A.U. after    8 cycles
 SCF Done:  E(UB3LYP) =  -2359.50392233     A.U. after    9 cycles
 SCF Done:  E(UB3LYP) =  -2359.50392233     A.U. after    8 cycles
 Optimization completed.
    -- Stationary point found.

                         Standard orientation:
 ---------------------------------------------------------------------
 Center     Atomic      Atomic             Coordinates (Angstroms)
 Number     Number       Type             X           Y           Z
 ---------------------------------------------------------------------
      1          6           0        2.837212   -2.934254    0.471762
      2          6           0        2.409024   -1.560521    0.242697
      3          6           0        3.368476   -0.536487    0.069524
      4          6           0        4.751867   -0.823266    0.121579
      5          6           0        5.210826   -2.188930    0.354075
      6          6           0        1.045328   -1.243850    0.247133
      7          6           0        2.917880    0.803708   -0.169996
      8          6           0        1.524053    1.092132   -0.233773
      9          6           0        0.577776    0.053879    0.045965
     10          6           0        1.119338    2.420379   -0.693558
     11          6           0        3.492948    3.188071   -0.622687
     12          6           0        3.895034    1.814675   -0.354316
     13          6           0        5.267772    1.502542   -0.287010
     14          6           0        5.692087    0.210470   -0.054048
     15          1           0        6.746563   -0.028415   -0.008212
     16          1           0        5.983512    2.302183   -0.427486
     17          1           0        0.341714   -2.035623    0.468918
     18          7           0        2.120854    3.409649   -0.765223
     19          7           0        4.217606   -3.170653    0.508288
     20          8           0        2.054863   -3.879485    0.631800
     21          8           0        6.407362   -2.496234    0.414383
     22          8           0        4.298404    4.120886   -0.744175
     23          8           0       -0.024702    2.728798   -1.039066
     24          6           0        1.672104    4.759156   -1.127584
     25          1           0        1.396523    4.802867   -2.183643
     26          1           0        0.800576    5.023036   -0.531545
     27          1           0        2.488389    5.447888   -0.936058
     28          6           0        4.632810   -4.559944    0.735784
     29          1           0        4.277364   -4.902600    1.708530
     30          1           0        4.208644   -5.204246   -0.034549
     31          1           0        5.716338   -4.597257    0.701680
     32          6           0       -0.863320    0.284177    0.239906
     33          6           0       -1.488956    1.193567    1.054091
     34         16           0       -2.030443   -0.759833   -0.537203
     35          6           0       -2.900889    1.056863    1.062633
     36          1           0       -0.948352    1.930488    1.628862
     37          6           0       -3.388062    0.040950    0.248872
     38          8           0       -3.774689    1.810859    1.787035
     39          6           0       -4.758839   -0.348691    0.028597
     40          6           0       -3.242149    2.865626    2.594432
     41          6           0       -5.242325   -1.373386   -0.775236
     42         16           0       -6.117642    0.474864    0.792979
     43          1           0       -4.099548    3.340072    3.067560
     44          1           0       -2.572853    2.470395    3.363606
     45          1           0       -2.710522    3.598123    1.980940
     46          6           0       -6.662318   -1.496203   -0.778800
     47          8           0       -4.367534   -2.151085   -1.472361
     48          6           0       -7.263306   -0.565932    0.020648
     49          1           0       -7.209934   -2.235894   -1.344560
     50          6           0       -4.903399   -3.198336   -2.287195
     51          1           0       -8.317921   -0.430038    0.205201
     52          1           0       -5.554668   -2.793758   -3.066935
     53          1           0       -4.046103   -3.686256   -2.746486
     54          1           0       -5.455048   -3.922708   -1.681596
 ---------------------------------------------------------------------

 The electronic state is 2-A.
 Alpha  occ. eigenvalues --  -88.87983 -88.87714 -19.16334 -19.16274 -19.09931
 Alpha  occ. eigenvalues --  -19.09900 -19.09649 -19.09475 -14.36734 -14.36413
 Alpha  occ. eigenvalues --  -10.28374 -10.28184 -10.28104 -10.28039 -10.24026
 Alpha  occ. eigenvalues --  -10.23936 -10.22496 -10.22454 -10.21321 -10.21160
 Alpha  occ. eigenvalues --  -10.21045 -10.20569 -10.20452 -10.20216 -10.20188
 Alpha  occ. eigenvalues --  -10.19743 -10.19614 -10.19440 -10.18937 -10.18901
 Alpha  occ. eigenvalues --  -10.18823 -10.18497 -10.18300 -10.18186 -10.18120
 Alpha  occ. eigenvalues --  -10.17739  -7.96545  -7.96279  -5.92853  -5.92595
 Alpha  occ. eigenvalues --   -5.92469  -5.92212  -5.92115  -5.91831  -1.07665
 Alpha  occ. eigenvalues --   -1.07559  -1.05859  -1.05673  -1.03804  -1.03582
 Alpha  occ. eigenvalues --   -0.93937  -0.93610  -0.89969  -0.89203  -0.87829
 Alpha  occ. eigenvalues --   -0.84161  -0.81849  -0.78784  -0.76488  -0.75837
 Alpha  occ. eigenvalues --   -0.75335  -0.74395  -0.73424  -0.72243  -0.70729
 Alpha  occ. eigenvalues --   -0.70300  -0.69332  -0.67516  -0.65117  -0.64020
 Alpha  occ. eigenvalues --   -0.63223  -0.62583  -0.59819  -0.58600  -0.56641
 Alpha  occ. eigenvalues --   -0.55660  -0.55340  -0.55021  -0.53962  -0.53125
 Alpha  occ. eigenvalues --   -0.51550  -0.49518  -0.48989  -0.48226  -0.47876
 Alpha  occ. eigenvalues --   -0.47747  -0.47739  -0.47407  -0.47222  -0.47006
 Alpha  occ. eigenvalues --   -0.46555  -0.45198  -0.45047  -0.44671  -0.44408
 Alpha  occ. eigenvalues --   -0.43947  -0.43173  -0.42874  -0.42385  -0.42100
 Alpha  occ. eigenvalues --   -0.41375  -0.41058  -0.40895  -0.40472  -0.40345
 Alpha  occ. eigenvalues --   -0.40189  -0.39850  -0.39509  -0.39103  -0.38636
 Alpha  occ. eigenvalues --   -0.38126  -0.37623  -0.37176  -0.36826  -0.35692
 Alpha  occ. eigenvalues --   -0.34901  -0.34236  -0.33554  -0.33301  -0.32991
 Alpha  occ. eigenvalues --   -0.32604  -0.30077  -0.29338  -0.28820  -0.28134
 Alpha  occ. eigenvalues --   -0.27932  -0.27339  -0.26867  -0.26395  -0.26176
 Alpha  occ. eigenvalues --   -0.24543  -0.24252  -0.23963  -0.18954  -0.15471
 Alpha virt. eigenvalues --   -0.06152  -0.05162  -0.03371  -0.02693  -0.00282
 Alpha virt. eigenvalues --    0.00111   0.00383   0.00727   0.00871   0.01256
 Alpha virt. eigenvalues --    0.01687   0.02309   0.02386   0.02442   0.02646

  Beta  occ. eigenvalues --  -88.87982 -88.87709 -19.16325 -19.16278 -19.09739
  Beta  occ. eigenvalues --  -19.09701 -19.09468 -19.09279 -14.36789 -14.36466
  Beta  occ. eigenvalues --  -10.28313 -10.28124 -10.28048 -10.27983 -10.24007
  Beta  occ. eigenvalues --  -10.23952 -10.22496 -10.22453 -10.21332 -10.21117
  Beta  occ. eigenvalues --  -10.21076 -10.20504 -10.20465 -10.20243 -10.20198
  Beta  occ. eigenvalues --  -10.19742 -10.19613 -10.19273 -10.18786 -10.18733
  Beta  occ. eigenvalues --  -10.18668 -10.18431 -10.18307 -10.18104 -10.18036
  Beta  occ. eigenvalues --  -10.17702  -7.96545  -7.96274  -5.92853  -5.92591
  Beta  occ. eigenvalues --   -5.92469  -5.92208  -5.92113  -5.91820  -1.07652
  Beta  occ. eigenvalues --   -1.07562  -1.05610  -1.05433  -1.03466  -1.03256
  Beta  occ. eigenvalues --   -0.93819  -0.93500  -0.89869  -0.89120  -0.87787
  Beta  occ. eigenvalues --   -0.83846  -0.81549  -0.78649  -0.76375  -0.75488
  Beta  occ. eigenvalues --   -0.75192  -0.74368  -0.73355  -0.72193  -0.70685
  Beta  occ. eigenvalues --   -0.70003  -0.69187  -0.67406  -0.64964  -0.63823
  Beta  occ. eigenvalues --   -0.63139  -0.62387  -0.59777  -0.58544  -0.56556
  Beta  occ. eigenvalues --   -0.55541  -0.55321  -0.54913  -0.53948  -0.52975
  Beta  occ. eigenvalues --   -0.51438  -0.49372  -0.48897  -0.47955  -0.47748
  Beta  occ. eigenvalues --   -0.47704  -0.47581  -0.47397  -0.47156  -0.46883
  Beta  occ. eigenvalues --   -0.46509  -0.45148  -0.44947  -0.44595  -0.44282
  Beta  occ. eigenvalues --   -0.43858  -0.42994  -0.42702  -0.42214  -0.41894
  Beta  occ. eigenvalues --   -0.41299  -0.40988  -0.40810  -0.40213  -0.39921
  Beta  occ. eigenvalues --   -0.39825  -0.39440  -0.39068  -0.38645  -0.38487
  Beta  occ. eigenvalues --   -0.38081  -0.37456  -0.36858  -0.36787  -0.35675
  Beta  occ. eigenvalues --   -0.34807  -0.34006  -0.33423  -0.33256  -0.32976
  Beta  occ. eigenvalues --   -0.32053  -0.29310  -0.28922  -0.28553  -0.27766
  Beta  occ. eigenvalues --   -0.27497  -0.27026  -0.26653  -0.26041  -0.25837
  Beta  occ. eigenvalues --   -0.24345  -0.24047  -0.22710  -0.18709
  Beta virt. eigenvalues --   -0.11084  -0.05510  -0.04366  -0.02615  -0.02249
  Beta virt. eigenvalues --   -0.00265   0.00241   0.00395   0.00733   0.00894
  Beta virt. eigenvalues --    0.01300   0.01700   0.02395   0.02484   0.02755

 Mulliken charges and spin densities:
               1          2
     1  C    0.413770   0.026981
     2  C   -0.168566   0.117906
     3  C    0.097726  -0.036581
     4  C    0.196034   0.104268
     5  C    0.271349   0.026194
     6  C   -0.490662   0.056543
     7  C    0.193892  -0.031678
     8  C    0.237366   0.119961
     9  C    0.463644   0.069848
    10  C   -0.457856   0.027808
    11  C    0.258229   0.025447
    12  C    0.104814   0.103495
    13  C   -0.495704   0.061399
    14  C   -0.612477   0.064342
    15  H    0.144166  -0.004413
    16  H    0.144384  -0.004236
    17  H    0.153362  -0.003029
    18  N   -0.078651  -0.022091
    19  N   -0.135780  -0.023200
    20  O   -0.432873   0.074126
    21  O   -0.417489   0.071244
    22  O   -0.427342   0.067815
    23  O   -0.312249   0.073160
    24  C   -0.197881   0.001306
    25  H    0.176466  -0.001158
    26  H    0.171237  -0.000625
    27  H    0.173784  -0.000392
    28  C   -0.208327   0.001226
    29  H    0.173362  -0.001018
    30  H    0.170687  -0.000936
    31  H    0.174008  -0.000337
    32  C    0.094825  -0.030584
    33  C   -0.467902   0.024609
    34  S   -0.520963   0.010814
    35  C   -0.260486  -0.008575
    36  H    0.150141  -0.001866
    37  C    0.660610   0.030271
    38  O   -0.167956  -0.000612
    39  C    0.720623  -0.009118
    40  C   -0.235848   0.000220
    41  C   -0.004778   0.012408
    42  S   -0.239102   0.000017
    43  H    0.174215  -0.000007
    44  H    0.160339  -0.000095
    45  H    0.162422  -0.000161
    46  C   -0.592073  -0.005273
    47  O   -0.167228   0.002178
    48  C   -0.332913   0.012619
    49  H    0.159145   0.000233
    50  C   -0.251137  -0.000025
    51  H    0.186260  -0.000750
    52  H    0.158476   0.000160
    53  H    0.172358   0.000002
    54  H    0.158547   0.000159
 Sum of Mulliken charges =  -1.00000   1.00000

 Dipole moment (field-independent basis, Debye):
    X=            -14.8023    Y=             -0.5509    Z=              1.1945  Tot=             14.8606
 Quadrupole moment (field-independent basis, Debye-Ang):
   XX=           -297.6045   YY=           -255.0685   ZZ=           -219.4881
   XY=              8.2910   XZ=              5.9294   YZ=             25.1351

 Normal termination of Gaussian 16 at Thu Oct 28 08:32:51 2021.
