 Gaussian 16, Revision C.01,
 Gaussian 16:  ES64L-G16RevC.01  3-Jul-2019

 ---------------------------------------------------------------
 # opt=modredundant b3lyp/6-311+g(d,p) scrf=(pcm, solvent=water)
 ---------------------------------------------------------------

 -----------
 NDI_150.pdb
 -----------
 Symbolic Z-matrix:
 Charge = -1 Multiplicity = 2

 SCF Done:  E(UB3LYP) =  -2359.47378694     A.U. after   21 cycles
 SCF Done:  E(UB3LYP) =  -2359.48643963     A.U. after   23 cycles
 SCF Done:  E(UB3LYP) =  -2359.49299549     A.U. after   20 cycles
 SCF Done:  E(UB3LYP) =  -2359.49788842     A.U. after   21 cycles
 SCF Done:  E(UB3LYP) =  -2359.50010737     A.U. after   20 cycles
 SCF Done:  E(UB3LYP) =  -2359.50128676     A.U. after   20 cycles
 SCF Done:  E(UB3LYP) =  -2359.50201445     A.U. after   17 cycles
 SCF Done:  E(UB3LYP) =  -2359.50223187     A.U. after   20 cycles
 SCF Done:  E(UB3LYP) =  -2359.50259107     A.U. after   20 cycles
 SCF Done:  E(UB3LYP) =  -2359.50268351     A.U. after   17 cycles
 SCF Done:  E(UB3LYP) =  -2359.50284768     A.U. after   13 cycles
 SCF Done:  E(UB3LYP) =  -2359.50284809     A.U. after    9 cycles
 SCF Done:  E(UB3LYP) =  -2359.50284845     A.U. after   10 cycles
 SCF Done:  E(UB3LYP) =  -2359.50284876     A.U. after   10 cycles
 SCF Done:  E(UB3LYP) =  -2359.50284895     A.U. after    9 cycles
 SCF Done:  E(UB3LYP) =  -2359.50284907     A.U. after    9 cycles
 SCF Done:  E(UB3LYP) =  -2359.50284913     A.U. after    8 cycles
 SCF Done:  E(UB3LYP) =  -2359.50284916     A.U. after    8 cycles
 SCF Done:  E(UB3LYP) =  -2359.50284919     A.U. after    8 cycles
 SCF Done:  E(UB3LYP) =  -2359.50284920     A.U. after    8 cycles
 Optimization completed.
    -- Stationary point found.

                         Standard orientation:
 ---------------------------------------------------------------------
 Center     Atomic      Atomic             Coordinates (Angstroms)
 Number     Number       Type             X           Y           Z
 ---------------------------------------------------------------------
      1          6           0        3.501100   -2.684864    0.342627
      2          6           0        2.767210   -1.461772    0.043548
      3          6           0        3.416596   -0.207460    0.122302
      4          6           0        4.776410   -0.115236    0.494857
      5          6           0        5.535384   -1.322867    0.805249
      6          6           0        1.401178   -1.522325   -0.253818
      7          6           0        2.673627    0.976622   -0.194055
      8          6           0        1.305939    0.883589   -0.579118
      9          6           0        0.643013   -0.386654   -0.541989
     10          6           0        0.680644    2.073315   -1.150876
     11          6           0        2.642181    3.454286   -0.474369
     12          6           0        3.342927    2.224989   -0.129591
     13          6           0        4.696663    2.289457    0.257328
     14          6           0        5.403205    1.144490    0.564349
     15          1           0        6.444532    1.195617    0.854437
     16          1           0        5.172328    3.260756    0.301454
     17          1           0        0.913856   -2.486212   -0.195081
     18          7           0        1.340350    3.303140   -0.959534
     19          7           0        4.847978   -2.544107    0.702251
     20          8           0        3.000762   -3.815470    0.294721
     21          8           0        6.725194   -1.302801    1.141649
     22          8           0        3.152730    4.578565   -0.380756
     23          8           0       -0.367674    2.067698   -1.803922
     24          6           0        0.635276    4.500704   -1.431104
     25          1           0        0.683846    4.574903   -2.520164
     26          1           0       -0.409694    4.442910   -1.134024
     27          1           0        1.111725    5.369521   -0.988681
     28          6           0        5.573540   -3.784999    0.999096
     29          1           0        5.120465   -4.288118    1.854434
     30          1           0        5.529222   -4.454619    0.140014
     31          1           0        6.603342   -3.527472    1.222144
     32          6           0       -0.812420   -0.583302   -0.624969
     33          6           0       -1.462979   -1.676146   -1.154487
     34         16           0       -1.932977    0.416497    0.271432
     35          6           0       -2.854071   -1.693567   -0.881152
     36          1           0       -0.954700   -2.429545   -1.738688
     37          6           0       -3.297599   -0.632036   -0.102386
     38          8           0       -3.745582   -2.629970   -1.311817
     39          6           0       -4.639530   -0.354312    0.345935
     40          6           0       -3.251003   -3.713120   -2.105431
     41          6           0       -5.080017    0.692409    1.146993
     42         16           0       -6.015096   -1.371791   -0.081560
     43          1           0       -4.115764   -4.332018   -2.336128
     44          1           0       -2.805503   -3.346653   -3.034435
     45          1           0       -2.517131   -4.303154   -1.549460
     46          6           0       -6.480998    0.681238    1.408560
     47          8           0       -4.185929    1.610462    1.607516
     48          6           0       -7.109895   -0.373265    0.810042
     49          1           0       -6.995820    1.415774    2.010565
     50          6           0       -4.681229    2.683289    2.415015
     51          1           0       -8.158555   -0.626390    0.842121
     52          1           0       -5.138305    2.303850    3.333084
     53          1           0       -3.814589    3.291821    2.665098
     54          1           0       -5.405292    3.287833    1.861862
 ---------------------------------------------------------------------

 The electronic state is 2-A.
 Alpha  occ. eigenvalues --  -88.88014 -88.87450 -19.16368 -19.16280 -19.09960
 Alpha  occ. eigenvalues --  -19.09922 -19.09660 -19.09549 -14.36742 -14.36424
 Alpha  occ. eigenvalues --  -10.28403 -10.28209 -10.28091 -10.28047 -10.24105
 Alpha  occ. eigenvalues --  -10.23907 -10.22508 -10.22465 -10.21345 -10.21240
 Alpha  occ. eigenvalues --  -10.21210 -10.20566 -10.20420 -10.20274 -10.20155
 Alpha  occ. eigenvalues --  -10.19748 -10.19650 -10.19307 -10.18952 -10.18903
 Alpha  occ. eigenvalues --  -10.18818 -10.18529 -10.18323 -10.18191 -10.18118
 Alpha  occ. eigenvalues --  -10.17953  -7.96576  -7.96019  -5.92884  -5.92500
 Alpha  occ. eigenvalues --   -5.92342  -5.92146  -5.91956  -5.91558  -1.07707
 Alpha  occ. eigenvalues --   -1.07567  -1.05881  -1.05690  -1.03831  -1.03600
 Alpha  occ. eigenvalues --   -0.93947  -0.93651  -0.89962  -0.89216  -0.87828
 Alpha  occ. eigenvalues --   -0.84161  -0.81844  -0.78872  -0.76361  -0.75935
 Alpha  occ. eigenvalues --   -0.75342  -0.74404  -0.73431  -0.72290  -0.70781
 Alpha  occ. eigenvalues --   -0.70043  -0.69512  -0.67565  -0.65088  -0.64060
 Alpha  occ. eigenvalues --   -0.63187  -0.62619  -0.59795  -0.58626  -0.56663
 Alpha  occ. eigenvalues --   -0.55755  -0.55372  -0.55006  -0.54006  -0.52915
 Alpha  occ. eigenvalues --   -0.51748  -0.49424  -0.48903  -0.48288  -0.47901
 Alpha  occ. eigenvalues --   -0.47796  -0.47678  -0.47416  -0.47322  -0.46993
 Alpha  occ. eigenvalues --   -0.46563  -0.45243  -0.45137  -0.44664  -0.44541
 Alpha  occ. eigenvalues --   -0.43762  -0.43181  -0.43015  -0.42494  -0.42053
 Alpha  occ. eigenvalues --   -0.41392  -0.41065  -0.40861  -0.40502  -0.40334
 Alpha  occ. eigenvalues --   -0.40102  -0.39889  -0.39581  -0.39194  -0.38639
 Alpha  occ. eigenvalues --   -0.38069  -0.37603  -0.37100  -0.36828  -0.35609
 Alpha  occ. eigenvalues --   -0.34917  -0.34560  -0.33570  -0.33251  -0.33026
 Alpha  occ. eigenvalues --   -0.32379  -0.29999  -0.29322  -0.28948  -0.28153
 Alpha  occ. eigenvalues --   -0.27951  -0.27317  -0.26911  -0.26359  -0.26263
 Alpha  occ. eigenvalues --   -0.24613  -0.24293  -0.23845  -0.18998  -0.15432
 Alpha virt. eigenvalues --   -0.06359  -0.05258  -0.03280  -0.02661  -0.00310
 Alpha virt. eigenvalues --    0.00140   0.00393   0.00662   0.00809   0.01423
 Alpha virt. eigenvalues --    0.01755   0.02311   0.02367   0.02546   0.02577

  Beta  occ. eigenvalues --  -88.88013 -88.87445 -19.16356 -19.16287 -19.09771
  Beta  occ. eigenvalues --  -19.09726 -19.09481 -19.09355 -14.36796 -14.36476
  Beta  occ. eigenvalues --  -10.28343 -10.28150 -10.28034 -10.27991 -10.24079
  Beta  occ. eigenvalues --  -10.23930 -10.22509 -10.22465 -10.21360 -10.21249
  Beta  occ. eigenvalues --  -10.21186 -10.20471 -10.20454 -10.20249 -10.20211
  Beta  occ. eigenvalues --  -10.19747 -10.19649 -10.19146 -10.18803 -10.18736
  Beta  occ. eigenvalues --  -10.18664 -10.18467 -10.18332 -10.18112 -10.18035
  Beta  occ. eigenvalues --  -10.17903  -7.96575  -7.96015  -5.92884  -5.92500
  Beta  occ. eigenvalues --   -5.92336  -5.92144  -5.91951  -5.91549  -1.07685
  Beta  occ. eigenvalues --   -1.07577  -1.05635  -1.05452  -1.03498  -1.03278
  Beta  occ. eigenvalues --   -0.93831  -0.93543  -0.89860  -0.89132  -0.87783
  Beta  occ. eigenvalues --   -0.83848  -0.81548  -0.78732  -0.76257  -0.75615
  Beta  occ. eigenvalues --   -0.75177  -0.74362  -0.73362  -0.72219  -0.70739
  Beta  occ. eigenvalues --   -0.69761  -0.69370  -0.67454  -0.64936  -0.63870
  Beta  occ. eigenvalues --   -0.63075  -0.62463  -0.59734  -0.58565  -0.56586
  Beta  occ. eigenvalues --   -0.55626  -0.55351  -0.54890  -0.53990  -0.52785
  Beta  occ. eigenvalues --   -0.51633  -0.49255  -0.48843  -0.48014  -0.47762
  Beta  occ. eigenvalues --   -0.47685  -0.47596  -0.47406  -0.47241  -0.46875
  Beta  occ. eigenvalues --   -0.46514  -0.45178  -0.45069  -0.44525  -0.44474
  Beta  occ. eigenvalues --   -0.43657  -0.43016  -0.42817  -0.42356  -0.41820
  Beta  occ. eigenvalues --   -0.41339  -0.40999  -0.40791  -0.40142  -0.39930
  Beta  occ. eigenvalues --   -0.39860  -0.39429  -0.39137  -0.38805  -0.38495
  Beta  occ. eigenvalues --   -0.37953  -0.37406  -0.36864  -0.36752  -0.35593
  Beta  occ. eigenvalues --   -0.34805  -0.34282  -0.33463  -0.33210  -0.33014
  Beta  occ. eigenvalues --   -0.31836  -0.29208  -0.28935  -0.28634  -0.27882
  Beta  occ. eigenvalues --   -0.27474  -0.27028  -0.26707  -0.26145  -0.25763
  Beta  occ. eigenvalues --   -0.24430  -0.23938  -0.22718  -0.18702
  Beta virt. eigenvalues --   -0.11106  -0.05744  -0.04393  -0.02532  -0.02256
  Beta virt. eigenvalues --   -0.00294   0.00287   0.00418   0.00673   0.00851
  Beta virt. eigenvalues --    0.01432   0.01779   0.02351   0.02562   0.02907

 Mulliken charges and spin densities:
               1          2
     1  C    0.388113   0.027417
     2  C   -0.110477   0.116268
     3  C    0.120532  -0.038848
     4  C    0.213770   0.102932
     5  C    0.249731   0.025621
     6  C   -0.168896   0.047682
     7  C    0.148138  -0.032036
     8  C    0.152737   0.120956
     9  C    0.268489   0.075563
    10  C   -0.501429   0.023239
    11  C    0.337771   0.026451
    12  C    0.039101   0.102090
    13  C   -0.500163   0.058960
    14  C   -0.570935   0.062465
    15  H    0.144180  -0.004356
    16  H    0.144429  -0.004120
    17  H    0.146014  -0.002591
    18  N   -0.014341  -0.021935
    19  N   -0.136227  -0.022877
    20  O   -0.430856   0.073106
    21  O   -0.417210   0.069949
    22  O   -0.430214   0.066801
    23  O   -0.365623   0.073356
    24  C   -0.196400   0.001424
    25  H    0.177957  -0.001185
    26  H    0.174050  -0.000572
    27  H    0.174522  -0.000418
    28  C   -0.204399   0.001291
    29  H    0.173651  -0.001007
    30  H    0.170577  -0.000917
    31  H    0.174204  -0.000332
    32  C    0.128291  -0.015379
    33  C   -0.646233   0.036516
    34  S   -0.680303   0.009725
    35  C   -0.117053  -0.016467
    36  H    0.156996  -0.001698
    37  C    0.625356   0.026295
    38  O   -0.169097  -0.001059
    39  C    0.834495  -0.010804
    40  C   -0.236379   0.000184
    41  C    0.007527   0.017082
    42  S   -0.229512  -0.000447
    43  H    0.174712   0.000001
    44  H    0.160882  -0.000173
    45  H    0.162902  -0.000150
    46  C   -0.616091  -0.007158
    47  O   -0.165271   0.002404
    48  C   -0.326932   0.017247
    49  H    0.159276   0.000317
    50  C   -0.251684  -0.000217
    51  H    0.186851  -0.001033
    52  H    0.158263   0.000254
    53  H    0.172902  -0.000008
    54  H    0.159305   0.000190
 Sum of Mulliken charges =  -1.00000   1.00000

 Dipole moment (field-independent basis, Debye):
    X=            -14.7386    Y=             -1.9809    Z=              1.3248  Tot=             14.9300
 Quadrupole moment (field-independent basis, Debye-Ang):
   XX=           -291.1350   YY=           -254.2818   ZZ=           -224.2419
   XY=            -12.5645   XZ=            -20.1647   YZ=             20.6257

 Normal termination of Gaussian 16 at Thu Oct 28 12:12:07 2021.
