 Gaussian 16, Revision C.01,
 Gaussian 16:  ES64L-G16RevC.01  3-Jul-2019

 ---------------------------------------------------------------
 # opt=modredundant b3lyp/6-311+g(d,p) scrf=(pcm, solvent=water)
 ---------------------------------------------------------------

 ------------
 NDI_-135.pdb
 ------------
 Symbolic Z-matrix:
 Charge = -1 Multiplicity = 2

 SCF Done:  E(UB3LYP) =  -2359.48643460     A.U. after   20 cycles
 SCF Done:  E(UB3LYP) =  -2359.49014538     A.U. after   21 cycles
 SCF Done:  E(UB3LYP) =  -2359.49739217     A.U. after   21 cycles
 SCF Done:  E(UB3LYP) =  -2359.49982661     A.U. after   19 cycles
 SCF Done:  E(UB3LYP) =  -2359.50108675     A.U. after   17 cycles
 SCF Done:  E(UB3LYP) =  -2359.50236643     A.U. after   19 cycles
 SCF Done:  E(UB3LYP) =  -2359.50327785     A.U. after   17 cycles
 SCF Done:  E(UB3LYP) =  -2359.50345180     A.U. after   16 cycles
 SCF Done:  E(UB3LYP) =  -2359.50360869     A.U. after   16 cycles
 SCF Done:  E(UB3LYP) =  -2359.50368428     A.U. after   16 cycles
 SCF Done:  E(UB3LYP) =  -2359.50380017     A.U. after    9 cycles
 SCF Done:  E(UB3LYP) =  -2359.50380048     A.U. after    8 cycles
 SCF Done:  E(UB3LYP) =  -2359.50380065     A.U. after    8 cycles
 SCF Done:  E(UB3LYP) =  -2359.50380074     A.U. after    8 cycles
 SCF Done:  E(UB3LYP) =  -2359.50380061     A.U. after   10 cycles
 SCF Done:  E(UB3LYP) =  -2359.50380053     A.U. after    9 cycles
 SCF Done:  E(UB3LYP) =  -2359.50380052     A.U. after    9 cycles
 SCF Done:  E(UB3LYP) =  -2359.50380077     A.U. after   10 cycles
 SCF Done:  E(UB3LYP) =  -2359.50380066     A.U. after    8 cycles
 SCF Done:  E(UB3LYP) =  -2359.50380068     A.U. after    8 cycles
 Optimization completed.
    -- Stationary point found.

                         Standard orientation:
 ---------------------------------------------------------------------
 Center     Atomic      Atomic             Coordinates (Angstroms)
 Number     Number       Type             X           Y           Z
 ---------------------------------------------------------------------
      1          6           0       -3.480299   -2.697028    0.415854
      2          6           0       -2.756676   -1.472077    0.101877
      3          6           0       -3.425557   -0.226226    0.128038
      4          6           0       -4.796069   -0.144372    0.465427
      5          6           0       -5.544328   -1.353534    0.793341
      6          6           0       -1.383191   -1.520145   -0.170936
      7          6           0       -2.694881    0.961393   -0.205009
      8          6           0       -1.317257    0.879328   -0.554045
      9          6           0       -0.642907   -0.379352   -0.472830
     10          6           0       -0.678791    2.069913   -1.111368
     11          6           0       -2.690157    3.431598   -0.546416
     12          6           0       -3.382949    2.200808   -0.190424
     13          6           0       -4.746810    2.254470    0.160654
     14          6           0       -5.442711    1.106949    0.482640
     15          1           0       -6.491530    1.149775    0.745853
     16          1           0       -5.238442    3.218745    0.166793
     17          1           0       -0.878652   -2.474256   -0.093772
     18          7           0       -1.367988    3.290725   -0.978916
     19          7           0       -4.837208   -2.566643    0.740256
     20          8           0       -2.963064   -3.821195    0.409532
     21          8           0       -6.741836   -1.341948    1.102541
     22          8           0       -3.222241    4.548672   -0.501416
     23          8           0        0.405601    2.071582   -1.701913
     24          6           0       -0.660212    4.488996   -1.444760
     25          1           0        0.360427    4.474700   -1.067466
     26          1           0       -0.626876    4.517385   -2.536279
     27          1           0       -1.192086    5.359705   -1.075616
     28          6           0       -5.552214   -3.809818    1.052730
     29          1           0       -5.482005   -4.499148    0.211094
     30          1           0       -5.109695   -4.286149    1.928633
     31          1           0       -6.589674   -3.561153    1.248918
     32          6           0        0.816634   -0.555141   -0.576835
     33          6           0        1.486424   -1.502366   -1.311036
     34         16           0        1.915988    0.308997    0.470891
     35          6           0        2.887132   -1.512083   -1.069083
     36          1           0        0.987642   -2.152741   -2.015109
     37          6           0        3.311045   -0.591602   -0.120895
     38          8           0        3.799716   -2.322020   -1.676282
     39          6           0        4.652770   -0.348965    0.351113
     40          6           0        3.326331   -3.249033   -2.658375
     41          6           0        5.074309    0.553843    1.318936
     42         16           0        6.052536   -1.219921   -0.274126
     43          1           0        4.205958   -3.783710   -3.011188
     44          1           0        2.619315   -3.958428   -2.219505
     45          1           0        2.855916   -2.726324   -3.495803
     46          6           0        6.480691    0.550170    1.551746
     47          8           0        4.159111    1.341051    1.950490
     48          6           0        7.132505   -0.355269    0.763908
     49          1           0        6.982886    1.185101    2.267065
     50          6           0        4.634724    2.266700    2.932728
     51          1           0        8.189873   -0.569149    0.732469
     52          1           0        5.328547    2.986495    2.489674
     53          1           0        3.753873    2.789403    3.300010
     54          1           0        5.120891    1.743900    3.761108
 ---------------------------------------------------------------------

 The electronic state is 2-A.
 Alpha  occ. eigenvalues --  -88.87977 -88.87438 -19.16312 -19.16269 -19.09932
 Alpha  occ. eigenvalues --  -19.09902 -19.09696 -19.09606 -14.36732 -14.36462
 Alpha  occ. eigenvalues --  -10.28378 -10.28189 -10.28137 -10.28093 -10.24023
 Alpha  occ. eigenvalues --  -10.23891 -10.22488 -10.22457 -10.21300 -10.21146
 Alpha  occ. eigenvalues --  -10.21126 -10.20479 -10.20443 -10.20213 -10.20212
 Alpha  occ. eigenvalues --  -10.19742 -10.19648 -10.19412 -10.18952 -10.18913
 Alpha  occ. eigenvalues --  -10.18861 -10.18510 -10.18290 -10.18218 -10.18154
 Alpha  occ. eigenvalues --  -10.17883  -7.96540  -7.96009  -5.92848  -5.92464
 Alpha  occ. eigenvalues --   -5.92332  -5.92110  -5.91948  -5.91546  -1.07644
 Alpha  occ. eigenvalues --   -1.07539  -1.05856  -1.05727  -1.03802  -1.03644
 Alpha  occ. eigenvalues --   -0.93935  -0.93677  -0.89949  -0.89199  -0.87794
 Alpha  occ. eigenvalues --   -0.84174  -0.81870  -0.78824  -0.76343  -0.75928
 Alpha  occ. eigenvalues --   -0.75328  -0.74360  -0.73439  -0.72253  -0.70782
 Alpha  occ. eigenvalues --   -0.70074  -0.69464  -0.67546  -0.65100  -0.64069
 Alpha  occ. eigenvalues --   -0.63173  -0.62630  -0.59783  -0.58588  -0.56668
 Alpha  occ. eigenvalues --   -0.55733  -0.55333  -0.54999  -0.53959  -0.52946
 Alpha  occ. eigenvalues --   -0.51699  -0.49449  -0.48948  -0.48276  -0.47905
 Alpha  occ. eigenvalues --   -0.47777  -0.47692  -0.47392  -0.47306  -0.46987
 Alpha  occ. eigenvalues --   -0.46570  -0.45171  -0.45111  -0.44673  -0.44557
 Alpha  occ. eigenvalues --   -0.43838  -0.43222  -0.43003  -0.42503  -0.42084
 Alpha  occ. eigenvalues --   -0.41347  -0.40995  -0.40829  -0.40476  -0.40358
 Alpha  occ. eigenvalues --   -0.40160  -0.39880  -0.39603  -0.39177  -0.38545
 Alpha  occ. eigenvalues --   -0.38044  -0.37541  -0.37186  -0.36882  -0.35594
 Alpha  occ. eigenvalues --   -0.34893  -0.34329  -0.33544  -0.33201  -0.33058
 Alpha  occ. eigenvalues --   -0.32442  -0.30026  -0.29283  -0.28845  -0.28134
 Alpha  occ. eigenvalues --   -0.27926  -0.27360  -0.26877  -0.26400  -0.26267
 Alpha  occ. eigenvalues --   -0.24594  -0.24268  -0.23964  -0.18939  -0.15506
 Alpha virt. eigenvalues --   -0.06099  -0.05157  -0.03367  -0.02732  -0.00303
 Alpha virt. eigenvalues --   -0.00013   0.00362   0.00716   0.00833   0.01371
 Alpha virt. eigenvalues --    0.01621   0.02319   0.02392   0.02491   0.02577

  Beta  occ. eigenvalues --  -88.87977 -88.87432 -19.16304 -19.16273 -19.09740
  Beta  occ. eigenvalues --  -19.09702 -19.09514 -19.09404 -14.36787 -14.36515
  Beta  occ. eigenvalues --  -10.28317 -10.28129 -10.28082 -10.28036 -10.24008
  Beta  occ. eigenvalues --  -10.23903 -10.22488 -10.22457 -10.21308 -10.21173
  Beta  occ. eigenvalues --  -10.21094 -10.20496 -10.20373 -10.20268 -10.20197
  Beta  occ. eigenvalues --  -10.19741 -10.19648 -10.19243 -10.18800 -10.18745
  Beta  occ. eigenvalues --  -10.18703 -10.18444 -10.18295 -10.18136 -10.18070
  Beta  occ. eigenvalues --  -10.17852  -7.96539  -7.96003  -5.92848  -5.92464
  Beta  occ. eigenvalues --   -5.92324  -5.92109  -5.91941  -5.91537  -1.07633
  Beta  occ. eigenvalues --   -1.07542  -1.05607  -1.05483  -1.03464  -1.03313
  Beta  occ. eigenvalues --   -0.93816  -0.93566  -0.89843  -0.89124  -0.87753
  Beta  occ. eigenvalues --   -0.83857  -0.81567  -0.78688  -0.76241  -0.75589
  Beta  occ. eigenvalues --   -0.75171  -0.74326  -0.73369  -0.72193  -0.70739
  Beta  occ. eigenvalues --   -0.69771  -0.69332  -0.67441  -0.64948  -0.63874
  Beta  occ. eigenvalues --   -0.63067  -0.62463  -0.59731  -0.58530  -0.56590
  Beta  occ. eigenvalues --   -0.55598  -0.55320  -0.54882  -0.53947  -0.52812
  Beta  occ. eigenvalues --   -0.51579  -0.49275  -0.48890  -0.48000  -0.47736
  Beta  occ. eigenvalues --   -0.47693  -0.47611  -0.47384  -0.47227  -0.46869
  Beta  occ. eigenvalues --   -0.46525  -0.45106  -0.45037  -0.44552  -0.44480
  Beta  occ. eigenvalues --   -0.43730  -0.43055  -0.42805  -0.42369  -0.41835
  Beta  occ. eigenvalues --   -0.41297  -0.40950  -0.40763  -0.40160  -0.39938
  Beta  occ. eigenvalues --   -0.39852  -0.39432  -0.39118  -0.38787  -0.38418
  Beta  occ. eigenvalues --   -0.37946  -0.37336  -0.36975  -0.36775  -0.35582
  Beta  occ. eigenvalues --   -0.34796  -0.34043  -0.33439  -0.33164  -0.33043
  Beta  occ. eigenvalues --   -0.31873  -0.29167  -0.28949  -0.28588  -0.27808
  Beta  occ. eigenvalues --   -0.27483  -0.27059  -0.26670  -0.26101  -0.25802
  Beta  occ. eigenvalues --   -0.24475  -0.23974  -0.22737  -0.18740
  Beta virt. eigenvalues --   -0.11078  -0.05426  -0.04415  -0.02606  -0.02260
  Beta virt. eigenvalues --   -0.00286   0.00096   0.00374   0.00727   0.00865
  Beta virt. eigenvalues --    0.01380   0.01643   0.02361   0.02582   0.02883

 Mulliken charges and spin densities:
               1          2
     1  C    0.398043   0.026745
     2  C   -0.125201   0.119708
     3  C    0.128498  -0.038374
     4  C    0.185191   0.104855
     5  C    0.265517   0.025421
     6  C   -0.324998   0.053702
     7  C    0.179211  -0.033035
     8  C    0.071835   0.125778
     9  C    0.295740   0.067679
    10  C   -0.440395   0.024549
    11  C    0.315793   0.025709
    12  C    0.058906   0.106265
    13  C   -0.485540   0.060836
    14  C   -0.589392   0.063992
    15  H    0.144199  -0.004489
    16  H    0.144537  -0.004213
    17  H    0.143289  -0.003040
    18  N   -0.039922  -0.022243
    19  N   -0.135563  -0.023218
    20  O   -0.430545   0.074301
    21  O   -0.418932   0.071322
    22  O   -0.428166   0.068252
    23  O   -0.354664   0.075458
    24  C   -0.188360   0.001371
    25  H    0.173536  -0.000616
    26  H    0.177542  -0.001180
    27  H    0.174876  -0.000400
    28  C   -0.206570   0.001288
    29  H    0.170750  -0.000939
    30  H    0.173464  -0.001021
    31  H    0.174494  -0.000338
    32  C    0.222648  -0.014848
    33  C   -0.561315   0.024833
    34  S   -0.568892   0.011719
    35  C   -0.106816  -0.006153
    36  H    0.153235  -0.001080
    37  C    0.485589   0.012119
    38  O   -0.167952  -0.000574
    39  C    0.811468  -0.007331
    40  C   -0.235419  -0.000017
    41  C    0.022511   0.010506
    42  S   -0.241950  -0.000192
    43  H    0.174200   0.000000
    44  H    0.162463  -0.000081
    45  H    0.162309  -0.000086
    46  C   -0.596669  -0.003938
    47  O   -0.169059   0.001169
    48  C   -0.337510   0.010076
    49  H    0.159034   0.000185
    50  C   -0.250405  -0.000090
    51  H    0.186187  -0.000600
    52  H    0.158784   0.000104
    53  H    0.172446  -0.000007
    54  H    0.157939   0.000162
 Sum of Mulliken charges =  -1.00000   1.00000

 Dipole moment (field-independent basis, Debye):
    X=             14.4730    Y=             -1.7382    Z=              1.0541  Tot=             14.6151
 Quadrupole moment (field-independent basis, Debye-Ang):
   XX=           -293.7026   YY=           -259.3685   ZZ=           -217.8180
   XY=             10.9019   XZ=             19.8782   YZ=             22.7721

 Normal termination of Gaussian 16 at Thu Oct 28 09:45:33 2021.
