 Gaussian 16, Revision C.01,
 Gaussian 16:  ES64L-G16RevC.01  3-Jul-2019

 ---------------------------------------------------------------
 # opt=modredundant b3lyp/6-311+g(d,p) scrf=(pcm, solvent=water)
 ---------------------------------------------------------------

 ------------
 NDI_-170.pdb
 ------------
 Symbolic Z-matrix:
 Charge = -1 Multiplicity = 2

 SCF Done:  E(UB3LYP) =  -2359.45290399     A.U. after   22 cycles
 SCF Done:  E(UB3LYP) =  -2359.48284318     A.U. after   23 cycles
 SCF Done:  E(UB3LYP) =  -2359.49292574     A.U. after   20 cycles
 SCF Done:  E(UB3LYP) =  -2359.49551015     A.U. after   18 cycles
 SCF Done:  E(UB3LYP) =  -2359.49612124     A.U. after   16 cycles
 SCF Done:  E(UB3LYP) =  -2359.49647888     A.U. after   20 cycles
 SCF Done:  E(UB3LYP) =  -2359.49672755     A.U. after   17 cycles
 SCF Done:  E(UB3LYP) =  -2359.49720133     A.U. after   15 cycles
 SCF Done:  E(UB3LYP) =  -2359.49811401     A.U. after   18 cycles
 SCF Done:  E(UB3LYP) =  -2359.49837580     A.U. after   22 cycles
 SCF Done:  E(UB3LYP) =  -2359.49981050     A.U. after   15 cycles
 SCF Done:  E(UB3LYP) =  -2359.49982329     A.U. after   14 cycles
 SCF Done:  E(UB3LYP) =  -2359.49982732     A.U. after   13 cycles
 SCF Done:  E(UB3LYP) =  -2359.49982895     A.U. after   10 cycles
 SCF Done:  E(UB3LYP) =  -2359.49983053     A.U. after   11 cycles
 SCF Done:  E(UB3LYP) =  -2359.49983123     A.U. after   12 cycles
 SCF Done:  E(UB3LYP) =  -2359.49983203     A.U. after   12 cycles
 SCF Done:  E(UB3LYP) =  -2359.49983243     A.U. after    9 cycles
 SCF Done:  E(UB3LYP) =  -2359.49983257     A.U. after    9 cycles
 SCF Done:  E(UB3LYP) =  -2359.49983259     A.U. after    8 cycles
 Optimization completed.
    -- Stationary point found.

                         Standard orientation:
 ---------------------------------------------------------------------
 Center     Atomic      Atomic             Coordinates (Angstroms)
 Number     Number       Type             X           Y           Z
 ---------------------------------------------------------------------
      1          6           0       -3.577906   -2.647579    0.147568
      2          6           0       -2.810609   -1.428601   -0.080159
      3          6           0       -3.417217   -0.163812    0.102727
      4          6           0       -4.763116   -0.055756    0.514066
      5          6           0       -5.555137   -1.258875    0.754129
      6          6           0       -1.453638   -1.512144   -0.397995
      7          6           0       -2.638065    1.011746   -0.147491
      8          6           0       -1.281943    0.901587   -0.570542
      9          6           0       -0.648898   -0.389868   -0.623412
     10          6           0       -0.653436    2.104983   -1.103966
     11          6           0       -2.535639    3.501202   -0.261503
     12          6           0       -3.265275    2.273258    0.019816
     13          6           0       -4.606045    2.354023    0.447439
     14          6           0       -5.345187    1.214899    0.691725
     15          1           0       -6.376696    1.278925    1.012709
     16          1           0       -5.045818    3.335256    0.571944
     17          1           0       -1.012667   -2.498649   -0.397559
     18          7           0       -1.260286    3.341247   -0.807235
     19          7           0       -4.913380   -2.490690    0.540891
     20          8           0       -3.114928   -3.786531    0.011557
     21          8           0       -6.734623   -1.225784    1.122996
     22          8           0       -3.002451    4.632526   -0.070608
     23          8           0        0.357272    2.107795   -1.815868
     24          6           0       -0.537284    4.544132   -1.236186
     25          1           0        0.520399    4.426574   -1.011436
     26          1           0       -0.649409    4.701054   -2.311786
     27          1           0       -0.950318    5.394611   -0.703316
     28          6           0       -5.676150   -3.725773    0.758261
     29          1           0       -5.623059   -4.352094   -0.131796
     30          1           0       -5.260194   -4.282509    1.599656
     31          1           0       -6.705025   -3.453771    0.967976
     32          6           0        0.800219   -0.637553   -0.677152
     33          6           0        1.407027   -1.858374   -0.922505
     34         16           0        1.975687    0.479151   -0.012959
     35          6           0        2.784410   -1.888530   -0.613785
     36          1           0        0.877331   -2.704976   -1.332749
     37          6           0        3.276498   -0.701976   -0.080188
     38          8           0        3.627904   -2.943197   -0.797139
     39          6           0        4.626394   -0.399415    0.320288
     40          6           0        3.085010   -4.151053   -1.338867
     41          6           0        5.117937    0.777843    0.874056
     42         16           0        5.947465   -1.558061    0.162907
     43          1           0        3.917274   -4.849127   -1.402745
     44          1           0        2.312609   -4.562194   -0.682845
     45          1           0        2.672152   -3.981869   -2.337279
     46          6           0        6.513236    0.752301    1.161473
     47          8           0        4.273504    1.821791    1.095410
     48          6           0        7.087213   -0.442279    0.830223
     49          1           0        7.063050    1.575839    1.593240
     50          6           0        4.820399    3.020793    1.654427
     51          1           0        8.119607   -0.736284    0.942351
     52          1           0        5.581861    3.447602    0.995923
     53          1           0        3.986629    3.714012    1.744211
     54          1           0        5.247314    2.832404    2.643279
 ---------------------------------------------------------------------

 The electronic state is 2-A.
 Alpha  occ. eigenvalues --  -88.88056 -88.87459 -19.16443 -19.16290 -19.10014
 Alpha  occ. eigenvalues --  -19.09966 -19.09596 -19.09491 -14.36768 -14.36382
 Alpha  occ. eigenvalues --  -10.28449 -10.28256 -10.28012 -10.27970 -10.24215
 Alpha  occ. eigenvalues --  -10.23891 -10.22534 -10.22476 -10.21401 -10.21355
 Alpha  occ. eigenvalues --  -10.21331 -10.20774 -10.20393 -10.20356 -10.20058
 Alpha  occ. eigenvalues --  -10.19764 -10.19644 -10.19202 -10.18951 -10.18885
 Alpha  occ. eigenvalues --  -10.18757 -10.18558 -10.18364 -10.18152 -10.18059
 Alpha  occ. eigenvalues --  -10.18040  -7.96618  -7.96019  -5.92926  -5.92541
 Alpha  occ. eigenvalues --   -5.92341  -5.92188  -5.91947  -5.91561  -1.07790
 Alpha  occ. eigenvalues --   -1.07590  -1.05931  -1.05642  -1.03888  -1.03536
 Alpha  occ. eigenvalues --   -0.93979  -0.93621  -0.89960  -0.89232  -0.87853
 Alpha  occ. eigenvalues --   -0.84139  -0.81809  -0.78912  -0.76386  -0.75943
 Alpha  occ. eigenvalues --   -0.75362  -0.74454  -0.73428  -0.72320  -0.70781
 Alpha  occ. eigenvalues --   -0.70021  -0.69568  -0.67588  -0.65083  -0.64057
 Alpha  occ. eigenvalues --   -0.63210  -0.62607  -0.59800  -0.58684  -0.56661
 Alpha  occ. eigenvalues --   -0.55811  -0.55414  -0.55018  -0.54077  -0.52890
 Alpha  occ. eigenvalues --   -0.51822  -0.49404  -0.48820  -0.48313  -0.47907
 Alpha  occ. eigenvalues --   -0.47831  -0.47642  -0.47445  -0.47337  -0.47004
 Alpha  occ. eigenvalues --   -0.46559  -0.45376  -0.45165  -0.44686  -0.44493
 Alpha  occ. eigenvalues --   -0.43670  -0.43139  -0.43022  -0.42467  -0.42007
 Alpha  occ. eigenvalues --   -0.41464  -0.41169  -0.40914  -0.40535  -0.40302
 Alpha  occ. eigenvalues --   -0.40024  -0.39868  -0.39620  -0.39215  -0.38784
 Alpha  occ. eigenvalues --   -0.38075  -0.37686  -0.37021  -0.36696  -0.35590
 Alpha  occ. eigenvalues --   -0.34967  -0.34752  -0.33632  -0.33325  -0.32886
 Alpha  occ. eigenvalues --   -0.32322  -0.29973  -0.29395  -0.29061  -0.28210
 Alpha  occ. eigenvalues --   -0.27945  -0.27253  -0.26963  -0.26397  -0.26188
 Alpha  occ. eigenvalues --   -0.24632  -0.24312  -0.23708  -0.19064  -0.15333
 Alpha virt. eigenvalues --   -0.06790  -0.05286  -0.03199  -0.02624  -0.00329
 Alpha virt. eigenvalues --    0.00337   0.00522   0.00589   0.00803   0.01491
 Alpha virt. eigenvalues --    0.01857   0.02314   0.02428   0.02507   0.02717

  Beta  occ. eigenvalues --  -88.88055 -88.87457 -19.16424 -19.16301 -19.09832
  Beta  occ. eigenvalues --  -19.09776 -19.09421 -19.09301 -14.36820 -14.36434
  Beta  occ. eigenvalues --  -10.28391 -10.28199 -10.27954 -10.27915 -10.24173
  Beta  occ. eigenvalues --  -10.23929 -10.22534 -10.22475 -10.21424 -10.21411
  Beta  occ. eigenvalues --  -10.21244 -10.20648 -10.20439 -10.20316 -10.20115
  Beta  occ. eigenvalues --  -10.19763 -10.19643 -10.19054 -10.18807 -10.18724
  Beta  occ. eigenvalues --  -10.18609 -10.18505 -10.18379 -10.18077 -10.17980
  Beta  occ. eigenvalues --  -10.17961  -7.96617  -7.96017  -5.92925  -5.92541
  Beta  occ. eigenvalues --   -5.92339  -5.92184  -5.91946  -5.91557  -1.07752
  Beta  occ. eigenvalues --   -1.07610  -1.05693  -1.05410  -1.03566  -1.03221
  Beta  occ. eigenvalues --   -0.93868  -0.93515  -0.89859  -0.89138  -0.87799
  Beta  occ. eigenvalues --   -0.83831  -0.81524  -0.78763  -0.76275  -0.75652
  Beta  occ. eigenvalues --   -0.75187  -0.74404  -0.73361  -0.72233  -0.70739
  Beta  occ. eigenvalues --   -0.69766  -0.69412  -0.67470  -0.64930  -0.63876
  Beta  occ. eigenvalues --   -0.63088  -0.62465  -0.59727  -0.58621  -0.56584
  Beta  occ. eigenvalues --   -0.55692  -0.55380  -0.54904  -0.54054  -0.52764
  Beta  occ. eigenvalues --   -0.51712  -0.49244  -0.48752  -0.48041  -0.47791
  Beta  occ. eigenvalues --   -0.47687  -0.47569  -0.47433  -0.47255  -0.46890
  Beta  occ. eigenvalues --   -0.46504  -0.45310  -0.45099  -0.44563  -0.44406
  Beta  occ. eigenvalues --   -0.43564  -0.42974  -0.42833  -0.42313  -0.41806
  Beta  occ. eigenvalues --   -0.41403  -0.41071  -0.40833  -0.40071  -0.39925
  Beta  occ. eigenvalues --   -0.39878  -0.39464  -0.39184  -0.38860  -0.38600
  Beta  occ. eigenvalues --   -0.37952  -0.37488  -0.36748  -0.36669  -0.35566
  Beta  occ. eigenvalues --   -0.34790  -0.34542  -0.33504  -0.33287  -0.32856
  Beta  occ. eigenvalues --   -0.31825  -0.29266  -0.28942  -0.28674  -0.27976
  Beta  occ. eigenvalues --   -0.27474  -0.26969  -0.26766  -0.26196  -0.25733
  Beta  occ. eigenvalues --   -0.24350  -0.23913  -0.22692  -0.18649
  Beta virt. eigenvalues --   -0.11124  -0.06159  -0.04356  -0.02506  -0.02242
  Beta virt. eigenvalues --   -0.00313   0.00389   0.00598   0.00676   0.00880
  Beta virt. eigenvalues --    0.01498   0.01870   0.02431   0.02517   0.02956

 Mulliken charges and spin densities:
               1          2
     1  C    0.366732   0.026702
     2  C   -0.104777   0.114008
     3  C    0.132480  -0.038211
     4  C    0.218091   0.099562
     5  C    0.227826   0.025521
     6  C    0.091131   0.038517
     7  C    0.087764  -0.028811
     8  C    0.338799   0.110234
     9  C    0.255602   0.084574
    10  C   -0.673821   0.021923
    11  C    0.345689   0.027059
    12  C    0.046835   0.096095
    13  C   -0.502789   0.056090
    14  C   -0.571710   0.061489
    15  H    0.143878  -0.004162
    16  H    0.144459  -0.003962
    17  H    0.144865  -0.001766
    18  N    0.026134  -0.021695
    19  N   -0.138155  -0.022157
    20  O   -0.429475   0.070731
    21  O   -0.414882   0.067510
    22  O   -0.432291   0.065297
    23  O   -0.363714   0.071876
    24  C   -0.200840   0.001551
    25  H    0.174764  -0.000595
    26  H    0.177524  -0.001186
    27  H    0.173993  -0.000428
    28  C   -0.205075   0.001261
    29  H    0.169641  -0.000837
    30  H    0.174949  -0.001011
    31  H    0.173397  -0.000322
    32  C    0.005873  -0.024184
    33  C   -0.509959   0.059218
    34  S   -0.720258   0.005895
    35  C   -0.448524  -0.029939
    36  H    0.151508  -0.002787
    37  C    0.677059   0.050523
    38  O   -0.164775  -0.001718
    39  C    0.853869  -0.018108
    40  C   -0.239647   0.000248
    41  C   -0.005439   0.027250
    42  S   -0.217059  -0.000966
    43  H    0.175511   0.000000
    44  H    0.161194  -0.000250
    45  H    0.160843  -0.000291
    46  C   -0.559053  -0.011969
    47  O   -0.159263   0.004356
    48  C   -0.325961   0.028661
    49  H    0.159574   0.000524
    50  C   -0.252017  -0.000308
    51  H    0.187419  -0.001718
    52  H    0.160092   0.000338
    53  H    0.173265  -0.000013
    54  H    0.158727   0.000381
 Sum of Mulliken charges =  -1.00000   1.00000

 Dipole moment (field-independent basis, Debye):
    X=             15.0519    Y=             -2.3932    Z=              1.4894  Tot=             15.3135
 Quadrupole moment (field-independent basis, Debye-Ang):
   XX=           -287.4937   YY=           -249.5299   ZZ=           -231.0294
   XY=             14.7268   XZ=             20.0711   YZ=             13.7365

 Normal termination of Gaussian 16 at Thu Oct 28 10:02:30 2021.
