 Gaussian 16, Revision C.01,
 Gaussian 16:  ES64L-G16RevC.01  3-Jul-2019

 ---------------------------------------------------------------
 # opt=modredundant b3lyp/6-311+g(d,p) scrf=(pcm, solvent=water)
 ---------------------------------------------------------------

 ---------
 NDI_5.pdb
 ---------
 Symbolic Z-matrix:
 Charge = -1 Multiplicity = 2

 SCF Done:  E(UB3LYP) =  -2359.47476787     A.U. after   21 cycles
 SCF Done:  E(UB3LYP) =  -2359.47499890     A.U. after   22 cycles
 SCF Done:  E(UB3LYP) =  -2359.49006496     A.U. after   16 cycles
 SCF Done:  E(UB3LYP) =  -2359.49425239     A.U. after   17 cycles
 SCF Done:  E(UB3LYP) =  -2359.49532323     A.U. after   17 cycles
 SCF Done:  E(UB3LYP) =  -2359.49615099     A.U. after   16 cycles
 SCF Done:  E(UB3LYP) =  -2359.49651630     A.U. after   21 cycles
 SCF Done:  E(UB3LYP) =  -2359.49691005     A.U. after   15 cycles
 SCF Done:  E(UB3LYP) =  -2359.49731843     A.U. after   16 cycles
 SCF Done:  E(UB3LYP) =  -2359.49748936     A.U. after   15 cycles
 SCF Done:  E(UB3LYP) =  -2359.49768901     A.U. after   10 cycles
 SCF Done:  E(UB3LYP) =  -2359.49768946     A.U. after   10 cycles
 SCF Done:  E(UB3LYP) =  -2359.49768958     A.U. after    9 cycles
 SCF Done:  E(UB3LYP) =  -2359.49768974     A.U. after    9 cycles
 SCF Done:  E(UB3LYP) =  -2359.49768982     A.U. after    8 cycles
 SCF Done:  E(UB3LYP) =  -2359.49768990     A.U. after    9 cycles
 SCF Done:  E(UB3LYP) =  -2359.49768993     A.U. after    9 cycles
 SCF Done:  E(UB3LYP) =  -2359.49768996     A.U. after    7 cycles
 SCF Done:  E(UB3LYP) =  -2359.49768998     A.U. after    7 cycles
 SCF Done:  E(UB3LYP) =  -2359.49768999     A.U. after    7 cycles
 Optimization completed.
    -- Stationary point found.

                         Standard orientation:
 ---------------------------------------------------------------------
 Center     Atomic      Atomic             Coordinates (Angstroms)
 Number     Number       Type             X           Y           Z
 ---------------------------------------------------------------------
      1          6           0       -2.492347   -3.013055    0.281397
      2          6           0       -2.225058   -1.580059    0.238299
      3          6           0       -3.269897   -0.667499   -0.033203
      4          6           0       -4.578717   -1.124131   -0.294671
      5          6           0       -4.873820   -2.555098   -0.281161
      6          6           0       -0.921764   -1.115210    0.393275
      7          6           0       -2.971085    0.733774   -0.016060
      8          6           0       -1.648550    1.196052    0.265511
      9          6           0       -0.562334    0.239373    0.359351
     10          6           0       -1.516866    2.610954    0.592036
     11          6           0       -3.819754    3.070283   -0.234455
     12          6           0       -4.040340    1.633222   -0.269936
     13          6           0       -5.334964    1.151751   -0.551391
     14          6           0       -5.607053   -0.199974   -0.562930
     15          1           0       -6.604220   -0.566753   -0.767894
     16          1           0       -6.115959    1.874452   -0.749663
     17          1           0       -0.160526   -1.876754    0.501069
     18          7           0       -2.556471    3.475593    0.193564
     19          7           0       -3.806257   -3.418800    0.016706
     20          8           0       -1.630818   -3.864892    0.529755
     21          8           0       -5.999452   -3.010807   -0.510709
     22          8           0       -4.688178    3.905261   -0.523883
     23          8           0       -0.573721    3.107361    1.221564
     24          6           0       -2.325499    4.911236    0.393142
     25          1           0       -2.445872    5.181507    1.445008
     26          1           0       -1.312243    5.158970    0.085132
     27          1           0       -3.051109    5.454454   -0.203940
     28          6           0       -4.060759   -4.863898    0.054571
     29          1           0       -3.447930   -5.370358   -0.692000
     30          1           0       -3.807300   -5.260006    1.038244
     31          1           0       -5.112602   -5.026139   -0.154605
     32          6           0        0.872449    0.526575    0.221619
     33          6           0        1.572974    1.707330    0.069549
     34         16           0        2.013949   -0.828907    0.193765
     35          6           0        2.968647    1.538019   -0.079413
     36          1           0        1.094991    2.669512    0.087713
     37          6           0        3.404557    0.220114   -0.028552
     38          8           0        3.878771    2.536604   -0.251275
     39          6           0        4.749110   -0.281283   -0.134845
     40          6           0        3.397600    3.883226   -0.315924
     41          6           0        5.184692   -1.601330   -0.076358
     42         16           0        6.141207    0.776376   -0.370309
     43          1           0        4.277784    4.506022   -0.462391
     44          1           0        2.711930    4.013584   -1.157534
     45          1           0        2.899367    4.166297    0.615172
     46          6           0        6.593598   -1.759091   -0.215968
     47          8           0        4.280212   -2.601668    0.100591
     48          6           0        7.233443   -0.563398   -0.381231
     49          1           0        7.107045   -2.709222   -0.195524
     50          6           0        4.768913   -3.945668    0.169939
     51          1           0        8.290812   -0.389382   -0.509948
     52          1           0        5.453737   -4.069833    1.013203
     53          1           0        3.892259   -4.572959    0.317267
     54          1           0        5.268861   -4.228596   -0.760379
 ---------------------------------------------------------------------

 The electronic state is 2-A.
 Alpha  occ. eigenvalues --  -88.88132 -88.87563 -19.16521 -19.16330 -19.10072
 Alpha  occ. eigenvalues --  -19.10027 -19.09531 -19.09526 -14.36812 -14.36373
 Alpha  occ. eigenvalues --  -10.28513 -10.28309 -10.28105 -10.27886 -10.24333
 Alpha  occ. eigenvalues --  -10.23945 -10.22569 -10.22450 -10.21545 -10.21507
 Alpha  occ. eigenvalues --  -10.21483 -10.21083 -10.20482 -10.20444 -10.20041
 Alpha  occ. eigenvalues --  -10.19789 -10.19652 -10.19440 -10.18985 -10.18894
 Alpha  occ. eigenvalues --  -10.18735 -10.18629 -10.18423 -10.18131 -10.18024
 Alpha  occ. eigenvalues --  -10.17506  -7.96694  -7.96148  -5.93002  -5.92617
 Alpha  occ. eigenvalues --   -5.92471  -5.92263  -5.92083  -5.91693  -1.07877
 Alpha  occ. eigenvalues --   -1.07639  -1.05996  -1.05679  -1.03957  -1.03531
 Alpha  occ. eigenvalues --   -0.94040  -0.93620  -0.89971  -0.89272  -0.87855
 Alpha  occ. eigenvalues --   -0.84151  -0.81818  -0.78898  -0.76686  -0.75850
 Alpha  occ. eigenvalues --   -0.75402  -0.74399  -0.73439  -0.72361  -0.70744
 Alpha  occ. eigenvalues --   -0.70421  -0.69379  -0.67532  -0.65200  -0.64021
 Alpha  occ. eigenvalues --   -0.63360  -0.62561  -0.59945  -0.58720  -0.56698
 Alpha  occ. eigenvalues --   -0.55779  -0.55445  -0.55068  -0.54086  -0.53227
 Alpha  occ. eigenvalues --   -0.51598  -0.49559  -0.49045  -0.48289  -0.47898
 Alpha  occ. eigenvalues --   -0.47861  -0.47781  -0.47467  -0.47197  -0.47137
 Alpha  occ. eigenvalues --   -0.46598  -0.45321  -0.45190  -0.44693  -0.44397
 Alpha  occ. eigenvalues --   -0.43939  -0.43118  -0.42957  -0.42404  -0.41746
 Alpha  occ. eigenvalues --   -0.41421  -0.41351  -0.41086  -0.40543  -0.40336
 Alpha  occ. eigenvalues --   -0.40281  -0.39904  -0.39519  -0.39182  -0.38770
 Alpha  occ. eigenvalues --   -0.38007  -0.37686  -0.37167  -0.36562  -0.35759
 Alpha  occ. eigenvalues --   -0.35200  -0.34836  -0.33695  -0.33444  -0.32538
 Alpha  occ. eigenvalues --   -0.32320  -0.30147  -0.29461  -0.29041  -0.28208
 Alpha  occ. eigenvalues --   -0.28007  -0.27185  -0.26985  -0.26363  -0.26183
 Alpha  occ. eigenvalues --   -0.24884  -0.24352  -0.23822  -0.19211  -0.15305
 Alpha virt. eigenvalues --   -0.07118  -0.05438  -0.03250  -0.02363  -0.00316
 Alpha virt. eigenvalues --    0.00420   0.00586   0.00733   0.00881   0.01504
 Alpha virt. eigenvalues --    0.01784   0.02179   0.02279   0.02646   0.02819

  Beta  occ. eigenvalues --  -88.88131 -88.87549 -19.16501 -19.16336 -19.09894
  Beta  occ. eigenvalues --  -19.09839 -19.09361 -19.09329 -14.36863 -14.36425
  Beta  occ. eigenvalues --  -10.28456 -10.28252 -10.28047 -10.27833 -10.24292
  Beta  occ. eigenvalues --  -10.23971 -10.22570 -10.22449 -10.21562 -10.21521
  Beta  occ. eigenvalues --  -10.21444 -10.20944 -10.20526 -10.20405 -10.20099
  Beta  occ. eigenvalues --  -10.19788 -10.19651 -10.19293 -10.18844 -10.18734
  Beta  occ. eigenvalues --  -10.18592 -10.18580 -10.18438 -10.18057 -10.17947
  Beta  occ. eigenvalues --  -10.17446  -7.96693  -7.96136  -5.93002  -5.92617
  Beta  occ. eigenvalues --   -5.92464  -5.92260  -5.92075  -5.91652  -1.07837
  Beta  occ. eigenvalues --   -1.07649  -1.05762  -1.05444  -1.03640  -1.03217
  Beta  occ. eigenvalues --   -0.93931  -0.93511  -0.89870  -0.89174  -0.87797
  Beta  occ. eigenvalues --   -0.83841  -0.81538  -0.78751  -0.76565  -0.75549
  Beta  occ. eigenvalues --   -0.75238  -0.74350  -0.73375  -0.72292  -0.70697
  Beta  occ. eigenvalues --   -0.70143  -0.69243  -0.67412  -0.65042  -0.63838
  Beta  occ. eigenvalues --   -0.63263  -0.62380  -0.59890  -0.58658  -0.56611
  Beta  occ. eigenvalues --   -0.55682  -0.55397  -0.54964  -0.54056  -0.53079
  Beta  occ. eigenvalues --   -0.51500  -0.49420  -0.48924  -0.48032  -0.47812
  Beta  occ. eigenvalues --   -0.47786  -0.47622  -0.47453  -0.47125  -0.47024
  Beta  occ. eigenvalues --   -0.46543  -0.45230  -0.45121  -0.44613  -0.44274
  Beta  occ. eigenvalues --   -0.43844  -0.42955  -0.42788  -0.42162  -0.41632
  Beta  occ. eigenvalues --   -0.41281  -0.41243  -0.40974  -0.40342  -0.39945
  Beta  occ. eigenvalues --   -0.39877  -0.39647  -0.39129  -0.38858  -0.38522
  Beta  occ. eigenvalues --   -0.37841  -0.37549  -0.36869  -0.36504  -0.35718
  Beta  occ. eigenvalues --   -0.35021  -0.34621  -0.33558  -0.33420  -0.32409
  Beta  occ. eigenvalues --   -0.31897  -0.29487  -0.28995  -0.28640  -0.27987
  Beta  occ. eigenvalues --   -0.27524  -0.26891  -0.26775  -0.26143  -0.25780
  Beta  occ. eigenvalues --   -0.24517  -0.24167  -0.22698  -0.18693
  Beta virt. eigenvalues --   -0.11145  -0.06523  -0.04488  -0.02347  -0.02172
  Beta virt. eigenvalues --   -0.00303   0.00430   0.00593   0.00779   0.01148
  Beta virt. eigenvalues --    0.01520   0.01795   0.02280   0.02646   0.02880

 Mulliken charges and spin densities:
               1          2
     1  C    0.317032   0.023271
     2  C   -0.012666   0.118764
     3  C    0.122924  -0.038881
     4  C    0.195817   0.094596
     5  C    0.278625   0.025425
     6  C   -0.011733   0.032611
     7  C    0.107708  -0.020742
     8  C    0.386708   0.109809
     9  C    0.156216   0.077411
    10  C   -0.704456   0.016964
    11  C    0.296317   0.028250
    12  C    0.127683   0.088152
    13  C   -0.503883   0.058396
    14  C   -0.611037   0.062905
    15  H    0.143999  -0.004028
    16  H    0.145474  -0.003913
    17  H    0.147328  -0.001434
    18  N   -0.012151  -0.021507
    19  N   -0.129489  -0.021413
    20  O   -0.429099   0.069720
    21  O   -0.414026   0.065940
    22  O   -0.435097   0.063627
    23  O   -0.393405   0.072109
    24  C   -0.176264   0.001810
    25  H    0.176928  -0.001175
    26  H    0.172254  -0.000603
    27  H    0.173366  -0.000441
    28  C   -0.206616   0.001034
    29  H    0.173733  -0.000928
    30  H    0.171739  -0.000886
    31  H    0.173905  -0.000309
    32  C   -0.152767  -0.047622
    33  C    0.004938   0.071095
    34  S   -0.699675   0.013258
    35  C   -0.467610  -0.012508
    36  H    0.178308  -0.002494
    37  C    0.543624   0.055300
    38  O   -0.166982  -0.000542
    39  C    0.815179  -0.016743
    40  C   -0.241504   0.000260
    41  C   -0.005308   0.026418
    42  S   -0.208060  -0.000515
    43  H    0.175798   0.000000
    44  H    0.159516  -0.000195
    45  H    0.161732  -0.000254
    46  C   -0.587049  -0.011025
    47  O   -0.162630   0.004281
    48  C   -0.363358   0.027384
    49  H    0.160112   0.000501
    50  C   -0.253190  -0.000254
    51  H    0.188306  -0.001645
    52  H    0.159438   0.000369
    53  H    0.173882  -0.000017
    54  H    0.159466   0.000409
 Sum of Mulliken charges =  -1.00000   1.00000

 Dipole moment (field-independent basis, Debye):
    X=             15.8964    Y=             -0.7402    Z=             -1.2184  Tot=             15.9602
 Quadrupole moment (field-independent basis, Debye-Ang):
   XX=           -290.6414   YY=           -243.2749   ZZ=           -233.9888
   XY=             -9.0260   XZ=            -10.5454   YZ=             -2.3161

 Normal termination of Gaussian 16 at Thu Oct 28 08:57:48 2021.
