 Gaussian 16, Revision C.01,
 Gaussian 16:  ES64L-G16RevC.01  3-Jul-2019

 ---------------------------------------------------------------
 # opt=modredundant b3lyp/6-311+g(d,p) scrf=(pcm, solvent=water)
 ---------------------------------------------------------------

 ------------
 NDI_-125.pdb
 ------------
 Symbolic Z-matrix:
 Charge = -1 Multiplicity = 2

 SCF Done:  E(UB3LYP) =  -2359.49109331     A.U. after   22 cycles
 SCF Done:  E(UB3LYP) =  -2359.49797677     A.U. after   22 cycles
 SCF Done:  E(UB3LYP) =  -2359.50195465     A.U. after   20 cycles
 SCF Done:  E(UB3LYP) =  -2359.50279648     A.U. after   19 cycles
 SCF Done:  E(UB3LYP) =  -2359.50338907     A.U. after   19 cycles
 SCF Done:  E(UB3LYP) =  -2359.50375639     A.U. after   17 cycles
 SCF Done:  E(UB3LYP) =  -2359.50385756     A.U. after   18 cycles
 SCF Done:  E(UB3LYP) =  -2359.50388745     A.U. after   15 cycles
 SCF Done:  E(UB3LYP) =  -2359.50389780     A.U. after   14 cycles
 SCF Done:  E(UB3LYP) =  -2359.50391036     A.U. after   15 cycles
 SCF Done:  E(UB3LYP) =  -2359.50392038     A.U. after    8 cycles
 SCF Done:  E(UB3LYP) =  -2359.50392067     A.U. after   12 cycles
 SCF Done:  E(UB3LYP) =  -2359.50392101     A.U. after   10 cycles
 SCF Done:  E(UB3LYP) =  -2359.50392125     A.U. after   13 cycles
 SCF Done:  E(UB3LYP) =  -2359.50392158     A.U. after    9 cycles
 SCF Done:  E(UB3LYP) =  -2359.50392213     A.U. after   12 cycles
 SCF Done:  E(UB3LYP) =  -2359.50392222     A.U. after    8 cycles
 SCF Done:  E(UB3LYP) =  -2359.50392223     A.U. after    9 cycles
 SCF Done:  E(UB3LYP) =  -2359.50392225     A.U. after    7 cycles
 SCF Done:  E(UB3LYP) =  -2359.50392226     A.U. after    7 cycles
 Optimization completed.
    -- Stationary point found.

                         Standard orientation:
 ---------------------------------------------------------------------
 Center     Atomic      Atomic             Coordinates (Angstroms)
 Number     Number       Type             X           Y           Z
 ---------------------------------------------------------------------
      1          6           0       -3.455003   -2.713761    0.424457
      2          6           0       -2.744705   -1.478241    0.122288
      3          6           0       -3.433403   -0.243466    0.129106
      4          6           0       -4.812779   -0.183143    0.435755
      5          6           0       -5.548510   -1.403019    0.750712
      6          6           0       -1.366517   -1.505874   -0.133057
      7          6           0       -2.715133    0.955626   -0.190505
      8          6           0       -1.328948    0.895455   -0.509415
      9          6           0       -0.641397   -0.354595   -0.425862
     10          6           0       -0.683733    2.104967   -1.017102
     11          6           0       -2.742392    3.426293   -0.529779
     12          6           0       -3.423289    2.183856   -0.192365
     13          6           0       -4.795876    2.215509    0.125644
     14          6           0       -5.479955    1.057289    0.434219
     15          1           0       -6.535055    1.083539    0.673460
     16          1           0       -5.303322    3.171529    0.118658
     17          1           0       -0.848879   -2.453384   -0.060251
     18          7           0       -1.401181    3.311471   -0.907525
     19          7           0       -4.820666   -2.604549    0.718347
     20          8           0       -2.919417   -3.829416    0.433128
     21          8           0       -6.752962   -1.410082    1.032297
     22          8           0       -3.297739    4.532707   -0.510491
     23          8           0        0.432342    2.134194   -1.543891
     24          6           0       -0.695141    4.527315   -1.328440
     25          1           0        0.312703    4.518081   -0.918637
     26          1           0       -0.627236    4.577070   -2.417697
     27          1           0       -1.250209    5.384211   -0.960962
     28          6           0       -5.522866   -3.858146    1.017820
     29          1           0       -5.426680   -4.546573    0.177977
     30          1           0       -5.090110   -4.327564    1.902220
     31          1           0       -6.567499   -3.624865    1.193887
     32          6           0        0.821046   -0.515768   -0.555772
     33          6           0        1.493469   -1.331640   -1.427880
     34         16           0        1.918888    0.215747    0.588261
     35          6           0        2.899681   -1.345459   -1.208821
     36          1           0        0.994504   -1.883493   -2.211433
     37          6           0        3.322255   -0.558285   -0.147884
     38          8           0        3.816257   -2.044590   -1.936097
     39          6           0        4.666969   -0.359942    0.338066
     40          6           0        3.341622   -2.847422   -3.021448
     41          6           0        5.089771    0.421210    1.405546
     42         16           0        6.068621   -1.130963   -0.403253
     43          1           0        4.224512   -3.311508   -3.456485
     44          1           0        2.658643   -3.623732   -2.665545
     45          1           0        2.843155   -2.232024   -3.775485
     46          6           0        6.498625    0.404524    1.623231
     47          8           0        4.173508    1.114490    2.138295
     48          6           0        7.151216   -0.389164    0.723574
     49          1           0        7.001952    0.952344    2.406552
     50          6           0        4.652049    1.928784    3.213149
     51          1           0        8.210411   -0.584539    0.655138
     52          1           0        5.329337    2.704783    2.845690
     53          1           0        3.770233    2.392972    3.650170
     54          1           0        5.158069    1.322339    3.969502
 ---------------------------------------------------------------------

 The electronic state is 2-A.
 Alpha  occ. eigenvalues --  -88.87953 -88.87426 -19.16274 -19.16251 -19.09915
 Alpha  occ. eigenvalues --  -19.09894 -19.09702 -19.09624 -14.36728 -14.36481
 Alpha  occ. eigenvalues --  -10.28362 -10.28180 -10.28160 -10.28095 -10.23973
 Alpha  occ. eigenvalues --  -10.23863 -10.22474 -10.22448 -10.21274 -10.21111
 Alpha  occ. eigenvalues --  -10.21046 -10.20462 -10.20455 -10.20243 -10.20174
 Alpha  occ. eigenvalues --  -10.19738 -10.19647 -10.19495 -10.18948 -10.18913
 Alpha  occ. eigenvalues --  -10.18880 -10.18490 -10.18269 -10.18227 -10.18166
 Alpha  occ. eigenvalues --  -10.17827  -7.96516  -7.95996  -5.92824  -5.92439
 Alpha  occ. eigenvalues --   -5.92320  -5.92086  -5.91935  -5.91534  -1.07606
 Alpha  occ. eigenvalues --   -1.07513  -1.05844  -1.05749  -1.03787  -1.03665
 Alpha  occ. eigenvalues --   -0.93930  -0.93688  -0.89930  -0.89182  -0.87764
 Alpha  occ. eigenvalues --   -0.84175  -0.81880  -0.78785  -0.76328  -0.75917
 Alpha  occ. eigenvalues --   -0.75318  -0.74329  -0.73444  -0.72220  -0.70780
 Alpha  occ. eigenvalues --   -0.70094  -0.69429  -0.67527  -0.65108  -0.64076
 Alpha  occ. eigenvalues --   -0.63160  -0.62634  -0.59769  -0.58562  -0.56667
 Alpha  occ. eigenvalues --   -0.55717  -0.55305  -0.54990  -0.53928  -0.52964
 Alpha  occ. eigenvalues --   -0.51668  -0.49463  -0.48963  -0.48272  -0.47912
 Alpha  occ. eigenvalues --   -0.47776  -0.47685  -0.47373  -0.47289  -0.46980
 Alpha  occ. eigenvalues --   -0.46568  -0.45138  -0.45079  -0.44693  -0.44549
 Alpha  occ. eigenvalues --   -0.43879  -0.43233  -0.42989  -0.42501  -0.42101
 Alpha  occ. eigenvalues --   -0.41312  -0.40947  -0.40813  -0.40462  -0.40360
 Alpha  occ. eigenvalues --   -0.40188  -0.39888  -0.39617  -0.39170  -0.38485
 Alpha  occ. eigenvalues --   -0.38016  -0.37501  -0.37244  -0.36892  -0.35573
 Alpha  occ. eigenvalues --   -0.34865  -0.34190  -0.33514  -0.33156  -0.33050
 Alpha  occ. eigenvalues --   -0.32494  -0.30043  -0.29271  -0.28782  -0.28127
 Alpha  occ. eigenvalues --   -0.27897  -0.27376  -0.26853  -0.26461  -0.26231
 Alpha  occ. eigenvalues --   -0.24569  -0.24263  -0.24015  -0.18889  -0.15550
 Alpha virt. eigenvalues --   -0.05970  -0.05051  -0.03433  -0.02788  -0.00302
 Alpha virt. eigenvalues --   -0.00075   0.00351   0.00743   0.00860   0.01331
 Alpha virt. eigenvalues --    0.01550   0.02327   0.02409   0.02453   0.02574

  Beta  occ. eigenvalues --  -88.87953 -88.87420 -19.16269 -19.16253 -19.09721
  Beta  occ. eigenvalues --  -19.09693 -19.09517 -19.09416 -14.36783 -14.36535
  Beta  occ. eigenvalues --  -10.28300 -10.28120 -10.28105 -10.28038 -10.23964
  Beta  occ. eigenvalues --  -10.23870 -10.22474 -10.22448 -10.21279 -10.21131
  Beta  occ. eigenvalues --  -10.21026 -10.20517 -10.20352 -10.20297 -10.20165
  Beta  occ. eigenvalues --  -10.19737 -10.19646 -10.19322 -10.18794 -10.18744
  Beta  occ. eigenvalues --  -10.18720 -10.18422 -10.18272 -10.18143 -10.18082
  Beta  occ. eigenvalues --  -10.17805  -7.96515  -7.95990  -5.92823  -5.92439
  Beta  occ. eigenvalues --   -5.92310  -5.92085  -5.91928  -5.91525  -1.07599
  Beta  occ. eigenvalues --   -1.07513  -1.05592  -1.05500  -1.03445  -1.03328
  Beta  occ. eigenvalues --   -0.93809  -0.93575  -0.89821  -0.89113  -0.87726
  Beta  occ. eigenvalues --   -0.83856  -0.81574  -0.78651  -0.76227  -0.75567
  Beta  occ. eigenvalues --   -0.75166  -0.74299  -0.73373  -0.72166  -0.70738
  Beta  occ. eigenvalues --   -0.69780  -0.69303  -0.67426  -0.64955  -0.63877
  Beta  occ. eigenvalues --   -0.63058  -0.62462  -0.59721  -0.58505  -0.56587
  Beta  occ. eigenvalues --   -0.55580  -0.55296  -0.54874  -0.53919  -0.52826
  Beta  occ. eigenvalues --   -0.51546  -0.49288  -0.48906  -0.47994  -0.47720
  Beta  occ. eigenvalues --   -0.47696  -0.47620  -0.47366  -0.47211  -0.46862
  Beta  occ. eigenvalues --   -0.46525  -0.45074  -0.44994  -0.44595  -0.44459
  Beta  occ. eigenvalues --   -0.43770  -0.43065  -0.42792  -0.42367  -0.41844
  Beta  occ. eigenvalues --   -0.41266  -0.40917  -0.40745  -0.40156  -0.39936
  Beta  occ. eigenvalues --   -0.39856  -0.39426  -0.39120  -0.38785  -0.38364
  Beta  occ. eigenvalues --   -0.37929  -0.37288  -0.37040  -0.36776  -0.35563
  Beta  occ. eigenvalues --   -0.34775  -0.33921  -0.33403  -0.33120  -0.33022
  Beta  occ. eigenvalues --   -0.31914  -0.29147  -0.28959  -0.28564  -0.27755
  Beta  occ. eigenvalues --   -0.27494  -0.27065  -0.26644  -0.26059  -0.25838
  Beta  occ. eigenvalues --   -0.24482  -0.23989  -0.22747  -0.18755
  Beta virt. eigenvalues --   -0.11054  -0.05218  -0.04434  -0.02671  -0.02257
  Beta virt. eigenvalues --   -0.00285  -0.00003   0.00361   0.00754   0.00884
  Beta virt. eigenvalues --    0.01340   0.01567   0.02372   0.02574   0.02885

 Mulliken charges and spin densities:
               1          2
     1  C    0.411128   0.026365
     2  C   -0.102491   0.122372
     3  C    0.147703  -0.038398
     4  C    0.171277   0.106779
     5  C    0.275766   0.025237
     6  C   -0.405348   0.055513
     7  C    0.192820  -0.033942
     8  C    0.006507   0.128259
     9  C    0.284214   0.065223
    10  C   -0.390378   0.024869
    11  C    0.301853   0.025533
    12  C    0.076606   0.108848
    13  C   -0.476408   0.061276
    14  C   -0.612463   0.065007
    15  H    0.144237  -0.004567
    16  H    0.144672  -0.004260
    17  H    0.141249  -0.003273
    18  N   -0.064688  -0.022359
    19  N   -0.135100  -0.023381
    20  O   -0.430263   0.074901
    21  O   -0.419931   0.072096
    22  O   -0.427600   0.069113
    23  O   -0.339607   0.077340
    24  C   -0.192805   0.001352
    25  H    0.173274  -0.000626
    26  H    0.177871  -0.001202
    27  H    0.174583  -0.000405
    28  C   -0.208204   0.001297
    29  H    0.170981  -0.000953
    30  H    0.173212  -0.001027
    31  H    0.174706  -0.000342
    32  C    0.244599  -0.016291
    33  C   -0.480895   0.017361
    34  S   -0.471360   0.011689
    35  C   -0.135325   0.000523
    36  H    0.148171  -0.000625
    37  C    0.400914   0.005856
    38  O   -0.166508  -0.000303
    39  C    0.795539  -0.005516
    40  C   -0.234340  -0.000208
    41  C    0.018089   0.006669
    42  S   -0.247809  -0.000095
    43  H    0.173954   0.000000
    44  H    0.162282  -0.000050
    45  H    0.162439  -0.000037
    46  C   -0.573651  -0.002206
    47  O   -0.171708   0.000525
    48  C   -0.344995   0.006167
    49  H    0.158772   0.000112
    50  C   -0.249536  -0.000017
    51  H    0.185804  -0.000362
    52  H    0.158430   0.000060
    53  H    0.172126  -0.000005
    54  H    0.157632   0.000105
 Sum of Mulliken charges =  -1.00000   1.00000

 Dipole moment (field-independent basis, Debye):
    X=             14.3288    Y=             -1.5975    Z=              0.8198  Tot=             14.4408
 Quadrupole moment (field-independent basis, Debye-Ang):
   XX=           -295.4935   YY=           -263.3449   ZZ=           -213.0252
   XY=              9.6587   XZ=             19.4835   YZ=             22.4888

 Normal termination of Gaussian 16 at Thu Oct 28 11:40:45 2021.
