 Gaussian 16, Revision C.01,
 Gaussian 16:  ES64L-G16RevC.01  3-Jul-2019

 ---------------------------------------------------------------
 # opt=modredundant b3lyp/6-311+g(d,p) scrf=(pcm, solvent=water)
 ---------------------------------------------------------------

 ------------
 NDI_-165.pdb
 ------------
 Symbolic Z-matrix:
 Charge = -1 Multiplicity = 2

 SCF Done:  E(UB3LYP) =  -2359.45760086     A.U. after   22 cycles
 SCF Done:  E(UB3LYP) =  -2359.48392277     A.U. after   22 cycles
 SCF Done:  E(UB3LYP) =  -2359.49385725     A.U. after   20 cycles
 SCF Done:  E(UB3LYP) =  -2359.49637047     A.U. after   18 cycles
 SCF Done:  E(UB3LYP) =  -2359.49714898     A.U. after   19 cycles
 SCF Done:  E(UB3LYP) =  -2359.49746117     A.U. after   20 cycles
 SCF Done:  E(UB3LYP) =  -2359.49784923     A.U. after   16 cycles
 SCF Done:  E(UB3LYP) =  -2359.49826413     A.U. after   16 cycles
 SCF Done:  E(UB3LYP) =  -2359.49933300     A.U. after   18 cycles
 SCF Done:  E(UB3LYP) =  -2359.49662389     A.U. after   21 cycles
 SCF Done:  E(UB3LYP) =  -2359.50073667     A.U. after   13 cycles
 SCF Done:  E(UB3LYP) =  -2359.50074945     A.U. after   15 cycles
 SCF Done:  E(UB3LYP) =  -2359.50075107     A.U. after   13 cycles
 SCF Done:  E(UB3LYP) =  -2359.50075240     A.U. after   13 cycles
 SCF Done:  E(UB3LYP) =  -2359.50075328     A.U. after   13 cycles
 SCF Done:  E(UB3LYP) =  -2359.50075410     A.U. after   12 cycles
 SCF Done:  E(UB3LYP) =  -2359.50075439     A.U. after   10 cycles
 SCF Done:  E(UB3LYP) =  -2359.50075468     A.U. after    9 cycles
 SCF Done:  E(UB3LYP) =  -2359.50075492     A.U. after   10 cycles
 SCF Done:  E(UB3LYP) =  -2359.50075496     A.U. after    8 cycles
 Optimization completed.
    -- Stationary point found.

                         Standard orientation:
 ---------------------------------------------------------------------
 Center     Atomic      Atomic             Coordinates (Angstroms)
 Number     Number       Type             X           Y           Z
 ---------------------------------------------------------------------
      1          6           0       -3.555667   -2.659435    0.201542
      2          6           0       -2.797344   -1.439523   -0.048363
      3          6           0       -3.413839   -0.176009    0.109408
      4          6           0       -4.761516   -0.070491    0.516852
      5          6           0       -5.544547   -1.274768    0.778890
      6          6           0       -1.438802   -1.518072   -0.364759
      7          6           0       -2.644733    1.001867   -0.161650
      8          6           0       -1.287584    0.894751   -0.580944
      9          6           0       -0.647395   -0.391945   -0.610874
     10          6           0       -0.663153    2.092797   -1.132860
     11          6           0       -2.559757    3.489110   -0.321574
     12          6           0       -3.281531    2.261282   -0.019106
     13          6           0       -4.623654    2.339382    0.404487
     14          6           0       -5.353677    1.198787    0.669164
     15          1           0       -6.386223    1.260603    0.987255
     16          1           0       -5.071803    3.319073    0.509709
     17          1           0       -0.984372   -2.498694   -0.347299
     18          7           0       -1.280650    3.329303   -0.859329
     19          7           0       -4.893335   -2.505334    0.588757
     20          8           0       -3.083505   -3.797268    0.088900
     21          8           0       -6.724570   -1.243908    1.146552
     22          8           0       -3.035913    4.620066   -0.153632
     23          8           0        0.350620    2.090211   -1.839751
     24          6           0       -0.564780    4.530393   -1.304923
     25          1           0        0.493274    4.422606   -1.077133
     26          1           0       -0.676496    4.671134   -2.382824
     27          1           0       -0.983699    5.386036   -0.785060
     28          6           0       -5.647576   -3.741832    0.826765
     29          1           0       -5.582055   -4.386332   -0.049314
     30          1           0       -5.233939   -4.277214    1.683101
     31          1           0       -6.680292   -3.474062    1.022659
     32          6           0        0.803331   -0.624492   -0.671273
     33          6           0        1.424282   -1.818546   -0.990083
     34         16           0        1.959294    0.467813    0.061775
     35          6           0        2.804394   -1.845105   -0.686114
     36          1           0        0.902301   -2.644600   -1.449895
     37          6           0        3.279987   -0.684706   -0.085197
     38          8           0        3.663179   -2.873981   -0.933390
     39          6           0        4.625914   -0.385969    0.332637
     40          6           0        3.134596   -4.059628   -1.535170
     41          6           0        5.101822    0.767751    0.945758
     42         16           0        5.961338   -1.518778    0.120026
     43          1           0        3.976549   -4.740861   -1.640411
     44          1           0        2.372364   -4.516098   -0.897519
     45          1           0        2.713157   -3.844246   -2.520983
     46          6           0        6.497070    0.745263    1.234225
     47          8           0        4.243883    1.788727    1.217915
     48          6           0        7.086381   -0.423953    0.844759
     49          1           0        7.036031    1.552969    1.707606
     50          6           0        4.776053    2.966669    1.832884
     51          1           0        8.122326   -0.710208    0.943274
     52          1           0        5.532140    3.433294    1.195528
     53          1           0        3.933894    3.644678    1.954874
     54          1           0        5.205424    2.737298    2.811983
 ---------------------------------------------------------------------

 The electronic state is 2-A.
 Alpha  occ. eigenvalues --  -88.88050 -88.87470 -19.16430 -19.16296 -19.10000
 Alpha  occ. eigenvalues --  -19.09953 -19.09615 -19.09508 -14.36761 -14.36390
 Alpha  occ. eigenvalues --  -10.28436 -10.28243 -10.28040 -10.27992 -10.24192
 Alpha  occ. eigenvalues --  -10.23909 -10.22531 -10.22477 -10.21396 -10.21330
 Alpha  occ. eigenvalues --  -10.21315 -10.20708 -10.20398 -10.20339 -10.20086
 Alpha  occ. eigenvalues --  -10.19760 -10.19648 -10.19220 -10.18953 -10.18891
 Alpha  occ. eigenvalues --  -10.18773 -10.18554 -10.18357 -10.18165 -10.18076
 Alpha  occ. eigenvalues --  -10.18024  -7.96612  -7.96035  -5.92920  -5.92536
 Alpha  occ. eigenvalues --   -5.92357  -5.92182  -5.91966  -5.91575  -1.07776
 Alpha  occ. eigenvalues --   -1.07595  -1.05917  -1.05652  -1.03872  -1.03552
 Alpha  occ. eigenvalues --   -0.93970  -0.93627  -0.89970  -0.89232  -0.87856
 Alpha  occ. eigenvalues --   -0.84147  -0.81819  -0.78910  -0.76385  -0.75944
 Alpha  occ. eigenvalues --   -0.75359  -0.74448  -0.73428  -0.72321  -0.70782
 Alpha  occ. eigenvalues --   -0.70025  -0.69561  -0.67587  -0.65084  -0.64057
 Alpha  occ. eigenvalues --   -0.63204  -0.62610  -0.59806  -0.58673  -0.56663
 Alpha  occ. eigenvalues --   -0.55796  -0.55410  -0.55018  -0.54065  -0.52896
 Alpha  occ. eigenvalues --   -0.51805  -0.49409  -0.48847  -0.48306  -0.47904
 Alpha  occ. eigenvalues --   -0.47828  -0.47657  -0.47444  -0.47337  -0.47003
 Alpha  occ. eigenvalues --   -0.46560  -0.45342  -0.45162  -0.44681  -0.44509
 Alpha  occ. eigenvalues --   -0.43693  -0.43143  -0.43030  -0.42476  -0.42020
 Alpha  occ. eigenvalues --   -0.41447  -0.41146  -0.40905  -0.40534  -0.40307
 Alpha  occ. eigenvalues --   -0.40050  -0.39868  -0.39605  -0.39210  -0.38750
 Alpha  occ. eigenvalues --   -0.38083  -0.37666  -0.37038  -0.36743  -0.35608
 Alpha  occ. eigenvalues --   -0.34949  -0.34731  -0.33616  -0.33311  -0.32943
 Alpha  occ. eigenvalues --   -0.32337  -0.29981  -0.29383  -0.29036  -0.28203
 Alpha  occ. eigenvalues --   -0.27945  -0.27269  -0.26950  -0.26385  -0.26209
 Alpha  occ. eigenvalues --   -0.24630  -0.24317  -0.23744  -0.19052  -0.15359
 Alpha virt. eigenvalues --   -0.06681  -0.05290  -0.03221  -0.02627  -0.00325
 Alpha virt. eigenvalues --    0.00295   0.00462   0.00602   0.00800   0.01473
 Alpha virt. eigenvalues --    0.01848   0.02309   0.02376   0.02515   0.02671

  Beta  occ. eigenvalues --  -88.88049 -88.87468 -19.16413 -19.16306 -19.09816
  Beta  occ. eigenvalues --  -19.09761 -19.09440 -19.09318 -14.36813 -14.36442
  Beta  occ. eigenvalues --  -10.28377 -10.28185 -10.27982 -10.27937 -10.24154
  Beta  occ. eigenvalues --  -10.23943 -10.22531 -10.22477 -10.21415 -10.21367
  Beta  occ. eigenvalues --  -10.21253 -10.20586 -10.20446 -10.20302 -10.20142
  Beta  occ. eigenvalues --  -10.19759 -10.19647 -10.19068 -10.18808 -10.18728
  Beta  occ. eigenvalues --  -10.18624 -10.18498 -10.18371 -10.18088 -10.17996
  Beta  occ. eigenvalues --  -10.17953  -7.96611  -7.96032  -5.92920  -5.92536
  Beta  occ. eigenvalues --   -5.92354  -5.92179  -5.91963  -5.91570  -1.07742
  Beta  occ. eigenvalues --   -1.07612  -1.05677  -1.05418  -1.03547  -1.03236
  Beta  occ. eigenvalues --   -0.93857  -0.93521  -0.89869  -0.89140  -0.87804
  Beta  occ. eigenvalues --   -0.83838  -0.81531  -0.78763  -0.76276  -0.75646
  Beta  occ. eigenvalues --   -0.75187  -0.74399  -0.73361  -0.72238  -0.70740
  Beta  occ. eigenvalues --   -0.69765  -0.69406  -0.67471  -0.64932  -0.63873
  Beta  occ. eigenvalues --   -0.63085  -0.62464  -0.59735  -0.58610  -0.56587
  Beta  occ. eigenvalues --   -0.55674  -0.55379  -0.54903  -0.54044  -0.52769
  Beta  occ. eigenvalues --   -0.51695  -0.49246  -0.48782  -0.48033  -0.47790
  Beta  occ. eigenvalues --   -0.47686  -0.47581  -0.47432  -0.47255  -0.46887
  Beta  occ. eigenvalues --   -0.46506  -0.45277  -0.45096  -0.44555  -0.44425
  Beta  occ. eigenvalues --   -0.43588  -0.42980  -0.42835  -0.42330  -0.41809
  Beta  occ. eigenvalues --   -0.41389  -0.41056  -0.40827  -0.40100  -0.39924
  Beta  occ. eigenvalues --   -0.39881  -0.39447  -0.39167  -0.38842  -0.38577
  Beta  occ. eigenvalues --   -0.37958  -0.37470  -0.36766  -0.36711  -0.35587
  Beta  occ. eigenvalues --   -0.34797  -0.34497  -0.33495  -0.33269  -0.32921
  Beta  occ. eigenvalues --   -0.31827  -0.29256  -0.28941  -0.28668  -0.27958
  Beta  occ. eigenvalues --   -0.27471  -0.26987  -0.26751  -0.26184  -0.25740
  Beta  occ. eigenvalues --   -0.24373  -0.23932  -0.22697  -0.18665
  Beta virt. eigenvalues --   -0.11124  -0.06061  -0.04369  -0.02507  -0.02250
  Beta virt. eigenvalues --   -0.00309   0.00375   0.00581   0.00617   0.00862
  Beta virt. eigenvalues --    0.01482   0.01865   0.02388   0.02526   0.02940

 Mulliken charges and spin densities:
               1          2
     1  C    0.373116   0.027038
     2  C   -0.095285   0.114304
     3  C    0.123471  -0.038558
     4  C    0.223417   0.100415
     5  C    0.234098   0.025589
     6  C    0.034224   0.040549
     7  C    0.103638  -0.029814
     8  C    0.304026   0.113306
     9  C    0.244039   0.082763
    10  C   -0.640563   0.022572
    11  C    0.352699   0.027072
    12  C    0.040947   0.097628
    13  C   -0.506598   0.056763
    14  C   -0.571726   0.061615
    15  H    0.144061  -0.004214
    16  H    0.144448  -0.004000
    17  H    0.145170  -0.001974
    18  N    0.020759  -0.021703
    19  N   -0.137434  -0.022349
    20  O   -0.430473   0.071438
    21  O   -0.415900   0.068104
    22  O   -0.431859   0.065575
    23  O   -0.366010   0.072063
    24  C   -0.202680   0.001527
    25  H    0.174752  -0.000578
    26  H    0.177774  -0.001187
    27  H    0.174141  -0.000431
    28  C   -0.205303   0.001276
    29  H    0.169527  -0.000841
    30  H    0.175173  -0.001026
    31  H    0.173602  -0.000325
    32  C    0.025320  -0.020787
    33  C   -0.603891   0.052294
    34  S   -0.712554   0.006783
    35  C   -0.321985  -0.026386
    36  H    0.153438  -0.002458
    37  C    0.697160   0.043918
    38  O   -0.166004  -0.001562
    39  C    0.854527  -0.015960
    40  C   -0.238422   0.000229
    41  C   -0.018136   0.024621
    42  S   -0.216562  -0.000840
    43  H    0.175363   0.000000
    44  H    0.162016  -0.000227
    45  H    0.160420  -0.000260
    46  C   -0.580115  -0.010730
    47  O   -0.161184   0.003836
    48  C   -0.325224   0.025663
    49  H    0.159542   0.000470
    50  C   -0.252017  -0.000296
    51  H    0.187382  -0.001540
    52  H    0.159757   0.000295
    53  H    0.173209  -0.000011
    54  H    0.158708   0.000351
 Sum of Mulliken charges =  -1.00000   1.00000

 Dipole moment (field-independent basis, Debye):
    X=             14.9784    Y=             -2.2842    Z=              1.4565  Tot=             15.2214
 Quadrupole moment (field-independent basis, Debye-Ang):
   XX=           -288.1544   YY=           -250.4148   ZZ=           -229.7526
   XY=             14.1888   XZ=             20.3710   YZ=             15.7608

 Normal termination of Gaussian 16 at Thu Oct 28 11:42:20 2021.
