 Gaussian 16, Revision C.01,
 Gaussian 16:  ES64L-G16RevC.01  3-Jul-2019

 ---------------------------------------------------------------
 # opt=modredundant b3lyp/6-311+g(d,p) scrf=(pcm, solvent=water)
 ---------------------------------------------------------------

 ----------
 NDI_80.pdb
 ----------
 Symbolic Z-matrix:
 Charge = -1 Multiplicity = 2

 SCF Done:  E(UB3LYP) =  -2359.49446765     A.U. after   22 cycles
 SCF Done:  E(UB3LYP) =  -2359.50133845     A.U. after   17 cycles
 SCF Done:  E(UB3LYP) =  -2359.50285155     A.U. after   19 cycles
 SCF Done:  E(UB3LYP) =  -2359.50300173     A.U. after   17 cycles
 SCF Done:  E(UB3LYP) =  -2359.50328125     A.U. after   15 cycles
 SCF Done:  E(UB3LYP) =  -2359.50334393     A.U. after   14 cycles
 SCF Done:  E(UB3LYP) =  -2359.50336754     A.U. after   12 cycles
 SCF Done:  E(UB3LYP) =  -2359.50337832     A.U. after   10 cycles
 SCF Done:  E(UB3LYP) =  -2359.50339382     A.U. after   12 cycles
 SCF Done:  E(UB3LYP) =  -2359.50340406     A.U. after   11 cycles
 SCF Done:  E(UB3LYP) =  -2359.50342158     A.U. after    9 cycles
 SCF Done:  E(UB3LYP) =  -2359.50342229     A.U. after    9 cycles
 SCF Done:  E(UB3LYP) =  -2359.50342280     A.U. after   10 cycles
 SCF Done:  E(UB3LYP) =  -2359.50342304     A.U. after    9 cycles
 SCF Done:  E(UB3LYP) =  -2359.50342330     A.U. after    9 cycles
 SCF Done:  E(UB3LYP) =  -2359.50342352     A.U. after    9 cycles
 SCF Done:  E(UB3LYP) =  -2359.50342380     A.U. after    9 cycles
 SCF Done:  E(UB3LYP) =  -2359.50342405     A.U. after    9 cycles
 SCF Done:  E(UB3LYP) =  -2359.50342419     A.U. after    8 cycles
 SCF Done:  E(UB3LYP) =  -2359.50342427     A.U. after    8 cycles
 Optimization completed.
    -- Stationary point found.

                         Standard orientation:
 ---------------------------------------------------------------------
 Center     Atomic      Atomic             Coordinates (Angstroms)
 Number     Number       Type             X           Y           Z
 ---------------------------------------------------------------------
      1          6           0       -3.110283   -2.850808    0.450653
      2          6           0       -2.560242   -1.512322    0.284401
      3          6           0       -3.415304   -0.421306    0.010088
      4          6           0       -4.813528   -0.607021   -0.103736
      5          6           0       -5.393782   -1.935132    0.060767
      6          6           0       -1.180251   -1.299356    0.416677
      7          6           0       -2.847342    0.885018   -0.156716
      8          6           0       -1.439815    1.072330   -0.048778
      9          6           0       -0.607009   -0.041414    0.273870
     10          6           0       -0.889795    2.401666   -0.313400
     11          6           0       -3.194817    3.313316   -0.612767
     12          6           0       -3.720724    1.967411   -0.433105
     13          6           0       -5.109859    1.753551   -0.538366
     14          6           0       -5.648566    0.493225   -0.378090
     15          1           0       -6.715436    0.331433   -0.461551
     16          1           0       -5.746265    2.603022   -0.749993
     17          1           0       -0.550414   -2.145228    0.660266
     18          7           0       -1.805131    3.448026   -0.533122
     19          7           0       -4.499450   -2.985057    0.329858
     20          8           0       -2.421874   -3.851442    0.688626
     21          8           0       -6.607838   -2.156124   -0.027343
     22          8           0       -3.912317    4.298182   -0.832446
     23          8           0        0.315086    2.664320   -0.364431
     24          6           0       -1.220344    4.777281   -0.746068
     25          1           0       -0.546696    5.018087    0.075523
     26          1           0       -0.651025    4.796400   -1.677002
     27          1           0       -2.031136    5.496273   -0.794449
     28          6           0       -5.037968   -4.339569    0.500906
     29          1           0       -4.620895   -5.005366   -0.255589
     30          1           0       -4.771372   -4.723960    1.485774
     31          1           0       -6.116545   -4.288140    0.398377
     32          6           0        0.854221    0.056324    0.509964
     33          6           0        1.504067    0.461425    1.642610
     34         16           0        1.980147   -0.514233   -0.692043
     35          6           0        2.919826    0.342118    1.543969
     36          1           0        0.983990    0.841921    2.509774
     37          6           0        3.371174   -0.171251    0.337379
     38          8           0        3.819331    0.670720    2.514316
     39          6           0        4.731843   -0.416000   -0.080063
     40          6           0        3.319940    1.245328    3.725945
     41          6           0        5.179968   -0.954770   -1.278382
     42         16           0        6.121096   -0.031390    0.934625
     43          1           0        4.193848    1.446102    4.342519
     44          1           0        2.789859    2.180740    3.526587
     45          1           0        2.658271    0.548077    4.247284
     46          6           0        6.598390   -1.056456   -1.382578
     47          8           0        4.276817   -1.330884   -2.227906
     48          6           0        7.233155   -0.595400   -0.264737
     49          1           0        7.120738   -1.451588   -2.241739
     50          6           0        4.778889   -1.882807   -3.448615
     51          1           0        8.294077   -0.556113   -0.070776
     52          1           0        5.340978   -2.802066   -3.261491
     53          1           0        3.904206   -2.108942   -4.055161
     54          1           0        5.411284   -1.161939   -3.974320
 ---------------------------------------------------------------------

 The electronic state is 2-A.
 Alpha  occ. eigenvalues --  -88.87911 -88.87566 -19.16223 -19.16209 -19.09898
 Alpha  occ. eigenvalues --  -19.09887 -19.09714 -19.09581 -14.36728 -14.36504
 Alpha  occ. eigenvalues --  -10.28348 -10.28173 -10.28152 -10.28123 -10.23889
 Alpha  occ. eigenvalues --  -10.23823 -10.22451 -10.22426 -10.21232 -10.21033
 Alpha  occ. eigenvalues --  -10.20905 -10.20494 -10.20458 -10.20286 -10.20112
 Alpha  occ. eigenvalues --  -10.19736 -10.19625 -10.19610 -10.18944 -10.18924
 Alpha  occ. eigenvalues --  -10.18911 -10.18485 -10.18244 -10.18236 -10.18180
 Alpha  occ. eigenvalues --  -10.17651  -7.96474  -7.96128  -5.92782  -5.92448
 Alpha  occ. eigenvalues --   -5.92398  -5.92062  -5.92044  -5.91674  -1.07547
 Alpha  occ. eigenvalues --   -1.07462  -1.05836  -1.05755  -1.03774  -1.03671
 Alpha  occ. eigenvalues --   -0.93930  -0.93681  -0.89922  -0.89162  -0.87738
 Alpha  occ. eigenvalues --   -0.84181  -0.81897  -0.78703  -0.76359  -0.75876
 Alpha  occ. eigenvalues --   -0.75301  -0.74293  -0.73451  -0.72153  -0.70754
 Alpha  occ. eigenvalues --   -0.70219  -0.69323  -0.67486  -0.65135  -0.64069
 Alpha  occ. eigenvalues --   -0.63151  -0.62641  -0.59755  -0.58523  -0.56666
 Alpha  occ. eigenvalues --   -0.55658  -0.55259  -0.54987  -0.53879  -0.53072
 Alpha  occ. eigenvalues --   -0.51565  -0.49513  -0.48990  -0.48253  -0.47906
 Alpha  occ. eigenvalues --   -0.47778  -0.47666  -0.47345  -0.47223  -0.46984
 Alpha  occ. eigenvalues --   -0.46568  -0.45125  -0.45005  -0.44727  -0.44466
 Alpha  occ. eigenvalues --   -0.43994  -0.43230  -0.42866  -0.42504  -0.42141
 Alpha  occ. eigenvalues --   -0.41265  -0.40909  -0.40801  -0.40410  -0.40396
 Alpha  occ. eigenvalues --   -0.40249  -0.39853  -0.39645  -0.39136  -0.38315
 Alpha  occ. eigenvalues --   -0.38091  -0.37572  -0.37268  -0.36861  -0.35560
 Alpha  occ. eigenvalues --   -0.34844  -0.33790  -0.33588  -0.33152  -0.32867
 Alpha  occ. eigenvalues --   -0.32783  -0.30080  -0.29225  -0.28689  -0.28191
 Alpha  occ. eigenvalues --   -0.27811  -0.27429  -0.26817  -0.26577  -0.26122
 Alpha  occ. eigenvalues --   -0.24419  -0.24289  -0.24135  -0.18795  -0.15617
 Alpha virt. eigenvalues --   -0.05842  -0.04639  -0.03766  -0.02932  -0.00293
 Alpha virt. eigenvalues --   -0.00082   0.00329   0.00817   0.00971   0.01073
 Alpha virt. eigenvalues --    0.01542   0.02262   0.02402   0.02455   0.02569

  Beta  occ. eigenvalues --  -88.87911 -88.87562 -19.16221 -19.16209 -19.09701
  Beta  occ. eigenvalues --  -19.09685 -19.09525 -19.09365 -14.36784 -14.36559
  Beta  occ. eigenvalues --  -10.28286 -10.28112 -10.28098 -10.28065 -10.23886
  Beta  occ. eigenvalues --  -10.23826 -10.22451 -10.22426 -10.21233 -10.21043
  Beta  occ. eigenvalues --  -10.20898 -10.20551 -10.20357 -10.20340 -10.20110
  Beta  occ. eigenvalues --  -10.19735 -10.19610 -10.19448 -10.18787 -10.18755
  Beta  occ. eigenvalues --  -10.18748 -10.18415 -10.18237 -10.18156 -10.18096
  Beta  occ. eigenvalues --  -10.17638  -7.96474  -7.96124  -5.92782  -5.92442
  Beta  occ. eigenvalues --   -5.92398  -5.92057  -5.92044  -5.91672  -1.07545
  Beta  occ. eigenvalues --   -1.07461  -1.05582  -1.05499  -1.03429  -1.03323
  Beta  occ. eigenvalues --   -0.93808  -0.93564  -0.89809  -0.89100  -0.87703
  Beta  occ. eigenvalues --   -0.83858  -0.81586  -0.78572  -0.76251  -0.75501
  Beta  occ. eigenvalues --   -0.75168  -0.74274  -0.73379  -0.72114  -0.70712
  Beta  occ. eigenvalues --   -0.69889  -0.69197  -0.67388  -0.64980  -0.63866
  Beta  occ. eigenvalues --   -0.63066  -0.62446  -0.59718  -0.58470  -0.56580
  Beta  occ. eigenvalues --   -0.55525  -0.55253  -0.54877  -0.53873  -0.52922
  Beta  occ. eigenvalues --   -0.51442  -0.49348  -0.48919  -0.47973  -0.47721
  Beta  occ. eigenvalues --   -0.47659  -0.47627  -0.47340  -0.47155  -0.46863
  Beta  occ. eigenvalues --   -0.46530  -0.45070  -0.44862  -0.44695  -0.44353
  Beta  occ. eigenvalues --   -0.43890  -0.43055  -0.42690  -0.42345  -0.41885
  Beta  occ. eigenvalues --   -0.41214  -0.40882  -0.40722  -0.40165  -0.39948
  Beta  occ. eigenvalues --   -0.39809  -0.39474  -0.39093  -0.38753  -0.38174
  Beta  occ. eigenvalues --   -0.38069  -0.37371  -0.36983  -0.36793  -0.35551
  Beta  occ. eigenvalues --   -0.34757  -0.33672  -0.33409  -0.33096  -0.32857
  Beta  occ. eigenvalues --   -0.32127  -0.29110  -0.28975  -0.28526  -0.27665
  Beta  occ. eigenvalues --   -0.27521  -0.27099  -0.26610  -0.25957  -0.25929
  Beta  occ. eigenvalues --   -0.24346  -0.24107  -0.22762  -0.18760
  Beta virt. eigenvalues --   -0.11020  -0.04855  -0.04392  -0.02982  -0.02263
  Beta virt. eigenvalues --   -0.00276  -0.00064   0.00340   0.00824   0.00981
  Beta virt. eigenvalues --    0.01094   0.01550   0.02362   0.02501   0.02827

 Mulliken charges and spin densities:
               1          2
     1  C    0.449118   0.026006
     2  C   -0.042234   0.122008
     3  C    0.181212  -0.038973
     4  C    0.173065   0.109853
     5  C    0.277510   0.026731
     6  C   -0.572640   0.059376
     7  C    0.197812  -0.035972
     8  C    0.025979   0.131341
     9  C    0.541114   0.070208
    10  C   -0.414547   0.026363
    11  C    0.234643   0.025972
    12  C    0.167653   0.111530
    13  C   -0.543480   0.060217
    14  C   -0.648242   0.066611
    15  H    0.144300  -0.004660
    16  H    0.144712  -0.004325
    17  H    0.140559  -0.003590
    18  N   -0.142827  -0.022846
    19  N   -0.139159  -0.023545
    20  O   -0.429255   0.075331
    21  O   -0.419427   0.073173
    22  O   -0.422508   0.070803
    23  O   -0.269127   0.080573
    24  C   -0.221895   0.001349
    25  H    0.171554  -0.000850
    26  H    0.175308  -0.001114
    27  H    0.174669  -0.000356
    28  C   -0.208361   0.001388
    29  H    0.172023  -0.001013
    30  H    0.171685  -0.000989
    31  H    0.173943  -0.000347
    32  C    0.124030  -0.027346
    33  C   -0.555385   0.009387
    34  S   -0.200600   0.006388
    35  C   -0.168360  -0.000020
    36  H    0.141407  -0.000543
    37  C    0.328107   0.011591
    38  O   -0.174742  -0.000113
    39  C    0.731201  -0.001666
    40  C   -0.234484   0.000384
    41  C    0.021167   0.000601
    42  S   -0.254091   0.000196
    43  H    0.173661  -0.000012
    44  H    0.163798   0.000004
    45  H    0.159762  -0.000024
    46  C   -0.539527  -0.001397
    47  O   -0.175833   0.000690
    48  C   -0.367009   0.001549
    49  H    0.158469   0.000031
    50  C   -0.247524   0.000091
    51  H    0.185355  -0.000091
    52  H    0.157245   0.000011
    53  H    0.171809   0.000011
    54  H    0.158384   0.000024
 Sum of Mulliken charges =  -1.00000   1.00000

 Dipole moment (field-independent basis, Debye):
    X=             14.0843    Y=             -0.8970    Z=              0.7910  Tot=             14.1350
 Quadrupole moment (field-independent basis, Debye-Ang):
   XX=           -300.0132   YY=           -269.8402   ZZ=           -203.8505
   XY=             -4.2892   XZ=            -14.3031   YZ=             20.2392

 Normal termination of Gaussian 16 at Thu Oct 28 08:36:38 2021.
