 Gaussian 16, Revision C.01,
 Gaussian 16:  ES64L-G16RevC.01  3-Jul-2019

 ---------------------------------------------------------------
 # opt=modredundant b3lyp/6-311+g(d,p) scrf=(pcm, solvent=water)
 ---------------------------------------------------------------

 ------------
 NDI_-105.pdb
 ------------
 Symbolic Z-matrix:
 Charge = -1 Multiplicity = 2

 SCF Done:  E(UB3LYP) =  -2359.49467746     A.U. after   22 cycles
 SCF Done:  E(UB3LYP) =  -2359.50222493     A.U. after   22 cycles
 SCF Done:  E(UB3LYP) =  -2359.50314442     A.U. after   18 cycles
 SCF Done:  E(UB3LYP) =  -2359.50301642     A.U. after   17 cycles
 SCF Done:  E(UB3LYP) =  -2359.50358080     A.U. after   17 cycles
 SCF Done:  E(UB3LYP) =  -2359.50360687     A.U. after   14 cycles
 SCF Done:  E(UB3LYP) =  -2359.50361985     A.U. after   14 cycles
 SCF Done:  E(UB3LYP) =  -2359.50362443     A.U. after   13 cycles
 SCF Done:  E(UB3LYP) =  -2359.50363046     A.U. after   13 cycles
 SCF Done:  E(UB3LYP) =  -2359.50363652     A.U. after   12 cycles
 SCF Done:  E(UB3LYP) =  -2359.50364045     A.U. after   12 cycles
 SCF Done:  E(UB3LYP) =  -2359.50358928     A.U. after   11 cycles
 SCF Done:  E(UB3LYP) =  -2359.50358977     A.U. after   11 cycles
 SCF Done:  E(UB3LYP) =  -2359.50358967     A.U. after   10 cycles
 Optimization completed.
    -- Stationary point found.

                         Standard orientation:
 ---------------------------------------------------------------------
 Center     Atomic      Atomic             Coordinates (Angstroms)
 Number     Number       Type             X           Y           Z
 ---------------------------------------------------------------------
      1          6           0        3.324329   -2.802025   -0.142399
      2          6           0        2.676783   -1.505869    0.005823
      3          6           0        3.434212   -0.317267   -0.093935
      4          6           0        4.826966   -0.363685   -0.340248
      5          6           0        5.502646   -1.646944   -0.497182
      6          6           0        1.294776   -1.433975    0.234146
      7          6           0        2.773244    0.945731    0.063503
      8          6           0        1.372465    0.994267    0.315314
      9          6           0        0.629097   -0.222960    0.381770
     10          6           0        0.748246    2.296707    0.544306
     11          6           0        2.930629    3.435178    0.127246
     12          6           0        3.550666    2.127505   -0.032734
     13          6           0        4.935789    2.051555   -0.281473
     14          6           0        5.564415    0.832456   -0.432657
     15          1           0        6.628664    0.777179   -0.621154
     16          1           0        5.496561    2.974731   -0.349574
     17          1           0        0.732069   -2.357232    0.281403
     18          7           0        1.559540    3.437980    0.402559
     19          7           0        4.703934   -2.797634   -0.385866
     20          8           0        2.724896   -3.881917   -0.064353
     21          8           0        6.715998   -1.747840   -0.716551
     22          8           0        3.558672    4.498313    0.036788
     23          8           0       -0.434824    2.460485    0.856260
     24          6           0        0.890768    4.729056    0.603735
     25          1           0        0.038406    4.812703   -0.070134
     26          1           0        0.529398    4.811029    1.629933
     27          1           0        1.610709    5.514489    0.400114
     28          6           0        5.340928   -4.111641   -0.532688
     29          1           0        5.199048   -4.697617    0.376006
     30          1           0        4.892252   -4.652123   -1.366827
     31          1           0        6.398581   -3.954352   -0.714799
     32          6           0       -0.837995   -0.299618    0.586322
     33          6           0       -1.507543   -0.654863    1.724302
     34         16           0       -1.939658   -0.067700   -0.745829
     35          6           0       -2.920548   -0.707963    1.545473
     36          1           0       -1.004174   -0.849802    2.660274
     37          6           0       -3.347260   -0.416431    0.259484
     38          8           0       -3.837001   -1.017863    2.506099
     39          6           0       -4.697742   -0.394399   -0.252306
     40          6           0       -3.360314   -1.284452    3.828680
     41          6           0       -5.122710   -0.129812   -1.547074
     42         16           0       -6.103282   -0.716793    0.761739
     43          1           0       -4.244864   -1.492182    4.427536
     44          1           0       -2.699630   -2.155764    3.839642
     45          1           0       -2.836611   -0.416622    4.239068
     46          6           0       -6.536746   -0.182261   -1.723087
     47          8           0       -4.203544    0.147111   -2.515121
     48          6           0       -7.191028   -0.486893   -0.563691
     49          1           0       -7.042592   -0.004318   -2.660939
     50          6           0       -4.682021    0.418252   -3.835854
     51          1           0       -8.253691   -0.593051   -0.408137
     52          1           0       -5.328859    1.300026   -3.845778
     53          1           0       -3.797173    0.610191   -4.439456
     54          1           0       -5.221287   -0.442048   -4.242203
 ---------------------------------------------------------------------

 The electronic state is 2-A.
 Alpha  occ. eigenvalues --  -88.87912 -88.87427 -19.16218 -19.16210 -19.09901
 Alpha  occ. eigenvalues --  -19.09884 -19.09717 -19.09594 -14.36726 -14.36519
 Alpha  occ. eigenvalues --  -10.28353 -10.28168 -10.28151 -10.28130 -10.23893
 Alpha  occ. eigenvalues --  -10.23804 -10.22452 -10.22430 -10.21225 -10.21049
 Alpha  occ. eigenvalues --  -10.20902 -10.20500 -10.20439 -10.20290 -10.20112
 Alpha  occ. eigenvalues --  -10.19736 -10.19632 -10.19613 -10.18951 -10.18916
 Alpha  occ. eigenvalues --  -10.18913 -10.18465 -10.18248 -10.18236 -10.18182
 Alpha  occ. eigenvalues --  -10.17704  -7.96475  -7.95993  -5.92783  -5.92399
 Alpha  occ. eigenvalues --   -5.92316  -5.92045  -5.91930  -5.91533  -1.07543
 Alpha  occ. eigenvalues --   -1.07459  -1.05838  -1.05764  -1.03776  -1.03683
 Alpha  occ. eigenvalues --   -0.93932  -0.93692  -0.89906  -0.89155  -0.87716
 Alpha  occ. eigenvalues --   -0.84179  -0.81900  -0.78717  -0.76315  -0.75900
 Alpha  occ. eigenvalues --   -0.75300  -0.74276  -0.73453  -0.72155  -0.70767
 Alpha  occ. eigenvalues --   -0.70147  -0.69360  -0.67490  -0.65127  -0.64083
 Alpha  occ. eigenvalues --   -0.63140  -0.62650  -0.59742  -0.58520  -0.56671
 Alpha  occ. eigenvalues --   -0.55684  -0.55257  -0.54975  -0.53872  -0.53004
 Alpha  occ. eigenvalues --   -0.51610  -0.49497  -0.48974  -0.48264  -0.47912
 Alpha  occ. eigenvalues --   -0.47777  -0.47659  -0.47343  -0.47249  -0.46976
 Alpha  occ. eigenvalues --   -0.46573  -0.45109  -0.45011  -0.44736  -0.44504
 Alpha  occ. eigenvalues --   -0.43948  -0.43242  -0.42910  -0.42522  -0.42135
 Alpha  occ. eigenvalues --   -0.41264  -0.40880  -0.40783  -0.40408  -0.40402
 Alpha  occ. eigenvalues --   -0.40244  -0.39842  -0.39681  -0.39149  -0.38335
 Alpha  occ. eigenvalues --   -0.38009  -0.37450  -0.37347  -0.36877  -0.35533
 Alpha  occ. eigenvalues --   -0.34833  -0.33865  -0.33569  -0.33115  -0.32956
 Alpha  occ. eigenvalues --   -0.32631  -0.30078  -0.29201  -0.28686  -0.28194
 Alpha  occ. eigenvalues --   -0.27775  -0.27450  -0.26806  -0.26591  -0.26138
 Alpha  occ. eigenvalues --   -0.24477  -0.24318  -0.24059  -0.18788  -0.15629
 Alpha virt. eigenvalues --   -0.05828  -0.04753  -0.03653  -0.02916  -0.00306
 Alpha virt. eigenvalues --   -0.00106   0.00328   0.00792   0.00946   0.01185
 Alpha virt. eigenvalues --    0.01489   0.02323   0.02365   0.02472   0.02569

  Beta  occ. eigenvalues --  -88.87912 -88.87421 -19.16217 -19.16210 -19.09704
  Beta  occ. eigenvalues --  -19.09681 -19.09528 -19.09375 -14.36783 -14.36574
  Beta  occ. eigenvalues --  -10.28291 -10.28108 -10.28099 -10.28072 -10.23892
  Beta  occ. eigenvalues --  -10.23803 -10.22452 -10.22430 -10.21225 -10.21058
  Beta  occ. eigenvalues --  -10.20900 -10.20556 -10.20345 -10.20336 -10.20111
  Beta  occ. eigenvalues --  -10.19735 -10.19613 -10.19455 -10.18795 -10.18750
  Beta  occ. eigenvalues --  -10.18745 -10.18396 -10.18236 -10.18160 -10.18098
  Beta  occ. eigenvalues --  -10.17695  -7.96475  -7.95987  -5.92783  -5.92399
  Beta  occ. eigenvalues --   -5.92307  -5.92045  -5.91923  -5.91528  -1.07542
  Beta  occ. eigenvalues --   -1.07458  -1.05584  -1.05507  -1.03430  -1.03334
  Beta  occ. eigenvalues --   -0.93809  -0.93575  -0.89791  -0.89096  -0.87680
  Beta  occ. eigenvalues --   -0.83856  -0.81590  -0.78585  -0.76212  -0.75530
  Beta  occ. eigenvalues --   -0.75161  -0.74254  -0.73381  -0.72113  -0.70725
  Beta  occ. eigenvalues --   -0.69814  -0.69241  -0.67393  -0.64973  -0.63880
  Beta  occ. eigenvalues --   -0.63046  -0.62467  -0.59702  -0.58466  -0.56588
  Beta  occ. eigenvalues --   -0.55548  -0.55252  -0.54862  -0.53867  -0.52860
  Beta  occ. eigenvalues --   -0.51485  -0.49323  -0.48913  -0.47983  -0.47716
  Beta  occ. eigenvalues --   -0.47671  -0.47618  -0.47338  -0.47177  -0.46857
  Beta  occ. eigenvalues --   -0.46535  -0.45047  -0.44889  -0.44687  -0.44401
  Beta  occ. eigenvalues --   -0.43838  -0.43071  -0.42724  -0.42374  -0.41872
  Beta  occ. eigenvalues --   -0.41217  -0.40866  -0.40709  -0.40143  -0.39955
  Beta  occ. eigenvalues --   -0.39807  -0.39478  -0.39104  -0.38783  -0.38218
  Beta  occ. eigenvalues --   -0.37955  -0.37226  -0.37112  -0.36784  -0.35525
  Beta  occ. eigenvalues --   -0.34748  -0.33667  -0.33415  -0.33074  -0.32916
  Beta  occ. eigenvalues --   -0.32021  -0.29063  -0.28995  -0.28529  -0.27652
  Beta  occ. eigenvalues --   -0.27517  -0.27123  -0.26609  -0.25962  -0.25910
  Beta  occ. eigenvalues --   -0.24437  -0.24029  -0.22770  -0.18760
  Beta virt. eigenvalues --   -0.11022  -0.04786  -0.04534  -0.02883  -0.02259
  Beta virt. eigenvalues --   -0.00289  -0.00090   0.00337   0.00801   0.00959
  Beta virt. eigenvalues --    0.01195   0.01497   0.02372   0.02541   0.02871

 Mulliken charges and spin densities:
               1          2
     1  C    0.432342   0.025381
     2  C    0.018351   0.126329
     3  C    0.213508  -0.039512
     4  C    0.169946   0.110376
     5  C    0.292834   0.026332
     6  C   -0.525225   0.052796
     7  C    0.211316  -0.035221
     8  C   -0.128106   0.131500
     9  C    0.344937   0.071945
    10  C   -0.316260   0.024322
    11  C    0.243462   0.025981
    12  C    0.167109   0.112548
    13  C   -0.530363   0.059602
    14  C   -0.653299   0.065726
    15  H    0.144419  -0.004655
    16  H    0.144821  -0.004333
    17  H    0.138558  -0.003597
    18  N   -0.138068  -0.022767
    19  N   -0.136766  -0.023503
    20  O   -0.428470   0.075560
    21  O   -0.419845   0.073141
    22  O   -0.421740   0.070640
    23  O   -0.296687   0.081470
    24  C   -0.217405   0.001287
    25  H    0.173059  -0.000902
    26  H    0.173670  -0.001061
    27  H    0.174800  -0.000348
    28  C   -0.208969   0.001382
    29  H    0.171846  -0.001000
    30  H    0.171997  -0.001005
    31  H    0.174137  -0.000347
    32  C    0.121426  -0.022194
    33  C   -0.358083   0.007522
    34  S   -0.262176   0.011173
    35  C   -0.141547   0.005956
    36  H    0.140100   0.000070
    37  C    0.233551  -0.000702
    38  O   -0.168901   0.000009
    39  C    0.746334  -0.001044
    40  C   -0.236081  -0.000179
    41  C    0.031735   0.000782
    42  S   -0.253531   0.000099
    43  H    0.173763  -0.000004
    44  H    0.161220  -0.000022
    45  H    0.163352   0.000026
    46  C   -0.532961  -0.000196
    47  O   -0.177584  -0.000139
    48  C   -0.364835   0.000685
    49  H    0.158361   0.000011
    50  C   -0.246619   0.000088
    51  H    0.185273  -0.000029
    52  H    0.158392   0.000003
    53  H    0.171702  -0.000001
    54  H    0.157201   0.000020
 Sum of Mulliken charges =  -1.00000   1.00000

 Dipole moment (field-independent basis, Debye):
    X=            -14.0251    Y=             -1.4125    Z=             -0.0866  Tot=             14.0963
 Quadrupole moment (field-independent basis, Debye-Ang):
   XX=           -298.7513   YY=           -274.8695   ZZ=           -199.6629
   XY=             -3.7802   XZ=             18.8461   YZ=             -8.7716

 Normal termination of Gaussian 16 at Thu Oct 28 04:47:37 2021.
