 Gaussian 16, Revision C.01,
 Gaussian 16:  ES64L-G16RevC.01  3-Jul-2019

 ---------------------------------------------------------------
 # opt=modredundant b3lyp/6-311+g(d,p) scrf=(pcm, solvent=water)
 ---------------------------------------------------------------

 -----------
 NDI_160.pdb
 -----------
 Symbolic Z-matrix:
 Charge = -1 Multiplicity = 2

 SCF Done:  E(UB3LYP) =  -2359.46156998     A.U. after   22 cycles
 SCF Done:  E(UB3LYP) =  -2359.48394326     A.U. after   22 cycles
 SCF Done:  E(UB3LYP) =  -2359.49314527     A.U. after   18 cycles
 SCF Done:  E(UB3LYP) =  -2359.49709750     A.U. after   19 cycles
 SCF Done:  E(UB3LYP) =  -2359.49857456     A.U. after   20 cycles
 SCF Done:  E(UB3LYP) =  -2359.49948570     A.U. after   20 cycles
 SCF Done:  E(UB3LYP) =  -2359.50034206     A.U. after   17 cycles
 SCF Done:  E(UB3LYP) =  -2359.50092849     A.U. after   20 cycles
 SCF Done:  E(UB3LYP) =  -2359.50129408     A.U. after   16 cycles
 SCF Done:  E(UB3LYP) =  -2359.50141501     A.U. after   18 cycles
 SCF Done:  E(UB3LYP) =  -2359.50157060     A.U. after    9 cycles
 SCF Done:  E(UB3LYP) =  -2359.50157096     A.U. after   11 cycles
 SCF Done:  E(UB3LYP) =  -2359.50157126     A.U. after   11 cycles
 SCF Done:  E(UB3LYP) =  -2359.50157146     A.U. after   10 cycles
 SCF Done:  E(UB3LYP) =  -2359.50157157     A.U. after    9 cycles
 SCF Done:  E(UB3LYP) =  -2359.50157172     A.U. after    9 cycles
 SCF Done:  E(UB3LYP) =  -2359.50157179     A.U. after    9 cycles
 SCF Done:  E(UB3LYP) =  -2359.50157185     A.U. after    8 cycles
 SCF Done:  E(UB3LYP) =  -2359.50157187     A.U. after    8 cycles
 SCF Done:  E(UB3LYP) =  -2359.50157189     A.U. after    7 cycles
 Optimization completed.
    -- Stationary point found.

                         Standard orientation:
 ---------------------------------------------------------------------
 Center     Atomic      Atomic             Coordinates (Angstroms)
 Number     Number       Type             X           Y           Z
 ---------------------------------------------------------------------
      1          6           0       -3.536165   -2.669026   -0.255858
      2          6           0       -2.786051   -1.448704    0.014568
      3          6           0       -3.413136   -0.187113   -0.114494
      4          6           0       -4.764138   -0.084195   -0.512788
      5          6           0       -5.538816   -1.288970   -0.795804
      6          6           0       -1.425183   -1.522478    0.325767
      7          6           0       -2.653143    0.992288    0.176152
      8          6           0       -1.293234    0.888125    0.586220
      9          6           0       -0.645667   -0.393513    0.590619
     10          6           0       -0.669856    2.080877    1.152009
     11          6           0       -2.585944    3.476287    0.384564
     12          6           0       -3.300430    2.249024    0.062368
     13          6           0       -4.645648    2.324447   -0.351545
     14          6           0       -5.367359    1.183057   -0.635366
     15          1           0       -6.402237    1.242725   -0.946198
     16          1           0       -5.102817    3.302116   -0.434222
     17          1           0       -0.958836   -2.497363    0.290974
     18          7           0       -1.300297    3.316905    0.907329
     19          7           0       -4.876983   -2.517811   -0.633397
     20          8           0       -3.054634   -3.805222   -0.168094
     21          8           0       -6.720729   -1.260161   -1.157816
     22          8           0       -3.073033    4.606234    0.244078
     23          8           0        0.352592    2.073471    1.845730
     24          6           0       -0.589415    4.515653    1.366997
     25          1           0       -0.691396    4.636537    2.448269
     26          1           0        0.467093    4.420243    1.126819
     27          1           0       -1.020052    5.377037    0.866580
     28          6           0       -5.622807   -3.755266   -0.891934
     29          1           0       -5.208633   -4.271144   -1.759896
     30          1           0       -5.548896   -4.415793   -0.028534
     31          1           0       -6.658305   -3.491638   -1.078531
     32          6           0        0.806659   -0.612645    0.657564
     33          6           0        1.439646   -1.777436    1.045191
     34         16           0        1.947189    0.453655   -0.133679
     35          6           0        2.823182   -1.799781    0.749515
     36          1           0        0.923688   -2.582427    1.547690
     37          6           0        3.285204   -0.667435    0.088453
     38          8           0        3.695171   -2.800919    1.056990
     39          6           0        4.629116   -0.371856   -0.339481
     40          6           0        3.181463   -3.956280    1.726822
     41          6           0        5.088889    0.748952   -1.021500
     42         16           0        5.983197   -1.462871   -0.044071
     43          1           0        4.032446   -4.618416    1.873270
     44          1           0        2.754861   -3.688981    2.697586
     45          1           0        2.427117   -4.460147    1.116101
     46          6           0        6.487071    0.735104   -1.296544
     47          8           0        4.214299    1.733782   -1.365384
     48          6           0        7.094609   -0.395011   -0.827839
     49          1           0        7.015212    1.520993   -1.816555
     50          6           0        4.728596    2.877404   -2.055592
     51          1           0        8.136504   -0.667238   -0.899685
     52          1           0        5.168455    2.590797   -3.014793
     53          1           0        3.874850    3.529653   -2.227458
     54          1           0        5.471736    3.400311   -1.447363
 ---------------------------------------------------------------------

 The electronic state is 2-A.
 Alpha  occ. eigenvalues --  -88.88039 -88.87467 -19.16410 -19.16295 -19.09986
 Alpha  occ. eigenvalues --  -19.09941 -19.09632 -19.09524 -14.36753 -14.36401
 Alpha  occ. eigenvalues --  -10.28423 -10.28231 -10.28063 -10.28011 -10.24164
 Alpha  occ. eigenvalues --  -10.23915 -10.22524 -10.22476 -10.21379 -10.21307
 Alpha  occ. eigenvalues --  -10.21276 -10.20651 -10.20405 -10.20319 -10.20111
 Alpha  occ. eigenvalues --  -10.19756 -10.19651 -10.19245 -10.18954 -10.18896
 Alpha  occ. eigenvalues --  -10.18788 -10.18548 -10.18347 -10.18175 -10.18092
 Alpha  occ. eigenvalues --  -10.18003  -7.96602  -7.96034  -5.92910  -5.92525
 Alpha  occ. eigenvalues --   -5.92356  -5.92172  -5.91967  -5.91573  -1.07753
 Alpha  occ. eigenvalues --   -1.07590  -1.05904  -1.05664  -1.03857  -1.03568
 Alpha  occ. eigenvalues --   -0.93961  -0.93635  -0.89971  -0.89228  -0.87851
 Alpha  occ. eigenvalues --   -0.84153  -0.81828  -0.78900  -0.76379  -0.75942
 Alpha  occ. eigenvalues --   -0.75354  -0.74436  -0.73429  -0.72315  -0.70783
 Alpha  occ. eigenvalues --   -0.70030  -0.69546  -0.67582  -0.65085  -0.64058
 Alpha  occ. eigenvalues --   -0.63198  -0.62613  -0.59804  -0.58658  -0.56664
 Alpha  occ. eigenvalues --   -0.55782  -0.55399  -0.55015  -0.54047  -0.52902
 Alpha  occ. eigenvalues --   -0.51787  -0.49413  -0.48870  -0.48299  -0.47904
 Alpha  occ. eigenvalues --   -0.47817  -0.47666  -0.47437  -0.47333  -0.47000
 Alpha  occ. eigenvalues --   -0.46561  -0.45308  -0.45155  -0.44674  -0.44522
 Alpha  occ. eigenvalues --   -0.43716  -0.43155  -0.43030  -0.42482  -0.42030
 Alpha  occ. eigenvalues --   -0.41430  -0.41124  -0.40886  -0.40529  -0.40313
 Alpha  occ. eigenvalues --   -0.40073  -0.39870  -0.39596  -0.39203  -0.38712
 Alpha  occ. eigenvalues --   -0.38082  -0.37644  -0.37058  -0.36776  -0.35613
 Alpha  occ. eigenvalues --   -0.34935  -0.34683  -0.33605  -0.33296  -0.32982
 Alpha  occ. eigenvalues --   -0.32349  -0.29986  -0.29366  -0.29006  -0.28194
 Alpha  occ. eigenvalues --   -0.27943  -0.27283  -0.26937  -0.26374  -0.26228
 Alpha  occ. eigenvalues --   -0.24624  -0.24313  -0.23777  -0.19038  -0.15385
 Alpha virt. eigenvalues --   -0.06571  -0.05286  -0.03242  -0.02638  -0.00321
 Alpha virt. eigenvalues --    0.00252   0.00426   0.00622   0.00800   0.01455
 Alpha virt. eigenvalues --    0.01828   0.02307   0.02355   0.02525   0.02635

  Beta  occ. eigenvalues --  -88.88039 -88.87463 -19.16394 -19.16304 -19.09801
  Beta  occ. eigenvalues --  -19.09747 -19.09456 -19.09333 -14.36806 -14.36454
  Beta  occ. eigenvalues --  -10.28364 -10.28173 -10.28005 -10.27956 -10.24131
  Beta  occ. eigenvalues --  -10.23945 -10.22525 -10.22475 -10.21397 -10.21323
  Beta  occ. eigenvalues --  -10.21238 -10.20533 -10.20454 -10.20287 -10.20167
  Beta  occ. eigenvalues --  -10.19755 -10.19650 -10.19090 -10.18807 -10.18732
  Beta  occ. eigenvalues --  -10.18638 -10.18490 -10.18359 -10.18097 -10.18011
  Beta  occ. eigenvalues --  -10.17939  -7.96601  -7.96030  -5.92909  -5.92525
  Beta  occ. eigenvalues --   -5.92352  -5.92169  -5.91964  -5.91566  -1.07724
  Beta  occ. eigenvalues --   -1.07604  -1.05662  -1.05429  -1.03529  -1.03250
  Beta  occ. eigenvalues --   -0.93847  -0.93528  -0.89870  -0.89139  -0.87801
  Beta  occ. eigenvalues --   -0.83843  -0.81538  -0.78756  -0.76272  -0.75637
  Beta  occ. eigenvalues --   -0.75184  -0.74389  -0.73361  -0.72236  -0.70741
  Beta  occ. eigenvalues --   -0.69763  -0.69396  -0.67467  -0.64933  -0.63872
  Beta  occ. eigenvalues --   -0.63081  -0.62463  -0.59737  -0.58596  -0.56587
  Beta  occ. eigenvalues --   -0.55657  -0.55372  -0.54900  -0.54027  -0.52773
  Beta  occ. eigenvalues --   -0.51674  -0.49248  -0.48806  -0.48026  -0.47783
  Beta  occ. eigenvalues --   -0.47686  -0.47588  -0.47426  -0.47252  -0.46883
  Beta  occ. eigenvalues --   -0.46509  -0.45244  -0.45089  -0.44545  -0.44442
  Beta  occ. eigenvalues --   -0.43611  -0.42991  -0.42833  -0.42340  -0.41811
  Beta  occ. eigenvalues --   -0.41374  -0.41042  -0.40812  -0.40121  -0.39924
  Beta  occ. eigenvalues --   -0.39881  -0.39435  -0.39154  -0.38829  -0.38550
  Beta  occ. eigenvalues --   -0.37958  -0.37449  -0.36794  -0.36733  -0.35594
  Beta  occ. eigenvalues --   -0.34803  -0.34426  -0.33490  -0.33255  -0.32964
  Beta  occ. eigenvalues --   -0.31827  -0.29240  -0.28941  -0.28657  -0.27939
  Beta  occ. eigenvalues --   -0.27469  -0.27000  -0.26736  -0.26172  -0.25746
  Beta  occ. eigenvalues --   -0.24393  -0.23938  -0.22702  -0.18679
  Beta virt. eigenvalues --   -0.11121  -0.05958  -0.04379  -0.02516  -0.02254
  Beta virt. eigenvalues --   -0.00305   0.00364   0.00510   0.00635   0.00852
  Beta virt. eigenvalues --    0.01464   0.01848   0.02363   0.02537   0.02925

 Mulliken charges and spin densities:
               1          2
     1  C    0.377387   0.027273
     2  C   -0.094509   0.114790
     3  C    0.118475  -0.038812
     4  C    0.223508   0.101252
     5  C    0.239507   0.025634
     6  C   -0.026505   0.042888
     7  C    0.120072  -0.030659
     8  C    0.250813   0.116244
     9  C    0.244849   0.080799
    10  C   -0.588669   0.022866
    11  C    0.352332   0.026960
    12  C    0.037146   0.099124
    13  C   -0.505845   0.057504
    14  C   -0.569628   0.061789
    15  H    0.144185  -0.004263
    16  H    0.144438  -0.004041
    17  H    0.145485  -0.002180
    18  N    0.010011  -0.021766
    19  N   -0.136976  -0.022532
    20  O   -0.430864   0.072071
    21  O   -0.416636   0.068708
    22  O   -0.431479   0.065933
    23  O   -0.367348   0.072370
    24  C   -0.202041   0.001489
    25  H    0.177976  -0.001188
    26  H    0.174595  -0.000565
    27  H    0.174257  -0.000432
    28  C   -0.205505   0.001285
    29  H    0.175190  -0.001035
    30  H    0.169524  -0.000851
    31  H    0.173809  -0.000328
    32  C    0.065929  -0.018032
    33  C   -0.646478   0.045960
    34  S   -0.713598   0.007949
    35  C   -0.233780  -0.023140
    36  H    0.155246  -0.002164
    37  C    0.684955   0.037545
    38  O   -0.167453  -0.001399
    39  C    0.846371  -0.013856
    40  C   -0.237820   0.000220
    41  C   -0.009587   0.021892
    42  S   -0.220055  -0.000688
    43  H    0.175169   0.000000
    44  H    0.160563  -0.000232
    45  H    0.162344  -0.000201
    46  C   -0.598087  -0.009553
    47  O   -0.162672   0.003339
    48  C   -0.324661   0.022690
    49  H    0.159465   0.000416
    50  C   -0.251973  -0.000280
    51  H    0.187260  -0.001360
    52  H    0.158622   0.000321
    53  H    0.173115  -0.000010
    54  H    0.159570   0.000256
 Sum of Mulliken charges =  -1.00000   1.00000

 Dipole moment (field-independent basis, Debye):
    X=             14.8914    Y=             -2.1754    Z=             -1.4326  Tot=             15.1175
 Quadrupole moment (field-independent basis, Debye-Ang):
   XX=           -289.0360   YY=           -251.6059   ZZ=           -228.0545
   XY=             13.6457   XZ=            -20.4797   YZ=            -17.7926

 Normal termination of Gaussian 16 at Thu Oct 28 11:32:39 2021.
