 Gaussian 16, Revision C.01,
 Gaussian 16:  ES64L-G16RevC.01  3-Jul-2019

 ---------------------------------------------------------------
 # opt=modredundant b3lyp/6-311+g(d,p) scrf=(pcm, solvent=water)
 ---------------------------------------------------------------

 ----------
 NDI_10.pdb
 ----------
 Symbolic Z-matrix:
 Charge = -1 Multiplicity = 2

 SCF Done:  E(UB3LYP) =  -2359.47514918     A.U. after   21 cycles
 SCF Done:  E(UB3LYP) =  -2359.47612137     A.U. after   22 cycles
 SCF Done:  E(UB3LYP) =  -2359.49038652     A.U. after   16 cycles
 SCF Done:  E(UB3LYP) =  -2359.49455528     A.U. after   17 cycles
 SCF Done:  E(UB3LYP) =  -2359.49519745     A.U. after   17 cycles
 SCF Done:  E(UB3LYP) =  -2359.49564736     A.U. after   15 cycles
 SCF Done:  E(UB3LYP) =  -2359.49585617     A.U. after   16 cycles
 SCF Done:  E(UB3LYP) =  -2359.49407381     A.U. after   21 cycles
 SCF Done:  E(UB3LYP) =  -2359.49633299     A.U. after   14 cycles
 SCF Done:  E(UB3LYP) =  -2359.49667223     A.U. after   19 cycles
 SCF Done:  E(UB3LYP) =  -2359.49730529     A.U. after   13 cycles
 SCF Done:  E(UB3LYP) =  -2359.49730713     A.U. after   14 cycles
 SCF Done:  E(UB3LYP) =  -2359.49730758     A.U. after   12 cycles
 SCF Done:  E(UB3LYP) =  -2359.49730781     A.U. after   11 cycles
 SCF Done:  E(UB3LYP) =  -2359.49730806     A.U. after   11 cycles
 SCF Done:  E(UB3LYP) =  -2359.49730825     A.U. after    8 cycles
 SCF Done:  E(UB3LYP) =  -2359.49730837     A.U. after    8 cycles
 SCF Done:  E(UB3LYP) =  -2359.49730841     A.U. after    9 cycles
 SCF Done:  E(UB3LYP) =  -2359.49730842     A.U. after    9 cycles
 SCF Done:  E(UB3LYP) =  -2359.49730842     A.U. after    8 cycles
 Optimization completed.
    -- Stationary point found.

                         Standard orientation:
 ---------------------------------------------------------------------
 Center     Atomic      Atomic             Coordinates (Angstroms)
 Number     Number       Type             X           Y           Z
 ---------------------------------------------------------------------
      1          6           0       -2.478072   -2.995929    0.400038
      2          6           0       -2.215472   -1.564488    0.307536
      3          6           0       -3.257916   -0.667650   -0.018827
      4          6           0       -4.557886   -1.140405   -0.295712
      5          6           0       -4.846757   -2.571440   -0.237743
      6          6           0       -0.918652   -1.086960    0.477216
      7          6           0       -2.966629    0.735158   -0.039971
      8          6           0       -1.653790    1.214784    0.260299
      9          6           0       -0.563623    0.267289    0.399741
     10          6           0       -1.539378    2.640934    0.538361
     11          6           0       -3.821017    3.057460   -0.363858
     12          6           0       -4.033499    1.618993   -0.352470
     13          6           0       -5.318162    1.120718   -0.650291
     14          6           0       -5.583620   -0.231945   -0.621421
     15          1           0       -6.573549   -0.611279   -0.838309
     16          1           0       -6.096788    1.831908   -0.894267
     17          1           0       -0.157318   -1.838159    0.641475
     18          7           0       -2.570766    3.484787    0.080422
     19          7           0       -3.783356   -3.417931    0.118652
     20          8           0       -1.619627   -3.833413    0.702313
     21          8           0       -5.964344   -3.041212   -0.478280
     22          8           0       -4.685534    3.876746   -0.705040
     23          8           0       -0.618288    3.166023    1.177930
     24          6           0       -2.350825    4.927977    0.232591
     25          1           0       -2.504970    5.237468    1.269103
     26          1           0       -1.329262    5.168105   -0.053019
     27          1           0       -3.059258    5.444936   -0.406953
     28          6           0       -4.032838   -4.861813    0.204715
     29          1           0       -3.401514   -5.392730   -0.508750
     30          1           0       -3.799776   -5.219807    1.207830
     31          1           0       -5.079087   -5.036775   -0.021591
     32          6           0        0.875491    0.552633    0.292388
     33          6           0        1.596992    1.728901    0.221872
     34         16           0        1.992311   -0.816574    0.138928
     35          6           0        2.988931    1.546386    0.054271
     36          1           0        1.132654    2.692980    0.320970
     37          6           0        3.401289    0.221660   -0.003136
     38          8           0        3.916452    2.539540   -0.039054
     39          6           0        4.737135   -0.292162   -0.152727
     40          6           0        3.459305    3.895145    0.009651
     41          6           0        5.151083   -1.619610   -0.194816
     42         16           0        6.145671    0.757656   -0.314788
     43          1           0        4.349923    4.512294   -0.090463
     44          1           0        2.772306    4.106126   -0.814308
     45          1           0        2.970294    4.109677    0.963694
     46          6           0        6.556762   -1.789345   -0.352073
     47          8           0        4.230793   -2.615533   -0.089433
     48          6           0        7.215586   -0.595120   -0.430748
     49          1           0        7.054428   -2.746606   -0.404815
     50          6           0        4.698207   -3.968628   -0.115867
     51          1           0        8.275248   -0.429157   -0.550983
     52          1           0        5.381806   -4.162642    0.715139
     53          1           0        3.811854   -4.590851   -0.011252
     54          1           0        5.192658   -4.193254   -1.064845
 ---------------------------------------------------------------------

 The electronic state is 2-A.
 Alpha  occ. eigenvalues --  -88.88128 -88.87546 -19.16515 -19.16301 -19.10062
 Alpha  occ. eigenvalues --  -19.10019 -19.09606 -19.09537 -14.36806 -14.36397
 Alpha  occ. eigenvalues --  -10.28503 -10.28300 -10.28161 -10.27891 -10.24327
 Alpha  occ. eigenvalues --  -10.23898 -10.22567 -10.22432 -10.21542 -10.21520
 Alpha  occ. eigenvalues --  -10.21470 -10.21140 -10.20502 -10.20440 -10.20045
 Alpha  occ. eigenvalues --  -10.19786 -10.19665 -10.19512 -10.18983 -10.18884
 Alpha  occ. eigenvalues --  -10.18744 -10.18599 -10.18420 -10.18132 -10.18028
 Alpha  occ. eigenvalues --  -10.17402  -7.96689  -7.96130  -5.92997  -5.92612
 Alpha  occ. eigenvalues --   -5.92453  -5.92258  -5.92064  -5.91673  -1.07872
 Alpha  occ. eigenvalues --   -1.07610  -1.05987  -1.05726  -1.03946  -1.03567
 Alpha  occ. eigenvalues --   -0.94036  -0.93654  -0.89961  -0.89270  -0.87839
 Alpha  occ. eigenvalues --   -0.84151  -0.81826  -0.78893  -0.76679  -0.75854
 Alpha  occ. eigenvalues --   -0.75397  -0.74371  -0.73444  -0.72350  -0.70748
 Alpha  occ. eigenvalues --   -0.70427  -0.69374  -0.67519  -0.65210  -0.64032
 Alpha  occ. eigenvalues --   -0.63360  -0.62569  -0.59942  -0.58703  -0.56704
 Alpha  occ. eigenvalues --   -0.55780  -0.55440  -0.55074  -0.54068  -0.53236
 Alpha  occ. eigenvalues --   -0.51587  -0.49551  -0.49091  -0.48299  -0.47904
 Alpha  occ. eigenvalues --   -0.47852  -0.47807  -0.47448  -0.47194  -0.47140
 Alpha  occ. eigenvalues --   -0.46607  -0.45344  -0.45176  -0.44683  -0.44414
 Alpha  occ. eigenvalues --   -0.43959  -0.43164  -0.42963  -0.42423  -0.41718
 Alpha  occ. eigenvalues --   -0.41412  -0.41319  -0.41037  -0.40515  -0.40358
 Alpha  occ. eigenvalues --   -0.40291  -0.39914  -0.39564  -0.39188  -0.38704
 Alpha  occ. eigenvalues --   -0.37985  -0.37686  -0.37197  -0.36543  -0.35737
 Alpha  occ. eigenvalues --   -0.35192  -0.34782  -0.33686  -0.33434  -0.32496
 Alpha  occ. eigenvalues --   -0.32338  -0.30124  -0.29466  -0.29045  -0.28243
 Alpha  occ. eigenvalues --   -0.27988  -0.27187  -0.26974  -0.26345  -0.26221
 Alpha  occ. eigenvalues --   -0.24890  -0.24344  -0.23871  -0.19219  -0.15306
 Alpha virt. eigenvalues --   -0.07100  -0.05460  -0.03262  -0.02379  -0.00320
 Alpha virt. eigenvalues --    0.00419   0.00596   0.00767   0.00808   0.01549
 Alpha virt. eigenvalues --    0.01785   0.02129   0.02262   0.02633   0.02832

  Beta  occ. eigenvalues --  -88.88127 -88.87534 -19.16496 -19.16307 -19.09883
  Beta  occ. eigenvalues --  -19.09831 -19.09405 -19.09367 -14.36858 -14.36448
  Beta  occ. eigenvalues --  -10.28445 -10.28243 -10.28104 -10.27838 -10.24289
  Beta  occ. eigenvalues --  -10.23923 -10.22568 -10.22432 -10.21594 -10.21508
  Beta  occ. eigenvalues --  -10.21421 -10.21002 -10.20547 -10.20403 -10.20102
  Beta  occ. eigenvalues --  -10.19785 -10.19665 -10.19363 -10.18842 -10.18723
  Beta  occ. eigenvalues --  -10.18601 -10.18548 -10.18434 -10.18058 -10.17951
  Beta  occ. eigenvalues --  -10.17343  -7.96688  -7.96119  -5.92997  -5.92612
  Beta  occ. eigenvalues --   -5.92446  -5.92255  -5.92057  -5.91636  -1.07833
  Beta  occ. eigenvalues --   -1.07621  -1.05752  -1.05489  -1.03628  -1.03251
  Beta  occ. eigenvalues --   -0.93926  -0.93545  -0.89858  -0.89174  -0.87781
  Beta  occ. eigenvalues --   -0.83840  -0.81544  -0.78746  -0.76558  -0.75545
  Beta  occ. eigenvalues --   -0.75238  -0.74322  -0.73380  -0.72282  -0.70703
  Beta  occ. eigenvalues --   -0.70142  -0.69244  -0.67399  -0.65053  -0.63849
  Beta  occ. eigenvalues --   -0.63262  -0.62388  -0.59888  -0.58641  -0.56616
  Beta  occ. eigenvalues --   -0.55680  -0.55394  -0.54970  -0.54038  -0.53087
  Beta  occ. eigenvalues --   -0.51488  -0.49410  -0.48973  -0.48038  -0.47803
  Beta  occ. eigenvalues --   -0.47791  -0.47648  -0.47436  -0.47115  -0.47036
  Beta  occ. eigenvalues --   -0.46552  -0.45239  -0.45118  -0.44607  -0.44290
  Beta  occ. eigenvalues --   -0.43862  -0.42997  -0.42797  -0.42188  -0.41586
  Beta  occ. eigenvalues --   -0.41277  -0.41221  -0.40924  -0.40332  -0.39953
  Beta  occ. eigenvalues --   -0.39891  -0.39653  -0.39122  -0.38886  -0.38477
  Beta  occ. eigenvalues --   -0.37825  -0.37545  -0.36898  -0.36478  -0.35694
  Beta  occ. eigenvalues --   -0.35030  -0.34556  -0.33549  -0.33410  -0.32359
  Beta  occ. eigenvalues --   -0.31924  -0.29445  -0.29012  -0.28644  -0.28026
  Beta  occ. eigenvalues --   -0.27510  -0.26897  -0.26758  -0.26143  -0.25788
  Beta  occ. eigenvalues --   -0.24543  -0.24172  -0.22724  -0.18717
  Beta virt. eigenvalues --   -0.11130  -0.06514  -0.04503  -0.02346  -0.02194
  Beta virt. eigenvalues --   -0.00307   0.00428   0.00607   0.00788   0.01093
  Beta virt. eigenvalues --    0.01569   0.01799   0.02277   0.02602   0.02866

 Mulliken charges and spin densities:
               1          2
     1  C    0.353611   0.022566
     2  C   -0.041499   0.119195
     3  C    0.059452  -0.038761
     4  C    0.240019   0.094225
     5  C    0.279181   0.025568
     6  C   -0.061574   0.034785
     7  C    0.076511  -0.021571
     8  C    0.390473   0.115310
     9  C    0.151173   0.081200
    10  C   -0.573010   0.017390
    11  C    0.289601   0.027044
    12  C    0.148882   0.089328
    13  C   -0.493244   0.057989
    14  C   -0.627749   0.063705
    15  H    0.144147  -0.004033
    16  H    0.145423  -0.003932
    17  H    0.147749  -0.001646
    18  N   -0.025182  -0.021761
    19  N   -0.130163  -0.021528
    20  O   -0.427961   0.070081
    21  O   -0.415260   0.066412
    22  O   -0.436419   0.063464
    23  O   -0.398217   0.072547
    24  C   -0.178053   0.001716
    25  H    0.176743  -0.001179
    26  H    0.172947  -0.000601
    27  H    0.173241  -0.000444
    28  C   -0.207011   0.001106
    29  H    0.173815  -0.000940
    30  H    0.171664  -0.000891
    31  H    0.173920  -0.000311
    32  C   -0.173042  -0.060253
    33  C   -0.084771   0.070130
    34  S   -0.749556   0.013555
    35  C   -0.337021  -0.009470
    36  H    0.185580  -0.002244
    37  C    0.602062   0.055207
    38  O   -0.170179  -0.000647
    39  C    0.740626  -0.016464
    40  C   -0.240083   0.000247
    41  C    0.005368   0.025398
    42  S   -0.212471  -0.000389
    43  H    0.175531   0.000000
    44  H    0.159763  -0.000192
    45  H    0.161304  -0.000223
    46  C   -0.589468  -0.010568
    47  O   -0.161181   0.004125
    48  C   -0.354091   0.026305
    49  H    0.159967   0.000480
    50  C   -0.252456  -0.000183
    51  H    0.188163  -0.001575
    52  H    0.159537   0.000355
    53  H    0.173822  -0.000016
    54  H    0.159385   0.000389
 Sum of Mulliken charges =  -1.00000   1.00000

 Dipole moment (field-independent basis, Debye):
    X=             15.8705    Y=             -0.7578    Z=             -1.1438  Tot=             15.9297
 Quadrupole moment (field-independent basis, Debye-Ang):
   XX=           -290.4029   YY=           -242.9144   ZZ=           -234.6554
   XY=             -9.0450   XZ=            -12.2620   YZ=              1.6430

 Normal termination of Gaussian 16 at Thu Oct 28 09:10:01 2021.
