 Gaussian 16, Revision C.01,
 Gaussian 16:  ES64L-G16RevC.01  3-Jul-2019

 ---------------------------------------------------------------
 # opt=modredundant b3lyp/6-311+g(d,p) scrf=(pcm, solvent=water)
 ---------------------------------------------------------------

 ----------
 NDI_70.pdb
 ----------
 Symbolic Z-matrix:
 Charge = -1 Multiplicity = 2

 SCF Done:  E(UB3LYP) =  -2359.49418394     A.U. after   21 cycles
 SCF Done:  E(UB3LYP) =  -2359.50103267     A.U. after   16 cycles
 SCF Done:  E(UB3LYP) =  -2359.50273130     A.U. after   19 cycles
 SCF Done:  E(UB3LYP) =  -2359.50302042     A.U. after   19 cycles
 SCF Done:  E(UB3LYP) =  -2359.50340430     A.U. after   14 cycles
 SCF Done:  E(UB3LYP) =  -2359.50352741     A.U. after   14 cycles
 SCF Done:  E(UB3LYP) =  -2359.50356011     A.U. after   13 cycles
 SCF Done:  E(UB3LYP) =  -2359.50357774     A.U. after   11 cycles
 SCF Done:  E(UB3LYP) =  -2359.50359529     A.U. after   13 cycles
 SCF Done:  E(UB3LYP) =  -2359.50360840     A.U. after   12 cycles
 SCF Done:  E(UB3LYP) =  -2359.50364844     A.U. after    9 cycles
 SCF Done:  E(UB3LYP) =  -2359.50364938     A.U. after   10 cycles
 SCF Done:  E(UB3LYP) =  -2359.50365018     A.U. after   10 cycles
 SCF Done:  E(UB3LYP) =  -2359.50365066     A.U. after   11 cycles
 SCF Done:  E(UB3LYP) =  -2359.50365091     A.U. after    9 cycles
 SCF Done:  E(UB3LYP) =  -2359.50365114     A.U. after    9 cycles
 SCF Done:  E(UB3LYP) =  -2359.50365146     A.U. after    9 cycles
 SCF Done:  E(UB3LYP) =  -2359.50365165     A.U. after    9 cycles
 SCF Done:  E(UB3LYP) =  -2359.50365172     A.U. after    8 cycles
 SCF Done:  E(UB3LYP) =  -2359.50365176     A.U. after    8 cycles
 Optimization completed.
    -- Stationary point found.

                         Standard orientation:
 ---------------------------------------------------------------------
 Center     Atomic      Atomic             Coordinates (Angstroms)
 Number     Number       Type             X           Y           Z
 ---------------------------------------------------------------------
      1          6           0       -3.019346   -2.869724    0.526096
      2          6           0       -2.509597   -1.522817    0.306766
      3          6           0       -3.402183   -0.460073    0.039421
      4          6           0       -4.798516   -0.681683   -0.013478
      5          6           0       -5.338741   -2.018441    0.208492
      6          6           0       -1.132829   -1.271508    0.392595
      7          6           0       -2.873484    0.853796   -0.185974
      8          6           0       -1.467778    1.076684   -0.141259
      9          6           0       -0.596966   -0.002497    0.201258
     10          6           0       -0.960864    2.397149   -0.514595
     11          6           0       -3.296671    3.257016   -0.703849
     12          6           0       -3.783158    1.906445   -0.459632
     13          6           0       -5.169781    1.657745   -0.501357
     14          6           0       -5.670778    0.390499   -0.283560
     15          1           0       -6.735766    0.201394   -0.319511
     16          1           0       -5.834357    2.485785   -0.711345
     17          1           0       -0.476708   -2.092195    0.652485
     18          7           0       -1.908102    3.421658   -0.703128
     19          7           0       -4.408573   -3.039813    0.465374
     20          8           0       -2.297495   -3.847580    0.759111
     21          8           0       -6.549552   -2.270112    0.176819
     22          8           0       -4.045274    4.220175   -0.915900
     23          8           0        0.230747    2.668650   -0.686609
     24          6           0       -1.366482    4.752614   -1.002222
     25          1           0       -0.593581    5.002190   -0.277176
     26          1           0       -0.924121    4.770478   -2.000372
     27          1           0       -2.181841    5.466421   -0.950824
     28          6           0       -4.906309   -4.401956    0.690940
     29          1           0       -4.505737   -5.076146   -0.067085
     30          1           0       -4.588944   -4.755945    1.672184
     31          1           0       -5.989224   -4.378118    0.633601
     32          6           0        0.857930    0.152782    0.425261
     33          6           0        1.496693    0.775128    1.463054
     34         16           0        1.998817   -0.630754   -0.635346
     35          6           0        2.911982    0.644392    1.403329
     36          1           0        0.967407    1.312345    2.236538
     37          6           0        3.377616   -0.090096    0.321925
     38          8           0        3.801281    1.156202    2.300695
     39          6           0        4.742950   -0.400246   -0.029468
     40          6           0        3.289007    1.951816    3.374163
     41          6           0        5.205346   -1.148145   -1.103967
     42         16           0        6.120224    0.170290    0.911467
     43          1           0        4.156460    2.270582    3.948681
     44          1           0        2.759432    2.829382    2.993206
     45          1           0        2.623273    1.365679    4.013711
     46          6           0        6.624894   -1.261188   -1.173097
     47          8           0        4.313267   -1.694882   -1.977761
     48          6           0        7.246323   -0.600187   -0.152250
     49          1           0        7.157442   -1.804787   -1.939919
     50          6           0        4.829268   -2.463753   -3.068490
     51          1           0        8.305010   -0.521067    0.041740
     52          1           0        5.389484   -3.330527   -2.706815
     53          1           0        3.961539   -2.801069   -3.631816
     54          1           0        5.467340   -1.852047   -3.712409
 ---------------------------------------------------------------------

 The electronic state is 2-A.
 Alpha  occ. eigenvalues --  -88.87927 -88.87643 -19.16252 -19.16228 -19.09904
 Alpha  occ. eigenvalues --  -19.09887 -19.09704 -19.09576 -14.36726 -14.36487
 Alpha  occ. eigenvalues --  -10.28352 -10.28173 -10.28157 -10.28105 -10.23919
 Alpha  occ. eigenvalues --  -10.23859 -10.22463 -10.22435 -10.21254 -10.21038
 Alpha  occ. eigenvalues --  -10.20970 -10.20483 -10.20479 -10.20262 -10.20135
 Alpha  occ. eigenvalues --  -10.19736 -10.19623 -10.19572 -10.18943 -10.18922
 Alpha  occ. eigenvalues --  -10.18890 -10.18496 -10.18251 -10.18231 -10.18169
 Alpha  occ. eigenvalues --  -10.17669  -7.96490  -7.96205  -5.92798  -5.92523
 Alpha  occ. eigenvalues --   -5.92414  -5.92138  -5.92060  -5.91754  -1.07576
 Alpha  occ. eigenvalues --   -1.07490  -1.05840  -1.05742  -1.03779  -1.03657
 Alpha  occ. eigenvalues --   -0.93930  -0.93671  -0.89942  -0.89178  -0.87771
 Alpha  occ. eigenvalues --   -0.84180  -0.81887  -0.78726  -0.76396  -0.75866
 Alpha  occ. eigenvalues --   -0.75312  -0.74327  -0.73446  -0.72180  -0.70749
 Alpha  occ. eigenvalues --   -0.70249  -0.69324  -0.67498  -0.65132  -0.64058
 Alpha  occ. eigenvalues --   -0.63176  -0.62626  -0.59774  -0.58545  -0.56660
 Alpha  occ. eigenvalues --   -0.55656  -0.55281  -0.55002  -0.53903  -0.53097
 Alpha  occ. eigenvalues --   -0.51556  -0.49516  -0.48998  -0.48246  -0.47900
 Alpha  occ. eigenvalues --   -0.47775  -0.47686  -0.47363  -0.47224  -0.46992
 Alpha  occ. eigenvalues --   -0.46566  -0.45152  -0.45016  -0.44707  -0.44456
 Alpha  occ. eigenvalues --   -0.43994  -0.43218  -0.42873  -0.42477  -0.42134
 Alpha  occ. eigenvalues --   -0.41291  -0.40955  -0.40826  -0.40429  -0.40382
 Alpha  occ. eigenvalues --   -0.40230  -0.39871  -0.39602  -0.39131  -0.38415
 Alpha  occ. eigenvalues --   -0.38102  -0.37609  -0.37233  -0.36860  -0.35602
 Alpha  occ. eigenvalues --   -0.34862  -0.33926  -0.33545  -0.33190  -0.32931
 Alpha  occ. eigenvalues --   -0.32738  -0.30077  -0.29270  -0.28734  -0.28157
 Alpha  occ. eigenvalues --   -0.27872  -0.27401  -0.26834  -0.26517  -0.26149
 Alpha  occ. eigenvalues --   -0.24460  -0.24217  -0.24156  -0.18840  -0.15578
 Alpha virt. eigenvalues --   -0.05906  -0.04804  -0.03633  -0.02886  -0.00287
 Alpha virt. eigenvalues --   -0.00047   0.00343   0.00813   0.00909   0.01123
 Alpha virt. eigenvalues --    0.01588   0.02270   0.02411   0.02437   0.02573

  Beta  occ. eigenvalues --  -88.87927 -88.87640 -19.16249 -19.16229 -19.09709
  Beta  occ. eigenvalues --  -19.09686 -19.09516 -19.09367 -14.36782 -14.36541
  Beta  occ. eigenvalues --  -10.28290 -10.28113 -10.28103 -10.28047 -10.23913
  Beta  occ. eigenvalues --  -10.23866 -10.22463 -10.22434 -10.21258 -10.21054
  Beta  occ. eigenvalues --  -10.20953 -10.20534 -10.20382 -10.20317 -10.20129
  Beta  occ. eigenvalues --  -10.19735 -10.19622 -10.19397 -10.18787 -10.18753
  Beta  occ. eigenvalues --  -10.18728 -10.18426 -10.18253 -10.18145 -10.18085
  Beta  occ. eigenvalues --  -10.17649  -7.96490  -7.96201  -5.92798  -5.92518
  Beta  occ. eigenvalues --   -5.92414  -5.92134  -5.92059  -5.91751  -1.07573
  Beta  occ. eigenvalues --   -1.07489  -1.05587  -1.05490  -1.03436  -1.03316
  Beta  occ. eigenvalues --   -0.93809  -0.93556  -0.89834  -0.89109  -0.87734
  Beta  occ. eigenvalues --   -0.83859  -0.81579  -0.78594  -0.76287  -0.75497
  Beta  occ. eigenvalues --   -0.75178  -0.74307  -0.73374  -0.72138  -0.70707
  Beta  occ. eigenvalues --   -0.69928  -0.69191  -0.67397  -0.64979  -0.63856
  Beta  occ. eigenvalues --   -0.63092  -0.62429  -0.59737  -0.58491  -0.56574
  Beta  occ. eigenvalues --   -0.55526  -0.55272  -0.54893  -0.53895  -0.52947
  Beta  occ. eigenvalues --   -0.51436  -0.49357  -0.48922  -0.47968  -0.47728
  Beta  occ. eigenvalues --   -0.47674  -0.47621  -0.47356  -0.47157  -0.46870
  Beta  occ. eigenvalues --   -0.46525  -0.45098  -0.44891  -0.44657  -0.44338
  Beta  occ. eigenvalues --   -0.43894  -0.43041  -0.42699  -0.42318  -0.41888
  Beta  occ. eigenvalues --   -0.41235  -0.40914  -0.40746  -0.40182  -0.39943
  Beta  occ. eigenvalues --   -0.39819  -0.39460  -0.39089  -0.38726  -0.38285
  Beta  occ. eigenvalues --   -0.38064  -0.37419  -0.36936  -0.36801  -0.35591
  Beta  occ. eigenvalues --   -0.34772  -0.33767  -0.33403  -0.33129  -0.32905
  Beta  occ. eigenvalues --   -0.32126  -0.29182  -0.28954  -0.28536  -0.27702
  Beta  occ. eigenvalues --   -0.27514  -0.27075  -0.26620  -0.25991  -0.25908
  Beta  occ. eigenvalues --   -0.24337  -0.24108  -0.22750  -0.18751
  Beta virt. eigenvalues --   -0.11038  -0.05052  -0.04343  -0.02899  -0.02262
  Beta virt. eigenvalues --   -0.00270  -0.00001   0.00356   0.00820   0.00920
  Beta virt. eigenvalues --    0.01155   0.01598   0.02378   0.02478   0.02803

 Mulliken charges and spin densities:
               1          2
     1  C    0.447984   0.026317
     2  C   -0.098261   0.120718
     3  C    0.142173  -0.038096
     4  C    0.177011   0.108166
     5  C    0.274256   0.026745
     6  C   -0.531756   0.060011
     7  C    0.196176  -0.034825
     8  C    0.092524   0.126941
     9  C    0.510950   0.067542
    10  C   -0.415698   0.028282
    11  C    0.242814   0.025671
    12  C    0.132167   0.109012
    13  C   -0.513606   0.061679
    14  C   -0.636558   0.066462
    15  H    0.144181  -0.004606
    16  H    0.144594  -0.004307
    17  H    0.145000  -0.003460
    18  N   -0.121649  -0.022654
    19  N   -0.138436  -0.023514
    20  O   -0.430107   0.075087
    21  O   -0.419262   0.072748
    22  O   -0.425002   0.070121
    23  O   -0.280134   0.078152
    24  C   -0.213467   0.001338
    25  H    0.171892  -0.000750
    26  H    0.176668  -0.001158
    27  H    0.174351  -0.000374
    28  C   -0.208271   0.001322
    29  H    0.172024  -0.001010
    30  H    0.171842  -0.000980
    31  H    0.173926  -0.000345
    32  C    0.113165  -0.026465
    33  C   -0.518518   0.013258
    34  S   -0.333780   0.006967
    35  C   -0.191489  -0.003230
    36  H    0.143833  -0.000939
    37  C    0.466357   0.017013
    38  O   -0.173271  -0.000315
    39  C    0.719700  -0.003906
    40  C   -0.234507   0.000357
    41  C    0.002614   0.003775
    42  S   -0.249707   0.000148
    43  H    0.173637  -0.000010
    44  H    0.163538  -0.000041
    45  H    0.159702  -0.000040
    46  C   -0.554958  -0.002414
    47  O   -0.171358   0.001156
    48  C   -0.356229   0.004462
    49  H    0.158591   0.000085
    50  C   -0.249115   0.000054
    51  H    0.185567  -0.000265
    52  H    0.157656   0.000046
    53  H    0.171910   0.000011
    54  H    0.158334   0.000059
 Sum of Mulliken charges =  -1.00000   1.00000

 Dipole moment (field-independent basis, Debye):
    X=             14.2661    Y=             -0.7036    Z=              1.0041  Tot=             14.3186
 Quadrupole moment (field-independent basis, Debye-Ang):
   XX=           -299.5171   YY=           -264.0119   ZZ=           -209.7833
   XY=             -6.1495   XZ=            -11.6788   YZ=             24.8900

 Normal termination of Gaussian 16 at Thu Oct 28 07:52:00 2021.
