 Gaussian 16, Revision C.01,
 Gaussian 16:  ES64L-G16RevC.01  3-Jul-2019

 ---------------------------------------------------------------
 # opt=modredundant b3lyp/6-311+g(d,p) scrf=(pcm, solvent=water)
 ---------------------------------------------------------------

 ----------
 NDI_35.pdb
 ----------
 Symbolic Z-matrix:
 Charge = -1 Multiplicity = 2

 SCF Done:  E(UB3LYP) =  -2359.49019691     A.U. after   21 cycles
 SCF Done:  E(UB3LYP) =  -2359.48590081     A.U. after   21 cycles
 SCF Done:  E(UB3LYP) =  -2359.49547693     A.U. after   17 cycles
 SCF Done:  E(UB3LYP) =  -2359.49868487     A.U. after   20 cycles
 SCF Done:  E(UB3LYP) =  -2359.49999668     A.U. after   20 cycles
 SCF Done:  E(UB3LYP) =  -2359.50135447     A.U. after   21 cycles
 SCF Done:  E(UB3LYP) =  -2359.50258130     A.U. after   21 cycles
 SCF Done:  E(UB3LYP) =  -2359.50257719     A.U. after   21 cycles
 SCF Done:  E(UB3LYP) =  -2359.50315391     A.U. after   21 cycles
 SCF Done:  E(UB3LYP) =  -2359.50316020     A.U. after   17 cycles
 SCF Done:  E(UB3LYP) =  -2359.50334410     A.U. after   13 cycles
 SCF Done:  E(UB3LYP) =  -2359.50334610     A.U. after   11 cycles
 SCF Done:  E(UB3LYP) =  -2359.50334776     A.U. after   13 cycles
 SCF Done:  E(UB3LYP) =  -2359.50334928     A.U. after   13 cycles
 SCF Done:  E(UB3LYP) =  -2359.50334937     A.U. after    8 cycles
 SCF Done:  E(UB3LYP) =  -2359.50334953     A.U. after    9 cycles
 SCF Done:  E(UB3LYP) =  -2359.50334968     A.U. after   10 cycles
 SCF Done:  E(UB3LYP) =  -2359.50334971     A.U. after    9 cycles
 SCF Done:  E(UB3LYP) =  -2359.50334974     A.U. after    8 cycles
 SCF Done:  E(UB3LYP) =  -2359.50334975     A.U. after    8 cycles
 Optimization completed.
    -- Stationary point found.

                         Standard orientation:
 ---------------------------------------------------------------------
 Center     Atomic      Atomic             Coordinates (Angstroms)
 Number     Number       Type             X           Y           Z
 ---------------------------------------------------------------------
      1          6           0       -2.760321   -2.975115    0.347955
      2          6           0       -2.367719   -1.585014    0.154556
      3          6           0       -3.352036   -0.572798    0.071631
      4          6           0       -4.725166   -0.886877    0.181697
      5          6           0       -5.148592   -2.269897    0.380242
      6          6           0       -1.012795   -1.242480    0.119165
      7          6           0       -2.933804    0.783058   -0.135406
      8          6           0       -1.549500    1.099550   -0.259109
      9          6           0       -0.569179    0.070081   -0.054772
     10          6           0       -1.201882    2.438438   -0.733376
     11          6           0       -3.571755    3.170253   -0.470922
     12          6           0       -3.936620    1.781437   -0.231587
     13          6           0       -5.298791    1.442519   -0.105196
     14          6           0       -5.690518    0.135331    0.097833
     15          1           0       -6.737269   -0.123837    0.188587
     16          1           0       -6.033035    2.234514   -0.177275
     17          1           0       -0.293128   -2.031399    0.295051
     18          7           0       -2.215801    3.418240   -0.692296
     19          7           0       -4.133228   -3.239255    0.437458
     20          8           0       -1.954724   -3.910174    0.434021
     21          8           0       -6.334678   -2.601359    0.492079
     22          8           0       -4.395052    4.094851   -0.508624
     23          8           0       -0.099425    2.764146   -1.183713
     24          6           0       -1.817396    4.786411   -1.043049
     25          1           0       -0.854452    5.006218   -0.588082
     26          1           0       -1.725002    4.898996   -2.126152
     27          1           0       -2.580056    5.465747   -0.675565
     28          6           0       -4.514220   -4.644614    0.622164
     29          1           0       -4.071728   -5.252244   -0.166736
     30          1           0       -4.153162   -5.009621    1.585127
     31          1           0       -5.596417   -4.708162    0.585470
     32          6           0        0.863440    0.320106    0.141516
     33          6           0        1.488007    1.358829    0.788586
     34         16           0        2.044934   -0.830776   -0.453761
     35          6           0        2.897455    1.226951    0.833024
     36          1           0        0.947935    2.182944    1.227487
     37          6           0        3.393038    0.091548    0.200855
     38          8           0        3.764884    2.091598    1.429433
     39          6           0        4.765053   -0.325597    0.060355
     40          6           0        3.224589    3.258077    2.058598
     41          6           0        5.258227   -1.460085   -0.573346
     42         16           0        6.114855    0.605421    0.709283
     43          1           0        4.078148    3.805047    2.453934
     44          1           0        2.692754    3.882207    1.335354
     45          1           0        2.553599    2.985617    2.877925
     46          6           0        6.677694   -1.580732   -0.538802
     47          8           0        4.392770   -2.334356   -1.157196
     48          6           0        7.268769   -0.539701    0.119091
     49          1           0        7.232023   -2.396747   -0.979093
     50          6           0        4.938481   -3.492515   -1.797091
     51          1           0        8.321109   -0.376210    0.294075
     52          1           0        5.481953   -4.115822   -1.081671
     53          1           0        4.086713   -4.045482   -2.187750
     54          1           0        5.599641   -3.209616   -2.620846
 ---------------------------------------------------------------------

 The electronic state is 2-A.
 Alpha  occ. eigenvalues --  -88.88029 -88.87710 -19.16399 -19.16315 -19.09969
 Alpha  occ. eigenvalues --  -19.09926 -19.09608 -19.09436 -14.36751 -14.36371
 Alpha  occ. eigenvalues --  -10.28409 -10.28212 -10.28082 -10.27974 -10.24119
 Alpha  occ. eigenvalues --  -10.23990 -10.22523 -10.22471 -10.21381 -10.21311
 Alpha  occ. eigenvalues --  -10.21082 -10.20638 -10.20439 -10.20285 -10.20138
 Alpha  occ. eigenvalues --  -10.19755 -10.19629 -10.19352 -10.18948 -10.18895
 Alpha  occ. eigenvalues --  -10.18779 -10.18526 -10.18338 -10.18163 -10.18086
 Alpha  occ. eigenvalues --  -10.17790  -7.96591  -7.96279  -5.92900  -5.92595
 Alpha  occ. eigenvalues --   -5.92515  -5.92213  -5.92161  -5.91832  -1.07735
 Alpha  occ. eigenvalues --   -1.07614  -1.05892  -1.05634  -1.03840  -1.03534
 Alpha  occ. eigenvalues --   -0.93958  -0.93582  -0.89984  -0.89222  -0.87860
 Alpha  occ. eigenvalues --   -0.84152  -0.81829  -0.78828  -0.76557  -0.75829
 Alpha  occ. eigenvalues --   -0.75354  -0.74433  -0.73419  -0.72293  -0.70729
 Alpha  occ. eigenvalues --   -0.70335  -0.69346  -0.67532  -0.65118  -0.64006
 Alpha  occ. eigenvalues --   -0.63263  -0.62561  -0.59855  -0.58647  -0.56635
 Alpha  occ. eigenvalues --   -0.55686  -0.55384  -0.55036  -0.54016  -0.53144
 Alpha  occ. eigenvalues --   -0.51568  -0.49527  -0.48978  -0.48226  -0.47877
 Alpha  occ. eigenvalues --   -0.47787  -0.47725  -0.47445  -0.47228  -0.47028
 Alpha  occ. eigenvalues --   -0.46548  -0.45238  -0.45080  -0.44666  -0.44383
 Alpha  occ. eigenvalues --   -0.43917  -0.43142  -0.42898  -0.42314  -0.42067
 Alpha  occ. eigenvalues --   -0.41443  -0.41134  -0.40965  -0.40522  -0.40305
 Alpha  occ. eigenvalues --   -0.40180  -0.39859  -0.39447  -0.39085  -0.38774
 Alpha  occ. eigenvalues --   -0.38147  -0.37651  -0.37137  -0.36782  -0.35745
 Alpha  occ. eigenvalues --   -0.34942  -0.34499  -0.33586  -0.33369  -0.32970
 Alpha  occ. eigenvalues --   -0.32506  -0.30105  -0.29388  -0.28884  -0.28149
 Alpha  occ. eigenvalues --   -0.27970  -0.27278  -0.26903  -0.26361  -0.26169
 Alpha  occ. eigenvalues --   -0.24604  -0.24287  -0.23849  -0.19037  -0.15407
 Alpha virt. eigenvalues --   -0.06429  -0.05292  -0.03290  -0.02561  -0.00290
 Alpha virt. eigenvalues --    0.00269   0.00402   0.00654   0.00874   0.01348
 Alpha virt. eigenvalues --    0.01742   0.02266   0.02369   0.02512   0.02728

  Beta  occ. eigenvalues --  -88.88029 -88.87703 -19.16385 -19.16320 -19.09782
  Beta  occ. eigenvalues --  -19.09731 -19.09430 -19.09248 -14.36805 -14.36423
  Beta  occ. eigenvalues --  -10.28349 -10.28153 -10.28025 -10.27919 -10.24092
  Beta  occ. eigenvalues --  -10.24011 -10.22523 -10.22471 -10.21395 -10.21252
  Beta  occ. eigenvalues --  -10.21123 -10.20528 -10.20489 -10.20259 -10.20194
  Beta  occ. eigenvalues --  -10.19754 -10.19628 -10.19193 -10.18800 -10.18728
  Beta  occ. eigenvalues --  -10.18627 -10.18465 -10.18348 -10.18084 -10.18004
  Beta  occ. eigenvalues --  -10.17744  -7.96590  -7.96272  -5.92899  -5.92591
  Beta  occ. eigenvalues --   -5.92515  -5.92209  -5.92158  -5.91810  -1.07714
  Beta  occ. eigenvalues --   -1.07618  -1.05647  -1.05401  -1.03508  -1.03217
  Beta  occ. eigenvalues --   -0.93843  -0.93475  -0.89886  -0.89132  -0.87813
  Beta  occ. eigenvalues --   -0.83841  -0.81536  -0.78689  -0.76442  -0.75499
  Beta  occ. eigenvalues --   -0.75202  -0.74398  -0.73351  -0.72235  -0.70683
  Beta  occ. eigenvalues --   -0.70053  -0.69196  -0.67417  -0.64964  -0.63813
  Beta  occ. eigenvalues --   -0.63176  -0.62368  -0.59808  -0.58588  -0.56550
  Beta  occ. eigenvalues --   -0.55575  -0.55354  -0.54928  -0.53997  -0.52994
  Beta  occ. eigenvalues --   -0.51462  -0.49387  -0.48873  -0.47962  -0.47777
  Beta  occ. eigenvalues --   -0.47725  -0.47567  -0.47429  -0.47162  -0.46907
  Beta  occ. eigenvalues --   -0.46498  -0.45186  -0.44989  -0.44580  -0.44256
  Beta  occ. eigenvalues --   -0.43832  -0.42962  -0.42725  -0.42109  -0.41918
  Beta  occ. eigenvalues --   -0.41347  -0.41046  -0.40871  -0.40253  -0.39900
  Beta  occ. eigenvalues --   -0.39861  -0.39442  -0.39084  -0.38606  -0.38572
  Beta  occ. eigenvalues --   -0.38092  -0.37497  -0.36828  -0.36739  -0.35723
  Beta  occ. eigenvalues --   -0.34845  -0.34240  -0.33447  -0.33345  -0.32948
  Beta  occ. eigenvalues --   -0.31982  -0.29404  -0.28925  -0.28570  -0.27833
  Beta  occ. eigenvalues --   -0.27498  -0.26978  -0.26693  -0.26086  -0.25793
  Beta  occ. eigenvalues --   -0.24336  -0.24053  -0.22681  -0.18682
  Beta virt. eigenvalues --   -0.11120  -0.05838  -0.04397  -0.02470  -0.02245
  Beta virt. eigenvalues --   -0.00274   0.00410   0.00448   0.00660   0.00916
  Beta virt. eigenvalues --    0.01383   0.01757   0.02335   0.02583   0.02755

 Mulliken charges and spin densities:
               1          2
     1  C    0.366289   0.027005
     2  C   -0.164132   0.116727
     3  C    0.124878  -0.036403
     4  C    0.197335   0.101154
     5  C    0.264035   0.026089
     6  C   -0.289928   0.049943
     7  C    0.197920  -0.029913
     8  C    0.417461   0.117379
     9  C    0.347099   0.077031
    10  C   -0.606436   0.024448
    11  C    0.268913   0.025452
    12  C    0.086469   0.099492
    13  C   -0.490384   0.059421
    14  C   -0.604286   0.063246
    15  H    0.144217  -0.004284
    16  H    0.144471  -0.004139
    17  H    0.152359  -0.002489
    18  N   -0.036159  -0.021841
    19  N   -0.133372  -0.022759
    20  O   -0.434124   0.072996
    21  O   -0.416815   0.069589
    22  O   -0.430854   0.066315
    23  O   -0.335643   0.070260
    24  C   -0.193188   0.001385
    25  H    0.171742  -0.000520
    26  H    0.177217  -0.001188
    27  H    0.172890  -0.000445
    28  C   -0.211145   0.001192
    29  H    0.169803  -0.000867
    30  H    0.174959  -0.001042
    31  H    0.173764  -0.000333
    32  C    0.060238  -0.035216
    33  C   -0.534188   0.032029
    34  S   -0.606601   0.015215
    35  C   -0.324366  -0.010822
    36  H    0.155960  -0.002413
    37  C    0.692844   0.039843
    38  O   -0.163233  -0.000640
    39  C    0.785263  -0.012176
    40  C   -0.238960   0.000104
    41  C    0.019451   0.018199
    42  S   -0.229789  -0.000136
    43  H    0.174977  -0.000004
    44  H    0.162242  -0.000220
    45  H    0.161114  -0.000128
    46  C   -0.612590  -0.007520
    47  O   -0.164699   0.002919
    48  C   -0.328672   0.018459
    49  H    0.159545   0.000339
    50  C   -0.251338  -0.000123
    51  H    0.186926  -0.001100
    52  H    0.159090   0.000252
    53  H    0.172866  -0.000006
    54  H    0.158562   0.000241
 Sum of Mulliken charges =  -1.00000   1.00000

 Dipole moment (field-independent basis, Debye):
    X=             15.2266    Y=             -0.5285    Z=              1.2786  Tot=             15.2893
 Quadrupole moment (field-independent basis, Debye-Ang):
   XX=           -295.6060   YY=           -250.8364   ZZ=           -224.4607
   XY=             -8.7307   XZ=             -2.0573   YZ=             21.9562

 Normal termination of Gaussian 16 at Thu Oct 28 11:51:50 2021.
