 Gaussian 16, Revision C.01,
 Gaussian 16:  ES64L-G16RevC.01  3-Jul-2019

 ---------------------------------------------------------------
 # opt=modredundant b3lyp/6-311+g(d,p) scrf=(pcm, solvent=water)
 ---------------------------------------------------------------

 -----------
 NDI_-20.pdb
 -----------
 Symbolic Z-matrix:
 Charge = -1 Multiplicity = 2

 SCF Done:  E(UB3LYP) =  -2359.49033664     A.U. after   23 cycles
 SCF Done:  E(UB3LYP) =  -2359.48081718     A.U. after   23 cycles
 SCF Done:  E(UB3LYP) =  -2359.49499174     A.U. after   18 cycles
 SCF Done:  E(UB3LYP) =  -2359.49808750     A.U. after   21 cycles
 SCF Done:  E(UB3LYP) =  -2359.50042402     A.U. after   21 cycles
 SCF Done:  E(UB3LYP) =  -2359.50091094     A.U. after   21 cycles
 SCF Done:  E(UB3LYP) =  -2359.50133872     A.U. after   20 cycles
 SCF Done:  E(UB3LYP) =  -2359.50155069     A.U. after   16 cycles
 SCF Done:  E(UB3LYP) =  -2359.50156831     A.U. after   16 cycles
 SCF Done:  E(UB3LYP) =  -2359.50158663     A.U. after   16 cycles
 SCF Done:  E(UB3LYP) =  -2359.50168604     A.U. after   14 cycles
 SCF Done:  E(UB3LYP) =  -2359.50168717     A.U. after   14 cycles
 SCF Done:  E(UB3LYP) =  -2359.50168887     A.U. after   14 cycles
 SCF Done:  E(UB3LYP) =  -2359.50169096     A.U. after   14 cycles
 SCF Done:  E(UB3LYP) =  -2359.50169371     A.U. after   11 cycles
 SCF Done:  E(UB3LYP) =  -2359.50169467     A.U. after   14 cycles
 SCF Done:  E(UB3LYP) =  -2359.50169474     A.U. after   11 cycles
 SCF Done:  E(UB3LYP) =  -2359.50169475     A.U. after   10 cycles
 SCF Done:  E(UB3LYP) =  -2359.50169480     A.U. after    8 cycles
 SCF Done:  E(UB3LYP) =  -2359.50169482     A.U. after    8 cycles
 Optimization completed.
    -- Stationary point found.

                         Standard orientation:
 ---------------------------------------------------------------------
 Center     Atomic      Atomic             Coordinates (Angstroms)
 Number     Number       Type             X           Y           Z
 ---------------------------------------------------------------------
      1          6           0        2.668059   -3.008948    0.174318
      2          6           0        2.319204   -1.599867    0.040783
      3          6           0        3.329836   -0.610678    0.067609
      4          6           0        4.686206   -0.965760    0.233256
      5          6           0        5.066013   -2.368895    0.375405
      6          6           0        0.977947   -1.220973   -0.033632
      7          6           0        2.951378    0.763221   -0.087915
      8          6           0        1.582748    1.121157   -0.268890
      9          6           0        0.562960    0.108978   -0.158626
     10          6           0        1.307182    2.480942   -0.726807
     11          6           0        3.664567    3.146682   -0.265982
     12          6           0        3.981763    1.738716   -0.076956
     13          6           0        5.326615    1.359063    0.106670
     14          6           0        5.678188    0.033868    0.259047
     15          1           0        6.712242   -0.256163    0.392030
     16          1           0        6.080771    2.135389    0.117369
     17          1           0        0.241110   -2.006437    0.073704
     18          7           0        2.333840    3.435762   -0.569694
     19          7           0        4.027038   -3.313394    0.324863
     20          8           0        1.837582   -3.925567    0.161490
     21          8           0        6.236260   -2.736392    0.529560
     22          8           0        4.507218    4.052339   -0.199246
     23          8           0        0.255108    2.848046   -1.260048
     24          6           0        1.989807    4.824830   -0.894509
     25          1           0        1.986817    4.982376   -1.975931
     26          1           0        0.997520    5.046905   -0.509038
     27          1           0        2.732676    5.472425   -0.439514
     28          6           0        4.364185   -4.736337    0.452420
     29          1           0        3.923213   -5.147260    1.361944
     30          1           0        3.971077   -5.286317   -0.402410
     31          1           0        5.444534   -4.824467    0.492595
     32          6           0       -0.864528    0.375009    0.040223
     33          6           0       -1.501562    1.497873    0.518163
     34         16           0       -2.050289   -0.857456   -0.377845
     35          6           0       -2.907997    1.364266    0.591650
     36          1           0       -0.973800    2.385438    0.824119
     37          6           0       -3.399422    0.143746    0.140525
     38          8           0       -3.778760    2.303940    1.053641
     39          6           0       -4.767895   -0.299907    0.081397
     40          6           0       -3.243367    3.549494    1.512697
     41          6           0       -5.258009   -1.520111   -0.370782
     42         16           0       -6.118538    0.705580    0.606555
     43          1           0       -4.099593    4.143648    1.825503
     44          1           0       -2.573004    3.397527    2.363080
     45          1           0       -2.712219    4.066918    0.709273
     46          6           0       -6.675285   -1.645757   -0.297490
     47          8           0       -4.392032   -2.463741   -0.831102
     48          6           0       -7.267782   -0.523711    0.208703
     49          1           0       -7.227273   -2.522076   -0.604596
     50          6           0       -4.934159   -3.708910   -1.283706
     51          1           0       -8.319428   -0.344824    0.372585
     52          1           0       -5.608286   -3.557184   -2.131129
     53          1           0       -4.081774   -4.306998   -1.599189
     54          1           0       -5.462431   -4.222393   -0.475736
 ---------------------------------------------------------------------

 The electronic state is 2-A.
 Alpha  occ. eigenvalues --  -88.88075 -88.87671 -19.16457 -19.16349 -19.10014
 Alpha  occ. eigenvalues --  -19.09964 -19.09570 -19.09401 -14.36775 -14.36338
 Alpha  occ. eigenvalues --  -10.28455 -10.28248 -10.28035 -10.27931 -10.24210
 Alpha  occ. eigenvalues --  -10.24020 -10.22542 -10.22477 -10.21458 -10.21415
 Alpha  occ. eigenvalues --  -10.21188 -10.20748 -10.20433 -10.20355 -10.20089
 Alpha  occ. eigenvalues --  -10.19770 -10.19627 -10.19298 -10.18959 -10.18893
 Alpha  occ. eigenvalues --  -10.18747 -10.18576 -10.18376 -10.18145 -10.18051
 Alpha  occ. eigenvalues --  -10.17796  -7.96636  -7.96246  -5.92945  -5.92563
 Alpha  occ. eigenvalues --   -5.92560  -5.92206  -5.92181  -5.91797  -1.07805
 Alpha  occ. eigenvalues --   -1.07660  -1.05936  -1.05609  -1.03890  -1.03495
 Alpha  occ. eigenvalues --   -0.93988  -0.93564  -0.89987  -0.89239  -0.87872
 Alpha  occ. eigenvalues --   -0.84145  -0.81813  -0.78864  -0.76622  -0.75828
 Alpha  occ. eigenvalues --   -0.75374  -0.74448  -0.73418  -0.72334  -0.70728
 Alpha  occ. eigenvalues --   -0.70368  -0.69358  -0.67538  -0.65132  -0.63995
 Alpha  occ. eigenvalues --   -0.63300  -0.62547  -0.59891  -0.58693  -0.56643
 Alpha  occ. eigenvalues --   -0.55720  -0.55417  -0.55044  -0.54061  -0.53168
 Alpha  occ. eigenvalues --   -0.51589  -0.49540  -0.48966  -0.48236  -0.47878
 Alpha  occ. eigenvalues --   -0.47826  -0.47715  -0.47474  -0.47225  -0.47059
 Alpha  occ. eigenvalues --   -0.46552  -0.45272  -0.45121  -0.44675  -0.44365
 Alpha  occ. eigenvalues --   -0.43894  -0.43100  -0.42915  -0.42295  -0.41979
 Alpha  occ. eigenvalues --   -0.41487  -0.41217  -0.41042  -0.40561  -0.40297
 Alpha  occ. eigenvalues --   -0.40178  -0.39871  -0.39400  -0.39087  -0.38857
 Alpha  occ. eigenvalues --   -0.38139  -0.37673  -0.37112  -0.36712  -0.35778
 Alpha  occ. eigenvalues --   -0.35004  -0.34732  -0.33632  -0.33410  -0.32877
 Alpha  occ. eigenvalues --   -0.32411  -0.30136  -0.29409  -0.28951  -0.28162
 Alpha  occ. eigenvalues --   -0.27988  -0.27240  -0.26943  -0.26367  -0.26140
 Alpha  occ. eigenvalues --   -0.24681  -0.24319  -0.23773  -0.19108  -0.15352
 Alpha virt. eigenvalues --   -0.06733  -0.05355  -0.03250  -0.02457  -0.00299
 Alpha virt. eigenvalues --    0.00403   0.00449   0.00602   0.00895   0.01419
 Alpha virt. eigenvalues --    0.01781   0.02224   0.02362   0.02612   0.02824

  Beta  occ. eigenvalues --  -88.88074 -88.87661 -19.16439 -19.16354 -19.09832
  Beta  occ. eigenvalues --  -19.09771 -19.09395 -19.09216 -14.36827 -14.36390
  Beta  occ. eigenvalues --  -10.28397 -10.28191 -10.27976 -10.27877 -10.24175
  Beta  occ. eigenvalues --  -10.24044 -10.22543 -10.22477 -10.21454 -10.21363
  Beta  occ. eigenvalues --  -10.21238 -10.20627 -10.20481 -10.20321 -10.20145
  Beta  occ. eigenvalues --  -10.19769 -10.19626 -10.19145 -10.18815 -10.18728
  Beta  occ. eigenvalues --  -10.18600 -10.18521 -10.18388 -10.18068 -10.17971
  Beta  occ. eigenvalues --  -10.17741  -7.96636  -7.96236  -5.92945  -5.92560
  Beta  occ. eigenvalues --   -5.92558  -5.92203  -5.92175  -5.91763  -1.07774
  Beta  occ. eigenvalues --   -1.07666  -1.05696  -1.05380  -1.03566  -1.03184
  Beta  occ. eigenvalues --   -0.93876  -0.93458  -0.89889  -0.89144  -0.87821
  Beta  occ. eigenvalues --   -0.83836  -0.81527  -0.78722  -0.76503  -0.75516
  Beta  occ. eigenvalues --   -0.75212  -0.74406  -0.73351  -0.72270  -0.70681
  Beta  occ. eigenvalues --   -0.70095  -0.69208  -0.67419  -0.64977  -0.63808
  Beta  occ. eigenvalues --   -0.63209  -0.62359  -0.59840  -0.58632  -0.56559
  Beta  occ. eigenvalues --   -0.55618  -0.55378  -0.54937  -0.54036  -0.53019
  Beta  occ. eigenvalues --   -0.51488  -0.49403  -0.48849  -0.47978  -0.47803
  Beta  occ. eigenvalues --   -0.47743  -0.47559  -0.47455  -0.47157  -0.46939
  Beta  occ. eigenvalues --   -0.46499  -0.45217  -0.45033  -0.44587  -0.44240
  Beta  occ. eigenvalues --   -0.43809  -0.42924  -0.42743  -0.42032  -0.41903
  Beta  occ. eigenvalues --   -0.41373  -0.41111  -0.40935  -0.40298  -0.39903
  Beta  occ. eigenvalues --   -0.39858  -0.39500  -0.39094  -0.38681  -0.38554
  Beta  occ. eigenvalues --   -0.38043  -0.37528  -0.36820  -0.36659  -0.35749
  Beta  occ. eigenvalues --   -0.34893  -0.34468  -0.33490  -0.33394  -0.32831
  Beta  occ. eigenvalues --   -0.31913  -0.29472  -0.28932  -0.28594  -0.27877
  Beta  occ. eigenvalues --   -0.27511  -0.26944  -0.26739  -0.26118  -0.25765
  Beta  occ. eigenvalues --   -0.24336  -0.24098  -0.22658  -0.18659
  Beta virt. eigenvalues --   -0.11147  -0.06144  -0.04424  -0.02385  -0.02220
  Beta virt. eigenvalues --   -0.00282   0.00419   0.00608   0.00616   0.00987
  Beta virt. eigenvalues --    0.01439   0.01794   0.02290   0.02658   0.02822

 Mulliken charges and spin densities:
               1          2
     1  C    0.308690   0.026517
     2  C   -0.110933   0.116084
     3  C    0.193227  -0.036549
     4  C    0.192643   0.098783
     5  C    0.247225   0.025913
     6  C    0.010539   0.040381
     7  C    0.242604  -0.027269
     8  C    0.523901   0.113516
     9  C    0.153964   0.081660
    10  C   -0.843624   0.020064
    11  C    0.266660   0.025153
    12  C    0.092043   0.096030
    13  C   -0.499584   0.057292
    14  C   -0.605943   0.061705
    15  H    0.143983  -0.004167
    16  H    0.144526  -0.004023
    17  H    0.147199  -0.001825
    18  N   -0.005237  -0.021825
    19  N   -0.131683  -0.022235
    20  O   -0.434343   0.071509
    21  O   -0.414724   0.067699
    22  O   -0.433649   0.065120
    23  O   -0.360751   0.069435
    24  C   -0.185382   0.001491
    25  H    0.176970  -0.001182
    26  H    0.171746  -0.000532
    27  H    0.172695  -0.000447
    28  C   -0.210527   0.001154
    29  H    0.174605  -0.000997
    30  H    0.170172  -0.000860
    31  H    0.173575  -0.000323
    32  C   -0.180411  -0.034675
    33  C   -0.436255   0.045107
    34  S   -0.649763   0.017426
    35  C   -0.295815  -0.013437
    36  H    0.161229  -0.002935
    37  C    0.697755   0.046410
    38  O   -0.160653  -0.000558
    39  C    0.854597  -0.014282
    40  C   -0.241174   0.000078
    41  C    0.042296   0.023294
    42  S   -0.217782  -0.000445
    43  H    0.175545  -0.000001
    44  H    0.161146  -0.000149
    45  H    0.162423  -0.000257
    46  C   -0.629774  -0.009592
    47  O   -0.163179   0.003616
    48  C   -0.338626   0.023737
    49  H    0.160015   0.000435
    50  C   -0.251160  -0.000270
    51  H    0.187754  -0.001421
    52  H    0.158573   0.000320
    53  H    0.173311  -0.000012
    54  H    0.159362   0.000338
 Sum of Mulliken charges =  -1.00000   1.00000

 Dipole moment (field-independent basis, Debye):
    X=            -15.5953    Y=             -0.5919    Z=              1.3528  Tot=             15.6651
 Quadrupole moment (field-independent basis, Debye-Ang):
   XX=           -293.5879   YY=           -247.5674   ZZ=           -228.4050
   XY=              8.9211   XZ=             -2.1528   YZ=             16.6294

 Normal termination of Gaussian 16 at Thu Oct 28 12:27:33 2021.
