 Gaussian 16, Revision C.01,
 Gaussian 16:  ES64L-G16RevC.01  3-Jul-2019

 ---------------------------------------------------------------
 # opt=modredundant b3lyp/6-311+g(d,p) scrf=(pcm, solvent=water)
 ---------------------------------------------------------------

 -----------
 NDI_-95.pdb
 -----------
 Symbolic Z-matrix:
 Charge = -1 Multiplicity = 2

 SCF Done:  E(UB3LYP) =  -2359.49535217     A.U. after   20 cycles
 SCF Done:  E(UB3LYP) =  -2359.50231151     A.U. after   18 cycles
 SCF Done:  E(UB3LYP) =  -2359.50313699     A.U. after   17 cycles
 SCF Done:  E(UB3LYP) =  -2359.50301203     A.U. after   15 cycles
 SCF Done:  E(UB3LYP) =  -2359.50335355     A.U. after   15 cycles
 SCF Done:  E(UB3LYP) =  -2359.50336743     A.U. after   12 cycles
 SCF Done:  E(UB3LYP) =  -2359.50337840     A.U. after   11 cycles
 SCF Done:  E(UB3LYP) =  -2359.50338124     A.U. after   10 cycles
 SCF Done:  E(UB3LYP) =  -2359.50338430     A.U. after   10 cycles
 SCF Done:  E(UB3LYP) =  -2359.50338903     A.U. after   10 cycles
 SCF Done:  E(UB3LYP) =  -2359.50339546     A.U. after    9 cycles
 SCF Done:  E(UB3LYP) =  -2359.50339568     A.U. after    9 cycles
 SCF Done:  E(UB3LYP) =  -2359.50339592     A.U. after    9 cycles
 SCF Done:  E(UB3LYP) =  -2359.50339607     A.U. after    9 cycles
 SCF Done:  E(UB3LYP) =  -2359.50339613     A.U. after    8 cycles
 SCF Done:  E(UB3LYP) =  -2359.50339618     A.U. after    8 cycles
 SCF Done:  E(UB3LYP) =  -2359.50339622     A.U. after    8 cycles
 SCF Done:  E(UB3LYP) =  -2359.50339626     A.U. after    8 cycles
 SCF Done:  E(UB3LYP) =  -2359.50339626     A.U. after    8 cycles
 SCF Done:  E(UB3LYP) =  -2359.50339624     A.U. after    8 cycles
 Optimization completed.
    -- Stationary point found.

                         Standard orientation:
 ---------------------------------------------------------------------
 Center     Atomic      Atomic             Coordinates (Angstroms)
 Number     Number       Type             X           Y           Z
 ---------------------------------------------------------------------
      1          6           0        3.251610   -2.833427    0.109565
      2          6           0        2.637820   -1.512754    0.128608
      3          6           0        3.429685   -0.357536   -0.056454
      4          6           0        4.825824   -0.461761   -0.263542
      5          6           0        5.468978   -1.770813   -0.287947
      6          6           0        1.255698   -1.384516    0.330128
      7          6           0        2.800250    0.930979   -0.029845
      8          6           0        1.395585    1.037466    0.179561
      9          6           0        0.621796   -0.148594    0.359577
     10          6           0        0.791552    2.369005    0.212426
     11          6           0        3.023960    3.411007   -0.195426
     12          6           0        3.611708    2.078899   -0.215461
     13          6           0        4.999528    1.945183   -0.421496
     14          6           0        5.597799    0.701860   -0.445204
     15          1           0        6.663938    0.602548   -0.602837
     16          1           0        5.586899    2.843557   -0.560139
     17          1           0        0.669873   -2.284434    0.465349
     18          7           0        1.644120    3.472717    0.023693
     19          7           0        4.635051   -2.886708   -0.103641
     20          8           0        2.620402   -3.885968    0.268988
     21          8           0        6.684724   -1.921682   -0.460333
     22          8           0        3.684526    4.445514   -0.358223
     23          8           0       -0.409419    2.588618    0.393997
     24          6           0        1.000996    4.791648    0.063714
     25          1           0        0.255515    4.869086   -0.728616
     26          1           0        0.501479    4.933259    1.022364
     27          1           0        1.770595    5.543596   -0.073078
     28          6           0        5.237199   -4.225017   -0.125639
     29          1           0        5.098659   -4.713999    0.839629
     30          1           0        4.759316   -4.833408   -0.893711
     31          1           0        6.295100   -4.114713   -0.338219
     32          6           0       -0.844943   -0.164657    0.589282
     33          6           0       -1.511181   -0.214599    1.781523
     34         16           0       -1.950757   -0.258912   -0.755097
     35          6           0       -2.925622   -0.296582    1.625387
     36          1           0       -1.005212   -0.175193    2.735335
     37          6           0       -3.356923   -0.329192    0.308594
     38          8           0       -3.839214   -0.352210    2.636023
     39          6           0       -4.709556   -0.419143   -0.190137
     40          6           0       -3.356886   -0.285855    3.981592
     41          6           0       -5.138925   -0.462292   -1.509458
     42         16           0       -6.112212   -0.486264    0.875415
     43          1           0       -4.239180   -0.334037    4.616756
     44          1           0       -2.699908   -1.130990    4.205022
     45          1           0       -2.827091    0.653533    4.162384
     46          6           0       -6.553993   -0.545749   -1.663931
     47          8           0       -4.222953   -0.425101   -2.518750
     48          6           0       -7.204816   -0.566591   -0.463537
     49          1           0       -7.062726   -0.588404   -2.615997
     50          6           0       -4.707526   -0.457511   -3.864478
     51          1           0       -8.267364   -0.625705   -0.284065
     52          1           0       -5.349255    0.403552   -4.071294
     53          1           0       -3.825126   -0.413961   -4.499775
     54          1           0       -5.254428   -1.383634   -4.062585
 ---------------------------------------------------------------------

 The electronic state is 2-A.
 Alpha  occ. eigenvalues --  -88.87906 -88.87467 -19.16210 -19.16204 -19.09902
 Alpha  occ. eigenvalues --  -19.09889 -19.09724 -19.09583 -14.36733 -14.36524
 Alpha  occ. eigenvalues --  -10.28355 -10.28173 -10.28151 -10.28139 -10.23878
 Alpha  occ. eigenvalues --  -10.23801 -10.22449 -10.22426 -10.21222 -10.21036
 Alpha  occ. eigenvalues --  -10.20879 -10.20512 -10.20445 -10.20303 -10.20103
 Alpha  occ. eigenvalues --  -10.19741 -10.19662 -10.19607 -10.18954 -10.18926
 Alpha  occ. eigenvalues --  -10.18921 -10.18469 -10.18257 -10.18229 -10.18190
 Alpha  occ. eigenvalues --  -10.17669  -7.96469  -7.96032  -5.92777  -5.92393
 Alpha  occ. eigenvalues --   -5.92354  -5.92039  -5.91968  -5.91575  -1.07532
 Alpha  occ. eigenvalues --   -1.07448  -1.05841  -1.05766  -1.03779  -1.03683
 Alpha  occ. eigenvalues --   -0.93937  -0.93690  -0.89910  -0.89155  -0.87716
 Alpha  occ. eigenvalues --   -0.84185  -0.81907  -0.78701  -0.76327  -0.75895
 Alpha  occ. eigenvalues --   -0.75297  -0.74270  -0.73456  -0.72144  -0.70764
 Alpha  occ. eigenvalues --   -0.70180  -0.69341  -0.67485  -0.65136  -0.64085
 Alpha  occ. eigenvalues --   -0.63139  -0.62656  -0.59743  -0.58516  -0.56674
 Alpha  occ. eigenvalues --   -0.55676  -0.55250  -0.54979  -0.53870  -0.53032
 Alpha  occ. eigenvalues --   -0.51592  -0.49509  -0.48980  -0.48264  -0.47914
 Alpha  occ. eigenvalues --   -0.47781  -0.47655  -0.47337  -0.47237  -0.46980
 Alpha  occ. eigenvalues --   -0.46575  -0.45108  -0.45004  -0.44743  -0.44489
 Alpha  occ. eigenvalues --   -0.43977  -0.43243  -0.42882  -0.42533  -0.42143
 Alpha  occ. eigenvalues --   -0.41257  -0.40872  -0.40789  -0.40409  -0.40403
 Alpha  occ. eigenvalues --   -0.40260  -0.39836  -0.39692  -0.39142  -0.38294
 Alpha  occ. eigenvalues --   -0.38039  -0.37493  -0.37335  -0.36872  -0.35532
 Alpha  occ. eigenvalues --   -0.34831  -0.33754  -0.33607  -0.33117  -0.32925
 Alpha  occ. eigenvalues --   -0.32704  -0.30089  -0.29199  -0.28671  -0.28215
 Alpha  occ. eigenvalues --   -0.27769  -0.27455  -0.26801  -0.26624  -0.26113
 Alpha  occ. eigenvalues --   -0.24420  -0.24354  -0.24087  -0.18772  -0.15645
 Alpha virt. eigenvalues --   -0.05814  -0.04631  -0.03768  -0.02949  -0.00306
 Alpha virt. eigenvalues --   -0.00104   0.00322   0.00802   0.00989   0.01105
 Alpha virt. eigenvalues --    0.01494   0.02290   0.02367   0.02477   0.02564

  Beta  occ. eigenvalues --  -88.87906 -88.87462 -19.16210 -19.16203 -19.09705
  Beta  occ. eigenvalues --  -19.09686 -19.09534 -19.09363 -14.36789 -14.36580
  Beta  occ. eigenvalues --  -10.28293 -10.28113 -10.28098 -10.28081 -10.23879
  Beta  occ. eigenvalues --  -10.23800 -10.22449 -10.22426 -10.21221 -10.21043
  Beta  occ. eigenvalues --  -10.20879 -10.20568 -10.20358 -10.20342 -10.20103
  Beta  occ. eigenvalues --  -10.19740 -10.19606 -10.19484 -10.18797 -10.18763
  Beta  occ. eigenvalues --  -10.18750 -10.18400 -10.18229 -10.18168 -10.18106
  Beta  occ. eigenvalues --  -10.17661  -7.96469  -7.96027  -5.92777  -5.92393
  Beta  occ. eigenvalues --   -5.92346  -5.92039  -5.91962  -5.91571  -1.07531
  Beta  occ. eigenvalues --   -1.07447  -1.05587  -1.05507  -1.03432  -1.03332
  Beta  occ. eigenvalues --   -0.93814  -0.93572  -0.89794  -0.89097  -0.87681
  Beta  occ. eigenvalues --   -0.83861  -0.81595  -0.78570  -0.76222  -0.75520
  Beta  occ. eigenvalues --   -0.75163  -0.74250  -0.73384  -0.72105  -0.70723
  Beta  occ. eigenvalues --   -0.69844  -0.69222  -0.67389  -0.64981  -0.63881
  Beta  occ. eigenvalues --   -0.63049  -0.62467  -0.59705  -0.58463  -0.56590
  Beta  occ. eigenvalues --   -0.55540  -0.55246  -0.54866  -0.53866  -0.52885
  Beta  occ. eigenvalues --   -0.51467  -0.49338  -0.48916  -0.47982  -0.47721
  Beta  occ. eigenvalues --   -0.47662  -0.47623  -0.47332  -0.47166  -0.46861
  Beta  occ. eigenvalues --   -0.46538  -0.45048  -0.44857  -0.44718  -0.44383
  Beta  occ. eigenvalues --   -0.43868  -0.43071  -0.42702  -0.42376  -0.41881
  Beta  occ. eigenvalues --   -0.41209  -0.40862  -0.40710  -0.40150  -0.39955
  Beta  occ. eigenvalues --   -0.39810  -0.39481  -0.39109  -0.38773  -0.38167
  Beta  occ. eigenvalues --   -0.38004  -0.37282  -0.37072  -0.36789  -0.35524
  Beta  occ. eigenvalues --   -0.34747  -0.33627  -0.33411  -0.33070  -0.32880
  Beta  occ. eigenvalues --   -0.32080  -0.29034  -0.29030  -0.28529  -0.27643
  Beta  occ. eigenvalues --   -0.27527  -0.27126  -0.26607  -0.25945  -0.25931
  Beta  occ. eigenvalues --   -0.24398  -0.24067  -0.22776  -0.18764
  Beta virt. eigenvalues --   -0.11017  -0.04633  -0.04601  -0.02967  -0.02266
  Beta virt. eigenvalues --   -0.00289  -0.00099   0.00330   0.00810   0.01001
  Beta virt. eigenvalues --    0.01115   0.01501   0.02364   0.02523   0.02854

 Mulliken charges and spin densities:
               1          2
     1  C    0.438314   0.025366
     2  C    0.038341   0.126021
     3  C    0.219731  -0.039915
     4  C    0.174976   0.111068
     5  C    0.290530   0.026639
     6  C   -0.600254   0.053241
     7  C    0.208492  -0.035589
     8  C   -0.110301   0.132314
     9  C    0.478224   0.074971
    10  C   -0.351947   0.024374
    11  C    0.225752   0.026151
    12  C    0.194238   0.113217
    13  C   -0.564693   0.058871
    14  C   -0.656484   0.066201
    15  H    0.144472  -0.004676
    16  H    0.144936  -0.004338
    17  H    0.137456  -0.003644
    18  N   -0.155788  -0.022919
    19  N   -0.138871  -0.023491
    20  O   -0.427947   0.075535
    21  O   -0.419733   0.073335
    22  O   -0.420169   0.070963
    23  O   -0.272933   0.082203
    24  C   -0.226716   0.001307
    25  H    0.173903  -0.001021
    26  H    0.171696  -0.000959
    27  H    0.174793  -0.000344
    28  C   -0.209368   0.001428
    29  H    0.173105  -0.001047
    30  H    0.170810  -0.000960
    31  H    0.173987  -0.000348
    32  C    0.082481  -0.026193
    33  C   -0.455432   0.006855
    34  S   -0.128250   0.009353
    35  C   -0.130237   0.004407
    36  H    0.139109  -0.000006
    37  C    0.199020   0.002287
    38  O   -0.173526   0.000039
    39  C    0.734988  -0.000073
    40  C   -0.235296   0.000090
    41  C    0.049968  -0.000630
    42  S   -0.255651   0.000175
    43  H    0.173872  -0.000008
    44  H    0.160793  -0.000019
    45  H    0.163379   0.000036
    46  C   -0.534605  -0.000321
    47  O   -0.180435   0.000071
    48  C   -0.373224  -0.000154
    49  H    0.158286  -0.000003
    50  C   -0.246385   0.000120
    51  H    0.185219   0.000017
    52  H    0.158287  -0.000002
    53  H    0.171805   0.000004
    54  H    0.157283   0.000001
 Sum of Mulliken charges =  -1.00000   1.00000

 Dipole moment (field-independent basis, Debye):
    X=            -13.9833    Y=             -1.2131    Z=              0.2668  Tot=             14.0384
 Quadrupole moment (field-independent basis, Debye-Ang):
   XX=           -299.6317   YY=           -276.3738   ZZ=           -197.6181
   XY=             -0.5275   XZ=             17.6556   YZ=              3.4131

 Normal termination of Gaussian 16 at Thu Oct 28 07:26:29 2021.
