 Gaussian 16, Revision C.01,
 Gaussian 16:  ES64L-G16RevC.01  3-Jul-2019

 ---------------------------------------------------------------
 # opt=modredundant b3lyp/6-311+g(d,p) scrf=(pcm, solvent=water)
 ---------------------------------------------------------------

 ------------
 NDI_-130.pdb
 ------------
 Symbolic Z-matrix:
 Charge = -1 Multiplicity = 2

 SCF Done:  E(UB3LYP) =  -2359.48911562     A.U. after   22 cycles
 SCF Done:  E(UB3LYP) =  -2359.49387961     A.U. after   21 cycles
 SCF Done:  E(UB3LYP) =  -2359.49986555     A.U. after   21 cycles
 SCF Done:  E(UB3LYP) =  -2359.50133497     A.U. after   18 cycles
 SCF Done:  E(UB3LYP) =  -2359.50259740     A.U. after   20 cycles
 SCF Done:  E(UB3LYP) =  -2359.50332498     A.U. after   18 cycles
 SCF Done:  E(UB3LYP) =  -2359.50368530     A.U. after   17 cycles
 SCF Done:  E(UB3LYP) =  -2359.50379442     A.U. after   16 cycles
 SCF Done:  E(UB3LYP) =  -2359.50379007     A.U. after   15 cycles
 SCF Done:  E(UB3LYP) =  -2359.50380800     A.U. after   15 cycles
 SCF Done:  E(UB3LYP) =  -2359.50389431     A.U. after   10 cycles
 SCF Done:  E(UB3LYP) =  -2359.50389475     A.U. after   10 cycles
 SCF Done:  E(UB3LYP) =  -2359.50389498     A.U. after   10 cycles
 SCF Done:  E(UB3LYP) =  -2359.50389520     A.U. after    9 cycles
 SCF Done:  E(UB3LYP) =  -2359.50389530     A.U. after    8 cycles
 SCF Done:  E(UB3LYP) =  -2359.50389537     A.U. after    8 cycles
 SCF Done:  E(UB3LYP) =  -2359.50389539     A.U. after    8 cycles
 SCF Done:  E(UB3LYP) =  -2359.50389537     A.U. after    7 cycles
 SCF Done:  E(UB3LYP) =  -2359.50389539     A.U. after    7 cycles
 SCF Done:  E(UB3LYP) =  -2359.50389540     A.U. after    6 cycles
 Optimization completed on the basis of negligible forces.
    -- Stationary point found.

                         Standard orientation:
 ---------------------------------------------------------------------
 Center     Atomic      Atomic             Coordinates (Angstroms)
 Number     Number       Type             X           Y           Z
 ---------------------------------------------------------------------
      1          6           0       -3.461351   -2.708145    0.421707
      2          6           0       -2.747120   -1.476769    0.111655
      3          6           0       -3.427995   -0.237528    0.129613
      4          6           0       -4.802327   -0.168583    0.455298
      5          6           0       -5.541445   -1.384198    0.779314
      6          6           0       -1.371650   -1.512302   -0.155184
      7          6           0       -2.706346    0.956958   -0.199025
      8          6           0       -1.324787    0.888177   -0.535425
      9          6           0       -0.641464   -0.364904   -0.453580
     10          6           0       -0.685763    2.089007   -1.070084
     11          6           0       -2.723108    3.427273   -0.541465
     12          6           0       -3.406648    2.189603   -0.191676
     13          6           0       -4.774112    2.230154    0.146875
     14          6           0       -5.461332    1.076257    0.464581
     15          1           0       -6.512734    1.109199    0.718775
     16          1           0       -5.275328    3.189489    0.147449
     17          1           0       -0.858595   -2.462157   -0.081000
     18          7           0       -1.392632    3.300990   -0.952717
     19          7           0       -4.822092   -2.590430    0.734644
     20          8           0       -2.933096   -3.827264    0.421532
     21          8           0       -6.741626   -1.383754    1.078431
     22          8           0       -3.268929    4.538039   -0.507011
     23          8           0        0.415253    2.106629   -1.628484
     24          6           0       -0.688835    4.507207   -1.404036
     25          1           0        0.317296    4.515577   -0.989037
     26          1           0       -0.615149    4.524616   -2.493678
     27          1           0       -1.249581    5.371490   -1.063815
     28          6           0       -5.527898   -3.839856    1.042993
     29          1           0       -5.444375   -4.529552    0.202887
     30          1           0       -5.088212   -4.310857    1.923183
     31          1           0       -6.569247   -3.600694    1.230237
     32          6           0        0.819872   -0.530997   -0.571157
     33          6           0        1.492893   -1.413025   -1.377579
     34         16           0        1.916417    0.268305    0.528856
     35          6           0        2.896304   -1.424398   -1.145789
     36          1           0        0.995521   -2.015065   -2.124339
     37          6           0        3.317339   -0.570394   -0.136721
     38          8           0        3.812646   -2.178552   -1.816041
     39          6           0        4.659376   -0.351820    0.347012
     40          6           0        3.339603   -3.049992   -2.847918
     41          6           0        5.079862    0.492848    1.366160
     42         16           0        6.060235   -1.181943   -0.329120
     43          1           0        4.221815   -3.550006   -3.242639
     44          1           0        2.647036   -3.794446   -2.445528
     45          1           0        2.852615   -2.483551   -3.646546
     46          6           0        6.486430    0.477872    1.597826
     47          8           0        4.163590    1.239435    2.044210
     48          6           0        7.139458   -0.378332    0.757727
     49          1           0        6.987859    1.070671    2.348945
     50          6           0        4.639404    2.112915    3.072940
     51          1           0        8.197304   -0.587292    0.712453
     52          1           0        5.328911    2.858135    2.666613
     53          1           0        3.758006    2.611795    3.470804
     54          1           0        5.130625    1.548523    3.870500
 ---------------------------------------------------------------------

 The electronic state is 2-A.
 Alpha  occ. eigenvalues --  -88.87965 -88.87431 -19.16293 -19.16262 -19.09923
 Alpha  occ. eigenvalues --  -19.09898 -19.09701 -19.09609 -14.36730 -14.36472
 Alpha  occ. eigenvalues --  -10.28369 -10.28185 -10.28141 -10.28101 -10.23997
 Alpha  occ. eigenvalues --  -10.23878 -10.22482 -10.22455 -10.21287 -10.21130
 Alpha  occ. eigenvalues --  -10.21085 -10.20466 -10.20454 -10.20229 -10.20192
 Alpha  occ. eigenvalues --  -10.19740 -10.19642 -10.19454 -10.18950 -10.18914
 Alpha  occ. eigenvalues --  -10.18872 -10.18500 -10.18279 -10.18223 -10.18161
 Alpha  occ. eigenvalues --  -10.17855  -7.96527  -7.96002  -5.92835  -5.92451
 Alpha  occ. eigenvalues --   -5.92326  -5.92098  -5.91941  -5.91539  -1.07624
 Alpha  occ. eigenvalues --   -1.07527  -1.05850  -1.05737  -1.03794  -1.03654
 Alpha  occ. eigenvalues --   -0.93932  -0.93681  -0.89940  -0.89191  -0.87779
 Alpha  occ. eigenvalues --   -0.84175  -0.81875  -0.78805  -0.76335  -0.75922
 Alpha  occ. eigenvalues --   -0.75324  -0.74344  -0.73441  -0.72236  -0.70779
 Alpha  occ. eigenvalues --   -0.70085  -0.69446  -0.67537  -0.65104  -0.64071
 Alpha  occ. eigenvalues --   -0.63166  -0.62633  -0.59776  -0.58576  -0.56668
 Alpha  occ. eigenvalues --   -0.55724  -0.55319  -0.54994  -0.53944  -0.52955
 Alpha  occ. eigenvalues --   -0.51682  -0.49457  -0.48958  -0.48273  -0.47906
 Alpha  occ. eigenvalues --   -0.47777  -0.47689  -0.47383  -0.47298  -0.46984
 Alpha  occ. eigenvalues --   -0.46570  -0.45153  -0.45094  -0.44683  -0.44553
 Alpha  occ. eigenvalues --   -0.43859  -0.43229  -0.42991  -0.42506  -0.42094
 Alpha  occ. eigenvalues --   -0.41329  -0.40969  -0.40822  -0.40465  -0.40366
 Alpha  occ. eigenvalues --   -0.40175  -0.39872  -0.39617  -0.39169  -0.38512
 Alpha  occ. eigenvalues --   -0.38030  -0.37519  -0.37218  -0.36892  -0.35584
 Alpha  occ. eigenvalues --   -0.34878  -0.34264  -0.33525  -0.33174  -0.33051
 Alpha  occ. eigenvalues --   -0.32474  -0.30035  -0.29268  -0.28811  -0.28135
 Alpha  occ. eigenvalues --   -0.27906  -0.27376  -0.26864  -0.26431  -0.26248
 Alpha  occ. eigenvalues --   -0.24583  -0.24265  -0.23993  -0.18914  -0.15529
 Alpha virt. eigenvalues --   -0.06028  -0.05107  -0.03398  -0.02759  -0.00302
 Alpha virt. eigenvalues --   -0.00052   0.00356   0.00730   0.00845   0.01351
 Alpha virt. eigenvalues --    0.01584   0.02323   0.02408   0.02469   0.02578

  Beta  occ. eigenvalues --  -88.87964 -88.87425 -19.16287 -19.16264 -19.09730
  Beta  occ. eigenvalues --  -19.09697 -19.09517 -19.09404 -14.36785 -14.36526
  Beta  occ. eigenvalues --  -10.28308 -10.28125 -10.28087 -10.28044 -10.23986
  Beta  occ. eigenvalues --  -10.23887 -10.22482 -10.22454 -10.21294 -10.21153
  Beta  occ. eigenvalues --  -10.21060 -10.20507 -10.20362 -10.20284 -10.20181
  Beta  occ. eigenvalues --  -10.19739 -10.19641 -10.19283 -10.18797 -10.18745
  Beta  occ. eigenvalues --  -10.18714 -10.18433 -10.18284 -10.18139 -10.18077
  Beta  occ. eigenvalues --  -10.17829  -7.96527  -7.95996  -5.92835  -5.92451
  Beta  occ. eigenvalues --   -5.92317  -5.92096  -5.91934  -5.91530  -1.07616
  Beta  occ. eigenvalues --   -1.07528  -1.05599  -1.05490  -1.03454  -1.03320
  Beta  occ. eigenvalues --   -0.93812  -0.93569  -0.89832  -0.89119  -0.87740
  Beta  occ. eigenvalues --   -0.83857  -0.81571  -0.78670  -0.76234  -0.75578
  Beta  occ. eigenvalues --   -0.75169  -0.74312  -0.73371  -0.72180  -0.70737
  Beta  occ. eigenvalues --   -0.69776  -0.69317  -0.67433  -0.64951  -0.63875
  Beta  occ. eigenvalues --   -0.63062  -0.62463  -0.59727  -0.58518  -0.56589
  Beta  occ. eigenvalues --   -0.55588  -0.55308  -0.54877  -0.53933  -0.52819
  Beta  occ. eigenvalues --   -0.51561  -0.49282  -0.48900  -0.47996  -0.47729
  Beta  occ. eigenvalues --   -0.47694  -0.47613  -0.47376  -0.47219  -0.46866
  Beta  occ. eigenvalues --   -0.46527  -0.45088  -0.45016  -0.44574  -0.44468
  Beta  occ. eigenvalues --   -0.43751  -0.43062  -0.42794  -0.42371  -0.41840
  Beta  occ. eigenvalues --   -0.41281  -0.40932  -0.40755  -0.40157  -0.39941
  Beta  occ. eigenvalues --   -0.39845  -0.39436  -0.39111  -0.38785  -0.38389
  Beta  occ. eigenvalues --   -0.37939  -0.37309  -0.37013  -0.36779  -0.35574
  Beta  occ. eigenvalues --   -0.34784  -0.33988  -0.33418  -0.33136  -0.33029
  Beta  occ. eigenvalues --   -0.31897  -0.29151  -0.28952  -0.28575  -0.27779
  Beta  occ. eigenvalues --   -0.27488  -0.27070  -0.26656  -0.26077  -0.25821
  Beta  occ. eigenvalues --   -0.24481  -0.23982  -0.22743  -0.18748
  Beta virt. eigenvalues --   -0.11067  -0.05318  -0.04424  -0.02635  -0.02258
  Beta virt. eigenvalues --   -0.00285   0.00037   0.00367   0.00741   0.00873
  Beta virt. eigenvalues --    0.01360   0.01603   0.02367   0.02580   0.02884

 Mulliken charges and spin densities:
               1          2
     1  C    0.402321   0.026479
     2  C   -0.115264   0.121074
     3  C    0.139385  -0.038350
     4  C    0.176757   0.105810
     5  C    0.271442   0.025279
     6  C   -0.367120   0.054794
     7  C    0.190011  -0.033382
     8  C    0.034774   0.126969
     9  C    0.289205   0.066185
    10  C   -0.414234   0.024796
    11  C    0.310651   0.025567
    12  C    0.068184   0.107644
    13  C   -0.482279   0.061156
    14  C   -0.601654   0.064304
    15  H    0.144210  -0.004526
    16  H    0.144598  -0.004242
    17  H    0.142274  -0.003164
    18  N   -0.053635  -0.022323
    19  N   -0.135212  -0.023306
    20  O   -0.430424   0.074623
    21  O   -0.419444   0.071735
    22  O   -0.427229   0.068717
    23  O   -0.348112   0.076467
    24  C   -0.188103   0.001353
    25  H    0.173388  -0.000649
    26  H    0.177280  -0.001175
    27  H    0.174952  -0.000390
    28  C   -0.207410   0.001290
    29  H    0.170818  -0.000944
    30  H    0.173404  -0.001027
    31  H    0.174625  -0.000340
    32  C    0.231900  -0.015635
    33  C   -0.520530   0.021147
    34  S   -0.517480   0.011815
    35  C   -0.115219  -0.002536
    36  H    0.150610  -0.000852
    37  C    0.439624   0.008702
    38  O   -0.167144  -0.000425
    39  C    0.805615  -0.006459
    40  C   -0.234802  -0.000114
    41  C    0.019992   0.008523
    42  S   -0.244854  -0.000144
    43  H    0.174101   0.000001
    44  H    0.162571  -0.000064
    45  H    0.162166  -0.000059
    46  C   -0.586624  -0.002999
    47  O   -0.170562   0.000824
    48  C   -0.341103   0.008021
    49  H    0.158895   0.000146
    50  C   -0.249971  -0.000052
    51  H    0.185985  -0.000475
    52  H    0.158553   0.000080
    53  H    0.172307  -0.000006
    54  H    0.157813   0.000132
 Sum of Mulliken charges =  -1.00000   1.00000

 Dipole moment (field-independent basis, Debye):
    X=             14.3861    Y=             -1.6687    Z=              0.9238  Tot=             14.5120
 Quadrupole moment (field-independent basis, Debye-Ang):
   XX=           -294.6039   YY=           -261.3096   ZZ=           -215.4141
   XY=             10.1768   XZ=             19.8381   YZ=             22.7354

 Normal termination of Gaussian 16 at Thu Oct 28 10:20:39 2021.
