 Gaussian 16, Revision C.01,
 Gaussian 16:  ES64L-G16RevC.01  3-Jul-2019

 ---------------------------------------------------------------
 # opt=modredundant b3lyp/6-311+g(d,p) scrf=(pcm, solvent=water)
 ---------------------------------------------------------------

 ----------
 NDI_25.pdb
 ----------
 Symbolic Z-matrix:
 Charge = -1 Multiplicity = 2

 SCF Done:  E(UB3LYP) =  -2359.48408237     A.U. after   21 cycles
 SCF Done:  E(UB3LYP) =  -2359.48113093     A.U. after   22 cycles
 SCF Done:  E(UB3LYP) =  -2359.49374741     A.U. after   18 cycles
 SCF Done:  E(UB3LYP) =  -2359.49697150     A.U. after   17 cycles
 SCF Done:  E(UB3LYP) =  -2359.49730514     A.U. after   19 cycles
 SCF Done:  E(UB3LYP) =  -2359.49861881     A.U. after   18 cycles
 SCF Done:  E(UB3LYP) =  -2359.49979081     A.U. after   22 cycles
 SCF Done:  E(UB3LYP) =  -2359.50074182     A.U. after   20 cycles
 SCF Done:  E(UB3LYP) =  -2359.50178709     A.U. after   21 cycles
 SCF Done:  E(UB3LYP) =  -2359.50192869     A.U. after   18 cycles
 SCF Done:  E(UB3LYP) =  -2359.50236173     A.U. after   14 cycles
 SCF Done:  E(UB3LYP) =  -2359.50236685     A.U. after   14 cycles
 SCF Done:  E(UB3LYP) =  -2359.50236880     A.U. after   11 cycles
 SCF Done:  E(UB3LYP) =  -2359.50236911     A.U. after   12 cycles
 SCF Done:  E(UB3LYP) =  -2359.50236934     A.U. after    9 cycles
 SCF Done:  E(UB3LYP) =  -2359.50236943     A.U. after    8 cycles
 SCF Done:  E(UB3LYP) =  -2359.50236950     A.U. after    8 cycles
 SCF Done:  E(UB3LYP) =  -2359.50236951     A.U. after    9 cycles
 SCF Done:  E(UB3LYP) =  -2359.50236953     A.U. after    9 cycles
 SCF Done:  E(UB3LYP) =  -2359.50236952     A.U. after    7 cycles
 Optimization completed.
    -- Stationary point found.

                         Standard orientation:
 ---------------------------------------------------------------------
 Center     Atomic      Atomic             Coordinates (Angstroms)
 Number     Number       Type             X           Y           Z
 ---------------------------------------------------------------------
      1          6           0       -2.701475   -2.998627    0.236051
      2          6           0       -2.336766   -1.595894    0.081462
      3          6           0       -3.338291   -0.597208    0.069948
      4          6           0       -4.701143   -0.936795    0.216927
      5          6           0       -5.096751   -2.333141    0.379786
      6          6           0       -0.990230   -1.230776    0.020957
      7          6           0       -2.945309    0.770520   -0.104441
      8          6           0       -1.570468    1.112760   -0.265427
      9          6           0       -0.564689    0.093227   -0.121438
     10          6           0       -1.268821    2.464635   -0.731701
     11          6           0       -3.632039    3.156720   -0.340650
     12          6           0       -3.966163    1.755329   -0.131772
     13          6           0       -5.317734    1.391130    0.032896
     14          6           0       -5.683907    0.072139    0.204126
     15          1           0       -6.722927   -0.206081    0.322960
     16          1           0       -6.064975    2.173974    0.014355
     17          1           0       -0.259439   -2.018031    0.153431
     18          7           0       -2.291836    3.429360   -0.618821
     19          7           0       -4.065906   -3.287750    0.366704
     20          8           0       -1.879625   -3.922942    0.256672
     21          8           0       -6.273055   -2.687000    0.520096
     22          8           0       -4.468467    4.069896   -0.309752
     23          8           0       -0.197642    2.816473   -1.235834
     24          6           0       -1.926234    4.809225   -0.959319
     25          1           0       -0.956564    5.041222   -0.524522
     26          1           0       -1.861541    4.937614   -2.042527
     27          1           0       -2.691915    5.468726   -0.563359
     28          6           0       -4.418655   -4.704905    0.514645
     29          1           0       -4.011845   -5.274905   -0.320411
     30          1           0       -4.001450   -5.101779    1.441507
     31          1           0       -5.500362   -4.782961    0.532651
     32          6           0        0.864026    0.353352    0.078063
     33          6           0        1.495459    1.451898    0.613764
     34         16           0        2.049471   -0.853096   -0.401700
     35          6           0        2.902994    1.319907    0.677089
     36          1           0        0.962147    2.319637    0.965555
     37          6           0        3.397123    0.125349    0.163481
     38          8           0        3.771834    2.237645    1.184867
     39          6           0        4.767410   -0.308763    0.074828
     40          6           0        3.233423    3.458148    1.703637
     41          6           0        5.259748   -1.503264   -0.438827
     42         16           0        6.117200    0.677392    0.637119
     43          1           0        4.088204    4.039113    2.043971
     44          1           0        2.700011    4.012045    0.926445
     45          1           0        2.564320    3.263667    2.546348
     46          6           0        6.678222   -1.625003   -0.382517
     47          8           0        4.394487   -2.428327   -0.937271
     48          6           0        7.269399   -0.525387    0.172039
     49          1           0        7.231980   -2.482835   -0.735238
     50          6           0        4.939258   -3.646066   -1.456219
     51          1           0        8.321369   -0.349189    0.336694
     52          1           0        5.477101   -4.196479   -0.679461
     53          1           0        4.087415   -4.232474   -1.794327
     54          1           0        5.605368   -3.448282   -2.300505
 ---------------------------------------------------------------------

 The electronic state is 2-A.
 Alpha  occ. eigenvalues --  -88.88060 -88.87687 -19.16439 -19.16339 -19.09999
 Alpha  occ. eigenvalues --  -19.09950 -19.09583 -19.09399 -14.36767 -14.36346
 Alpha  occ. eigenvalues --  -10.28441 -10.28234 -10.28039 -10.27953 -10.24181
 Alpha  occ. eigenvalues --  -10.24013 -10.22536 -10.22476 -10.21428 -10.21389
 Alpha  occ. eigenvalues --  -10.21142 -10.20705 -10.20435 -10.20332 -10.20105
 Alpha  occ. eigenvalues --  -10.19765 -10.19622 -10.19310 -10.18956 -10.18892
 Alpha  occ. eigenvalues --  -10.18757 -10.18557 -10.18364 -10.18150 -10.18062
 Alpha  occ. eigenvalues --  -10.17800  -7.96622  -7.96259  -5.92930  -5.92576
 Alpha  occ. eigenvalues --   -5.92546  -5.92194  -5.92191  -5.91811  -1.07784
 Alpha  occ. eigenvalues --   -1.07647  -1.05920  -1.05612  -1.03874  -1.03504
 Alpha  occ. eigenvalues --   -0.93977  -0.93564  -0.89987  -0.89233  -0.87870
 Alpha  occ. eigenvalues --   -0.84147  -0.81817  -0.78853  -0.76601  -0.75826
 Alpha  occ. eigenvalues --   -0.75367  -0.74446  -0.73416  -0.72321  -0.70726
 Alpha  occ. eigenvalues --   -0.70357  -0.69354  -0.67536  -0.65125  -0.63996
 Alpha  occ. eigenvalues --   -0.63286  -0.62550  -0.59879  -0.58678  -0.56639
 Alpha  occ. eigenvalues --   -0.55707  -0.55407  -0.55040  -0.54046  -0.53158
 Alpha  occ. eigenvalues --   -0.51581  -0.49536  -0.48968  -0.48230  -0.47874
 Alpha  occ. eigenvalues --   -0.47815  -0.47715  -0.47466  -0.47225  -0.47047
 Alpha  occ. eigenvalues --   -0.46551  -0.45261  -0.45106  -0.44671  -0.44368
 Alpha  occ. eigenvalues --   -0.43897  -0.43111  -0.42905  -0.42294  -0.42015
 Alpha  occ. eigenvalues --   -0.41478  -0.41187  -0.41017  -0.40547  -0.40307
 Alpha  occ. eigenvalues --   -0.40175  -0.39860  -0.39402  -0.39087  -0.38833
 Alpha  occ. eigenvalues --   -0.38150  -0.37662  -0.37121  -0.36737  -0.35770
 Alpha  occ. eigenvalues --   -0.34980  -0.34657  -0.33619  -0.33399  -0.32915
 Alpha  occ. eigenvalues --   -0.32441  -0.30124  -0.29398  -0.28929  -0.28158
 Alpha  occ. eigenvalues --   -0.27977  -0.27260  -0.26929  -0.26361  -0.26149
 Alpha  occ. eigenvalues --   -0.24652  -0.24307  -0.23792  -0.19086  -0.15369
 Alpha virt. eigenvalues --   -0.06632  -0.05339  -0.03259  -0.02489  -0.00296
 Alpha virt. eigenvalues --    0.00376   0.00416   0.00617   0.00886   0.01399
 Alpha virt. eigenvalues --    0.01771   0.02236   0.02365   0.02580   0.02792

  Beta  occ. eigenvalues --  -88.88060 -88.87677 -19.16423 -19.16344 -19.09815
  Beta  occ. eigenvalues --  -19.09756 -19.09408 -19.09213 -14.36820 -14.36398
  Beta  occ. eigenvalues --  -10.28382 -10.28176 -10.27980 -10.27899 -10.24148
  Beta  occ. eigenvalues --  -10.24036 -10.22537 -10.22475 -10.21435 -10.21330
  Beta  occ. eigenvalues --  -10.21189 -10.20588 -10.20483 -10.20301 -10.20161
  Beta  occ. eigenvalues --  -10.19764 -10.19621 -10.19155 -10.18811 -10.18726
  Beta  occ. eigenvalues --  -10.18609 -10.18500 -10.18376 -10.18072 -10.17982
  Beta  occ. eigenvalues --  -10.17747  -7.96621  -7.96250  -5.92930  -5.92571
  Beta  occ. eigenvalues --   -5.92546  -5.92189  -5.92188  -5.91781  -1.07756
  Beta  occ. eigenvalues --   -1.07653  -1.05679  -1.05382  -1.03547  -1.03192
  Beta  occ. eigenvalues --   -0.93864  -0.93458  -0.89889  -0.89140  -0.87820
  Beta  occ. eigenvalues --   -0.83837  -0.81528  -0.78712  -0.76484  -0.75509
  Beta  occ. eigenvalues --   -0.75208  -0.74406  -0.73349  -0.72258  -0.70679
  Beta  occ. eigenvalues --   -0.70081  -0.69204  -0.67418  -0.64970  -0.63807
  Beta  occ. eigenvalues --   -0.63197  -0.62361  -0.59829  -0.58618  -0.56554
  Beta  occ. eigenvalues --   -0.55603  -0.55371  -0.54933  -0.54023  -0.53008
  Beta  occ. eigenvalues --   -0.51478  -0.49399  -0.48855  -0.47971  -0.47795
  Beta  occ. eigenvalues --   -0.47736  -0.47556  -0.47447  -0.47158  -0.46926
  Beta  occ. eigenvalues --   -0.46500  -0.45207  -0.45018  -0.44583  -0.44242
  Beta  occ. eigenvalues --   -0.43813  -0.42934  -0.42734  -0.42040  -0.41926
  Beta  occ. eigenvalues --   -0.41370  -0.41087  -0.40914  -0.40282  -0.39906
  Beta  occ. eigenvalues --   -0.39850  -0.39483  -0.39079  -0.38655  -0.38559
  Beta  occ. eigenvalues --   -0.38070  -0.37514  -0.36823  -0.36687  -0.35744
  Beta  occ. eigenvalues --   -0.34876  -0.34391  -0.33477  -0.33383  -0.32879
  Beta  occ. eigenvalues --   -0.31934  -0.29449  -0.28925  -0.28586  -0.27857
  Beta  occ. eigenvalues --   -0.27506  -0.26963  -0.26723  -0.26104  -0.25772
  Beta  occ. eigenvalues --   -0.24333  -0.24078  -0.22664  -0.18665
  Beta virt. eigenvalues --   -0.11139  -0.06045  -0.04416  -0.02406  -0.02231
  Beta virt. eigenvalues --   -0.00280   0.00417   0.00566   0.00623   0.00957
  Beta virt. eigenvalues --    0.01424   0.01785   0.02303   0.02636   0.02791

 Mulliken charges and spin densities:
               1          2
     1  C    0.322705   0.026553
     2  C   -0.131542   0.116285
     3  C    0.169295  -0.036495
     4  C    0.195646   0.099442
     5  C    0.250925   0.025959
     6  C   -0.079919   0.043916
     7  C    0.228480  -0.028141
     8  C    0.511809   0.115147
     9  C    0.220379   0.081155
    10  C   -0.766723   0.021429
    11  C    0.273733   0.025240
    12  C    0.087293   0.097181
    13  C   -0.502108   0.057891
    14  C   -0.610752   0.062013
    15  H    0.144066  -0.004200
    16  H    0.144533  -0.004066
    17  H    0.148969  -0.002054
    18  N   -0.015435  -0.021816
    19  N   -0.132101  -0.022417
    20  O   -0.434353   0.072028
    21  O   -0.415332   0.068351
    22  O   -0.432288   0.065483
    23  O   -0.352715   0.069524
    24  C   -0.186469   0.001443
    25  H    0.171598  -0.000553
    26  H    0.176815  -0.001172
    27  H    0.173000  -0.000428
    28  C   -0.210514   0.001168
    29  H    0.170091  -0.000867
    30  H    0.174621  -0.001009
    31  H    0.173584  -0.000326
    32  C   -0.083491  -0.035673
    33  C   -0.500455   0.039840
    34  S   -0.642111   0.017049
    35  C   -0.306868  -0.012607
    36  H    0.159652  -0.002775
    37  C    0.698160   0.044643
    38  O   -0.161234  -0.000594
    39  C    0.833992  -0.013707
    40  C   -0.240634   0.000089
    41  C    0.034799   0.021756
    42  S   -0.222582  -0.000337
    43  H    0.175363  -0.000002
    44  H    0.162379  -0.000246
    45  H    0.161250  -0.000143
    46  C   -0.625360  -0.008979
    47  O   -0.163488   0.003403
    48  C   -0.333795   0.022159
    49  H    0.159868   0.000406
    50  C   -0.251252  -0.000219
    51  H    0.187472  -0.001325
    52  H    0.159266   0.000311
    53  H    0.173180  -0.000010
    54  H    0.158596   0.000296
 Sum of Mulliken charges =  -1.00000   1.00000

 Dipole moment (field-independent basis, Debye):
    X=             15.4761    Y=             -0.5727    Z=              1.3182  Tot=             15.5427
 Quadrupole moment (field-independent basis, Debye-Ang):
   XX=           -294.2608   YY=           -248.6231   ZZ=           -227.0968
   XY=             -8.8911   XZ=              0.6858   YZ=             18.5308

 Normal termination of Gaussian 16 at Thu Oct 28 08:05:06 2021.
