 Gaussian 16, Revision C.01,
 Gaussian 16:  ES64L-G16RevC.01  3-Jul-2019

 ---------------------------------------------------------------
 # opt=modredundant b3lyp/6-311+g(d,p) scrf=(pcm, solvent=water)
 ---------------------------------------------------------------

 ----------
 NDI_90.pdb
 ----------
 Symbolic Z-matrix:
 Charge = -1 Multiplicity = 2

 SCF Done:  E(UB3LYP) =  -2359.49498720     A.U. after   21 cycles
 SCF Done:  E(UB3LYP) =  -2359.50175709     A.U. after   18 cycles
 SCF Done:  E(UB3LYP) =  -2359.50290958     A.U. after   17 cycles
 SCF Done:  E(UB3LYP) =  -2359.50287945     A.U. after   17 cycles
 SCF Done:  E(UB3LYP) =  -2359.50325589     A.U. after   14 cycles
 SCF Done:  E(UB3LYP) =  -2359.50329076     A.U. after   15 cycles
 SCF Done:  E(UB3LYP) =  -2359.50332352     A.U. after   12 cycles
 SCF Done:  E(UB3LYP) =  -2359.50333259     A.U. after   11 cycles
 SCF Done:  E(UB3LYP) =  -2359.50334224     A.U. after   12 cycles
 SCF Done:  E(UB3LYP) =  -2359.50334879     A.U. after   10 cycles
 SCF Done:  E(UB3LYP) =  -2359.50336296     A.U. after   10 cycles
 SCF Done:  E(UB3LYP) =  -2359.50336349     A.U. after   10 cycles
 SCF Done:  E(UB3LYP) =  -2359.50336351     A.U. after    9 cycles
 SCF Done:  E(UB3LYP) =  -2359.50336364     A.U. after    9 cycles
 SCF Done:  E(UB3LYP) =  -2359.50336360     A.U. after    8 cycles
 SCF Done:  E(UB3LYP) =  -2359.50336358     A.U. after    8 cycles
 SCF Done:  E(UB3LYP) =  -2359.50336365     A.U. after    8 cycles
 SCF Done:  E(UB3LYP) =  -2359.50336373     A.U. after    8 cycles
 SCF Done:  E(UB3LYP) =  -2359.50336379     A.U. after    8 cycles
 SCF Done:  E(UB3LYP) =  -2359.50336383     A.U. after    8 cycles
 Optimization completed.
    -- Stationary point found.

                         Standard orientation:
 ---------------------------------------------------------------------
 Center     Atomic      Atomic             Coordinates (Angstroms)
 Number     Number       Type             X           Y           Z
 ---------------------------------------------------------------------
      1          6           0       -3.207036   -2.840745    0.257466
      2          6           0       -2.613570   -1.511840    0.200102
      3          6           0       -3.426360   -0.379441   -0.030369
      4          6           0       -4.823976   -0.514550   -0.207067
      5          6           0       -5.446821   -1.832497   -0.156055
      6          6           0       -1.231615   -1.352077    0.380061
      7          6           0       -2.816615    0.917645   -0.083720
      8          6           0       -1.409998    1.054666    0.090614
      9          6           0       -0.617349   -0.106693    0.336495
     10          6           0       -0.820457    2.390285    0.004252
     11          6           0       -3.080482    3.381932   -0.375874
     12          6           0       -3.648755    2.042673   -0.313313
     13          6           0       -5.038154    1.878448   -0.484095
     14          6           0       -5.617128    0.626845   -0.433015
     15          1           0       -6.684232    0.503623   -0.565203
     16          1           0       -5.642498    2.759423   -0.657100
     17          1           0       -0.631354   -2.233498    0.564963
     18          7           0       -1.694925    3.472231   -0.208008
     19          7           0       -4.593030   -2.924918    0.072528
     20          8           0       -2.556970   -3.874871    0.456841
     21          8           0       -6.662272   -2.010025   -0.303542
     22          8           0       -3.760621    4.398666   -0.567420
     23          8           0        0.386329    2.630154    0.102093
     24          6           0       -1.068183    4.797953   -0.272825
     25          1           0       -0.505484    4.986979    0.641329
     26          1           0       -0.380382    4.847667   -1.118148
     27          1           0       -1.855243    5.535045   -0.389898
     28          6           0       -5.174684   -4.271242    0.128194
     29          1           0       -4.719664   -4.904220   -0.634168
     30          1           0       -4.989221   -4.718177    1.105625
     31          1           0       -6.241739   -4.183878   -0.045764
     32          6           0        0.848343   -0.081466    0.572402
     33          6           0        1.509166    0.038862    1.762605
     34         16           0        1.960703   -0.356141   -0.741219
     35          6           0        2.924383   -0.057302    1.625028
     36          1           0        0.998548    0.206755    2.699829
     37          6           0        3.362175   -0.271416    0.327429
     38          8           0        3.833714    0.031658    2.637023
     39          6           0        4.717677   -0.421910   -0.148172
     40          6           0        3.346500    0.297376    3.955971
     41          6           0        5.152785   -0.656341   -1.445254
     42         16           0        6.116505   -0.316033    0.919297
     43          1           0        4.226410    0.344286    4.594533
     44          1           0        2.816306    1.253050    3.992728
     45          1           0        2.688426   -0.505185    4.300323
     46          6           0        6.569168   -0.747823   -1.582001
     47          8           0        4.240249   -0.776771   -2.451196
     48          6           0        7.215291   -0.583492   -0.390137
     49          1           0        7.082133   -0.926444   -2.515855
     50          6           0        4.729101   -1.025022   -3.772648
     51          1           0        8.277563   -0.605656   -0.200905
     52          1           0        5.278598   -1.969563   -3.816588
     53          1           0        3.848656   -1.086908   -4.409141
     54          1           0        5.369644   -0.207135   -4.114278
 ---------------------------------------------------------------------

 The electronic state is 2-A.
 Alpha  occ. eigenvalues --  -88.87904 -88.87493 -19.16211 -19.16201 -19.09901
 Alpha  occ. eigenvalues --  -19.09890 -19.09723 -19.09580 -14.36732 -14.36521
 Alpha  occ. eigenvalues --  -10.28352 -10.28175 -10.28149 -10.28139 -10.23874
 Alpha  occ. eigenvalues --  -10.23798 -10.22447 -10.22423 -10.21219 -10.21028
 Alpha  occ. eigenvalues --  -10.20873 -10.20509 -10.20446 -10.20302 -10.20100
 Alpha  occ. eigenvalues --  -10.19739 -10.19654 -10.19607 -10.18951 -10.18929
 Alpha  occ. eigenvalues --  -10.18927 -10.18477 -10.18256 -10.18229 -10.18190
 Alpha  occ. eigenvalues --  -10.17651  -7.96467  -7.96056  -5.92775  -5.92391
 Alpha  occ. eigenvalues --   -5.92378  -5.92037  -5.91992  -5.91600  -1.07532
 Alpha  occ. eigenvalues --   -1.07449  -1.05840  -1.05764  -1.03777  -1.03681
 Alpha  occ. eigenvalues --   -0.93936  -0.93690  -0.89912  -0.89155  -0.87717
 Alpha  occ. eigenvalues --   -0.84185  -0.81907  -0.78697  -0.76333  -0.75890
 Alpha  occ. eigenvalues --   -0.75296  -0.74272  -0.73457  -0.72141  -0.70761
 Alpha  occ. eigenvalues --   -0.70192  -0.69332  -0.67483  -0.65137  -0.64082
 Alpha  occ. eigenvalues --   -0.63142  -0.62655  -0.59743  -0.58515  -0.56673
 Alpha  occ. eigenvalues --   -0.55669  -0.55248  -0.54979  -0.53866  -0.53046
 Alpha  occ. eigenvalues --   -0.51582  -0.49513  -0.48980  -0.48262  -0.47913
 Alpha  occ. eigenvalues --   -0.47781  -0.47656  -0.47339  -0.47230  -0.46981
 Alpha  occ. eigenvalues --   -0.46573  -0.45110  -0.45004  -0.44739  -0.44480
 Alpha  occ. eigenvalues --   -0.43986  -0.43240  -0.42874  -0.42525  -0.42145
 Alpha  occ. eigenvalues --   -0.41254  -0.40880  -0.40788  -0.40408  -0.40402
 Alpha  occ. eigenvalues --   -0.40263  -0.39837  -0.39684  -0.39141  -0.38280
 Alpha  occ. eigenvalues --   -0.38058  -0.37526  -0.37312  -0.36868  -0.35539
 Alpha  occ. eigenvalues --   -0.34835  -0.33722  -0.33628  -0.33125  -0.32881
 Alpha  occ. eigenvalues --   -0.32748  -0.30089  -0.29204  -0.28667  -0.28217
 Alpha  occ. eigenvalues --   -0.27773  -0.27452  -0.26803  -0.26620  -0.26108
 Alpha  occ. eigenvalues --   -0.24395  -0.24359  -0.24098  -0.18768  -0.15643
 Alpha virt. eigenvalues --   -0.05816  -0.04594  -0.03801  -0.02953  -0.00301
 Alpha virt. eigenvalues --   -0.00095   0.00323   0.00810   0.01012   0.01064
 Alpha virt. eigenvalues --    0.01507   0.02275   0.02377   0.02474   0.02567

  Beta  occ. eigenvalues --  -88.87904 -88.87488 -19.16210 -19.16201 -19.09703
  Beta  occ. eigenvalues --  -19.09686 -19.09533 -19.09361 -14.36788 -14.36577
  Beta  occ. eigenvalues --  -10.28290 -10.28114 -10.28096 -10.28080 -10.23874
  Beta  occ. eigenvalues --  -10.23797 -10.22447 -10.22423 -10.21219 -10.21036
  Beta  occ. eigenvalues --  -10.20871 -10.20565 -10.20357 -10.20344 -10.20100
  Beta  occ. eigenvalues --  -10.19738 -10.19606 -10.19476 -10.18793 -10.18765
  Beta  occ. eigenvalues --  -10.18757 -10.18407 -10.18229 -10.18168 -10.18106
  Beta  occ. eigenvalues --  -10.17643  -7.96467  -7.96052  -5.92775  -5.92391
  Beta  occ. eigenvalues --   -5.92371  -5.92037  -5.91986  -5.91597  -1.07532
  Beta  occ. eigenvalues --   -1.07448  -1.05585  -1.05506  -1.03431  -1.03331
  Beta  occ. eigenvalues --   -0.93814  -0.93572  -0.89796  -0.89096  -0.87682
  Beta  occ. eigenvalues --   -0.83861  -0.81595  -0.78566  -0.76227  -0.75514
  Beta  occ. eigenvalues --   -0.75164  -0.74253  -0.73384  -0.72102  -0.70719
  Beta  occ. eigenvalues --   -0.69856  -0.69211  -0.67386  -0.64983  -0.63878
  Beta  occ. eigenvalues --   -0.63054  -0.62464  -0.59706  -0.58462  -0.56588
  Beta  occ. eigenvalues --   -0.55534  -0.55244  -0.54868  -0.53862  -0.52898
  Beta  occ. eigenvalues --   -0.51458  -0.49343  -0.48914  -0.47981  -0.47723
  Beta  occ. eigenvalues --   -0.47658  -0.47626  -0.47333  -0.47161  -0.46861
  Beta  occ. eigenvalues --   -0.46536  -0.45052  -0.44852  -0.44718  -0.44372
  Beta  occ. eigenvalues --   -0.43878  -0.43067  -0.42696  -0.42367  -0.41884
  Beta  occ. eigenvalues --   -0.41205  -0.40863  -0.40710  -0.40156  -0.39954
  Beta  occ. eigenvalues --   -0.39807  -0.39482  -0.39103  -0.38773  -0.38144
  Beta  occ. eigenvalues --   -0.38034  -0.37316  -0.37041  -0.36791  -0.35530
  Beta  occ. eigenvalues --   -0.34750  -0.33629  -0.33404  -0.33078  -0.32858
  Beta  occ. eigenvalues --   -0.32102  -0.29057  -0.29012  -0.28525  -0.27644
  Beta  occ. eigenvalues --   -0.27528  -0.27121  -0.26607  -0.25946  -0.25932
  Beta  occ. eigenvalues --   -0.24376  -0.24080  -0.22775  -0.18760
  Beta virt. eigenvalues --   -0.11017  -0.04696  -0.04516  -0.02992  -0.02267
  Beta virt. eigenvalues --   -0.00284  -0.00090   0.00332   0.00817   0.01027
  Beta virt. eigenvalues --    0.01073   0.01514   0.02361   0.02518   0.02846

 Mulliken charges and spin densities:
               1          2
     1  C    0.442711   0.025541
     2  C    0.021236   0.124729
     3  C    0.213505  -0.039732
     4  C    0.174761   0.111028
     5  C    0.286648   0.026640
     6  C   -0.611088   0.055273
     7  C    0.203641  -0.035833
     8  C   -0.072117   0.132491
     9  C    0.524331   0.074216
    10  C   -0.375690   0.024766
    11  C    0.223456   0.026141
    12  C    0.194654   0.113115
    13  C   -0.566520   0.058990
    14  C   -0.655731   0.066460
    15  H    0.144433  -0.004679
    16  H    0.144917  -0.004338
    17  H    0.137958  -0.003653
    18  N   -0.156811  -0.022938
    19  N   -0.139286  -0.023511
    20  O   -0.428208   0.075485
    21  O   -0.419482   0.073366
    22  O   -0.420050   0.071078
    23  O   -0.267169   0.081985
    24  C   -0.227615   0.001324
    25  H    0.171400  -0.000925
    26  H    0.174160  -0.001057
    27  H    0.174831  -0.000346
    28  C   -0.208778   0.001433
    29  H    0.171285  -0.000985
    30  H    0.172439  -0.001023
    31  H    0.173956  -0.000348
    32  C    0.096283  -0.027139
    33  C   -0.513618   0.007119
    34  S   -0.108583   0.007951
    35  C   -0.142042   0.003073
    36  H    0.139452  -0.000163
    37  C    0.216759   0.005225
    38  O   -0.174884   0.000014
    39  C    0.735203  -0.000201
    40  C   -0.235166   0.000229
    41  C    0.048405  -0.000770
    42  S   -0.255462   0.000201
    43  H    0.173810  -0.000010
    44  H    0.163607   0.000032
    45  H    0.160384  -0.000018
    46  C   -0.535955  -0.000611
    47  O   -0.179996   0.000257
    48  C   -0.374519  -0.000013
    49  H    0.158283   0.000000
    50  C   -0.246384   0.000119
    51  H    0.185228   0.000006
    52  H    0.157311  -0.000001
    53  H    0.171800   0.000007
    54  H    0.158304   0.000002
 Sum of Mulliken charges =  -1.00000   1.00000

 Dipole moment (field-independent basis, Debye):
    X=             13.9908    Y=             -1.1268    Z=              0.4725  Tot=             14.0441
 Quadrupole moment (field-independent basis, Debye-Ang):
   XX=           -299.9505   YY=           -275.0385   ZZ=           -198.7544
   XY=             -1.4607   XZ=            -16.6824   YZ=             10.5262

 Normal termination of Gaussian 16 at Thu Oct 28 08:38:14 2021.
