 Gaussian 16, Revision C.01,
 Gaussian 16:  ES64L-G16RevC.01  3-Jul-2019

 ---------------------------------------------------------------
 # opt=modredundant b3lyp/6-311+g(d,p) scrf=(pcm, solvent=water)
 ---------------------------------------------------------------

 -----------
 NDI_-60.pdb
 -----------
 Symbolic Z-matrix:
 Charge = -1 Multiplicity = 2

 SCF Done:  E(UB3LYP) =  -2359.49757372     A.U. after   22 cycles
 SCF Done:  E(UB3LYP) =  -2359.50260778     A.U. after   18 cycles
 SCF Done:  E(UB3LYP) =  -2359.50337817     A.U. after   17 cycles
 SCF Done:  E(UB3LYP) =  -2359.50352371     A.U. after   16 cycles
 SCF Done:  E(UB3LYP) =  -2359.50370962     A.U. after   15 cycles
 SCF Done:  E(UB3LYP) =  -2359.50375511     A.U. after   13 cycles
 SCF Done:  E(UB3LYP) =  -2359.50376909     A.U. after   13 cycles
 SCF Done:  E(UB3LYP) =  -2359.50377576     A.U. after   11 cycles
 SCF Done:  E(UB3LYP) =  -2359.50378469     A.U. after   13 cycles
 SCF Done:  E(UB3LYP) =  -2359.50379150     A.U. after   11 cycles
 SCF Done:  E(UB3LYP) =  -2359.50381125     A.U. after   12 cycles
 SCF Done:  E(UB3LYP) =  -2359.50382275     A.U. after   12 cycles
 SCF Done:  E(UB3LYP) =  -2359.50382583     A.U. after   13 cycles
 SCF Done:  E(UB3LYP) =  -2359.50382722     A.U. after   13 cycles
 SCF Done:  E(UB3LYP) =  -2359.50382795     A.U. after   13 cycles
 SCF Done:  E(UB3LYP) =  -2359.50382897     A.U. after    9 cycles
 SCF Done:  E(UB3LYP) =  -2359.50383009     A.U. after   10 cycles
 SCF Done:  E(UB3LYP) =  -2359.50383052     A.U. after   10 cycles
 SCF Done:  E(UB3LYP) =  -2359.50383059     A.U. after   12 cycles
 SCF Done:  E(UB3LYP) =  -2359.50383064     A.U. after    8 cycles
 Optimization completed.
    -- Stationary point found.

                         Standard orientation:
 ---------------------------------------------------------------------
 Center     Atomic      Atomic             Coordinates (Angstroms)
 Number     Number       Type             X           Y           Z
 ---------------------------------------------------------------------
      1          6           0        2.918961   -2.900152    0.527256
      2          6           0        2.453926   -1.540282    0.288694
      3          6           0        3.384235   -0.501137    0.058368
      4          6           0        4.774726   -0.759618    0.060299
      5          6           0        5.270500   -2.110357    0.302092
      6          6           0        1.083448   -1.251768    0.330425
      7          6           0        2.898609    0.825747   -0.187218
      8          6           0        1.498187    1.085644   -0.198606
      9          6           0        0.586316    0.032155    0.123589
     10          6           0        1.044220    2.408222   -0.628604
     11          6           0        3.405656    3.214067   -0.697550
     12          6           0        3.846252    1.852777   -0.427495
     13          6           0        5.226486    1.568028   -0.412905
     14          6           0        5.685371    0.288768   -0.174219
     15          1           0        6.745505    0.071465   -0.167427
     16          1           0        5.920081    2.378218   -0.596984
     17          1           0        0.400199   -2.053461    0.578936
     18          7           0        2.023658    3.411574   -0.766213
     19          7           0        4.304490   -3.107343    0.519140
     20          8           0        2.162961   -3.858078    0.732651
     21          8           0        6.474591   -2.393235    0.318927
     22          8           0        4.186783    4.158010   -0.876979
     23          8           0       -0.125697    2.699425   -0.892534
     24          6           0        1.531664    4.751732   -1.106675
     25          1           0        1.183970    4.782481   -2.141572
     26          1           0        0.698969    5.008151   -0.454397
     27          1           0        2.348912    5.453393   -0.976256
     28          6           0        4.756957   -4.482277    0.762299
     29          1           0        4.414110   -4.820215    1.740911
     30          1           0        4.347533   -5.148829    0.002551
     31          1           0        5.840916   -4.491502    0.722858
     32          6           0       -0.861519    0.232439    0.330385
     33          6           0       -1.492728    1.018645    1.257690
     34         16           0       -2.015486   -0.705029   -0.583777
     35          6           0       -2.906518    0.882181    1.233691
     36          1           0       -0.956779    1.671890    1.930435
     37          6           0       -3.383532   -0.016199    0.288054
     38          8           0       -3.787611    1.532926    2.044640
     39          6           0       -4.751935   -0.373666    0.002534
     40          6           0       -3.265698    2.488685    2.973075
     41          6           0       -5.224631   -1.287819   -0.930008
     42         16           0       -6.120702    0.351159    0.844794
     43          1           0       -4.128321    2.899097    3.494209
     44          1           0       -2.597397    2.010196    3.694324
     45          1           0       -2.736147    3.291436    2.452669
     46          6           0       -6.644773   -1.405137   -0.969415
     47          8           0       -4.340589   -1.975016   -1.706857
     48          6           0       -7.256538   -0.581013   -0.068303
     49          1           0       -7.184738   -2.066786   -1.631063
     50          6           0       -4.865911   -2.912588   -2.651537
     51          1           0       -8.313521   -0.466890    0.117392
     52          1           0       -5.505512   -2.413676   -3.384949
     53          1           0       -4.002692   -3.342934   -3.155219
     54          1           0       -5.426980   -3.704437   -2.147457
 ---------------------------------------------------------------------

 The electronic state is 2-A.
 Alpha  occ. eigenvalues --  -88.87952 -88.87690 -19.16290 -19.16245 -19.09916
 Alpha  occ. eigenvalues --  -19.09891 -19.09678 -19.09532 -14.36729 -14.36450
 Alpha  occ. eigenvalues --  -10.28361 -10.28176 -10.28138 -10.28072 -10.23968
 Alpha  occ. eigenvalues --  -10.23896 -10.22478 -10.22442 -10.21285 -10.21057
 Alpha  occ. eigenvalues --  -10.21035 -10.20522 -10.20467 -10.20228 -10.20172
 Alpha  occ. eigenvalues --  -10.19739 -10.19620 -10.19511 -10.18939 -10.18911
 Alpha  occ. eigenvalues --  -10.18858 -10.18494 -10.18273 -10.18208 -10.18146
 Alpha  occ. eigenvalues --  -10.17697  -7.96515  -7.96253  -5.92823  -5.92570
 Alpha  occ. eigenvalues --   -5.92439  -5.92186  -5.92085  -5.91805  -1.07615
 Alpha  occ. eigenvalues --   -1.07520  -1.05847  -1.05708  -1.03790  -1.03620
 Alpha  occ. eigenvalues --   -0.93931  -0.93641  -0.89958  -0.89191  -0.87802
 Alpha  occ. eigenvalues --   -0.84172  -0.81870  -0.78754  -0.76440  -0.75851
 Alpha  occ. eigenvalues --   -0.75322  -0.74362  -0.73434  -0.72209  -0.70739
 Alpha  occ. eigenvalues --   -0.70276  -0.69325  -0.67506  -0.65124  -0.64039
 Alpha  occ. eigenvalues --   -0.63198  -0.62604  -0.59796  -0.58569  -0.56649
 Alpha  occ. eigenvalues --   -0.55655  -0.55309  -0.55013  -0.53929  -0.53114
 Alpha  occ. eigenvalues --   -0.51549  -0.49517  -0.48997  -0.48234  -0.47887
 Alpha  occ. eigenvalues --   -0.47762  -0.47709  -0.47382  -0.47221  -0.46997
 Alpha  occ. eigenvalues --   -0.46559  -0.45174  -0.45029  -0.44685  -0.44433
 Alpha  occ. eigenvalues --   -0.43974  -0.43198  -0.42873  -0.42436  -0.42117
 Alpha  occ. eigenvalues --   -0.41327  -0.41006  -0.40853  -0.40449  -0.40361
 Alpha  occ. eigenvalues --   -0.40208  -0.39867  -0.39554  -0.39117  -0.38529
 Alpha  occ. eigenvalues --   -0.38109  -0.37620  -0.37202  -0.36845  -0.35645
 Alpha  occ. eigenvalues --   -0.34881  -0.34073  -0.33540  -0.33244  -0.32975
 Alpha  occ. eigenvalues --   -0.32668  -0.30074  -0.29309  -0.28777  -0.28135
 Alpha  occ. eigenvalues --   -0.27914  -0.27368  -0.26850  -0.26452  -0.26167
 Alpha  occ. eigenvalues --   -0.24501  -0.24225  -0.24064  -0.18895  -0.15524
 Alpha virt. eigenvalues --   -0.06007  -0.05002  -0.03480  -0.02799  -0.00283
 Alpha virt. eigenvalues --    0.00019   0.00364   0.00778   0.00877   0.01187
 Alpha virt. eigenvalues --    0.01640   0.02297   0.02395   0.02434   0.02599

  Beta  occ. eigenvalues --  -88.87952 -88.87687 -19.16284 -19.16248 -19.09722
  Beta  occ. eigenvalues --  -19.09691 -19.09493 -19.09329 -14.36785 -14.36504
  Beta  occ. eigenvalues --  -10.28300 -10.28116 -10.28083 -10.28015 -10.23955
  Beta  occ. eigenvalues --  -10.23908 -10.22478 -10.22441 -10.21292 -10.21058
  Beta  occ. eigenvalues --  -10.21027 -10.20521 -10.20421 -10.20283 -10.20160
  Beta  occ. eigenvalues --  -10.19739 -10.19619 -10.19340 -10.18785 -10.18743
  Beta  occ. eigenvalues --  -10.18699 -10.18425 -10.18277 -10.18124 -10.18063
  Beta  occ. eigenvalues --  -10.17668  -7.96514  -7.96249  -5.92823  -5.92566
  Beta  occ. eigenvalues --   -5.92439  -5.92183  -5.92083  -5.91798  -1.07607
  Beta  occ. eigenvalues --   -1.07521  -1.05596  -1.05462  -1.03448  -1.03287
  Beta  occ. eigenvalues --   -0.93812  -0.93528  -0.89854  -0.89115  -0.87763
  Beta  occ. eigenvalues --   -0.83854  -0.81565  -0.78620  -0.76329  -0.75490
  Beta  occ. eigenvalues --   -0.75185  -0.74339  -0.73364  -0.72164  -0.70695
  Beta  occ. eigenvalues --   -0.69966  -0.69186  -0.67400  -0.64971  -0.63839
  Beta  occ. eigenvalues --   -0.63115  -0.62406  -0.59756  -0.58514  -0.56564
  Beta  occ. eigenvalues --   -0.55530  -0.55295  -0.54904  -0.53918  -0.52963
  Beta  occ. eigenvalues --   -0.51433  -0.49364  -0.48913  -0.47960  -0.47733
  Beta  occ. eigenvalues --   -0.47688  -0.47604  -0.47374  -0.47155  -0.46874
  Beta  occ. eigenvalues --   -0.46516  -0.45122  -0.44919  -0.44620  -0.44310
  Beta  occ. eigenvalues --   -0.43880  -0.43019  -0.42699  -0.42274  -0.41887
  Beta  occ. eigenvalues --   -0.41263  -0.40949  -0.40773  -0.40196  -0.39931
  Beta  occ. eigenvalues --   -0.39822  -0.39446  -0.39079  -0.38686  -0.38394
  Beta  occ. eigenvalues --   -0.38066  -0.37442  -0.36893  -0.36797  -0.35631
  Beta  occ. eigenvalues --   -0.34788  -0.33879  -0.33411  -0.33178  -0.32953
  Beta  occ. eigenvalues --   -0.32096  -0.29249  -0.28936  -0.28544  -0.27735
  Beta  occ. eigenvalues --   -0.27505  -0.27048  -0.26635  -0.26017  -0.25875
  Beta  occ. eigenvalues --   -0.24341  -0.24070  -0.22733  -0.18731
  Beta virt. eigenvalues --   -0.11060  -0.05276  -0.04345  -0.02757  -0.02256
  Beta virt. eigenvalues --   -0.00267   0.00105   0.00377   0.00784   0.00893
  Beta virt. eigenvalues --    0.01229   0.01652   0.02410   0.02454   0.02775

 Mulliken charges and spin densities:
               1          2
     1  C    0.436357   0.026758
     2  C   -0.141327   0.119355
     3  C    0.110690  -0.037091
     4  C    0.186359   0.106336
     5  C    0.272516   0.026541
     6  C   -0.523365   0.059032
     7  C    0.198793  -0.033150
     8  C    0.145408   0.122505
     9  C    0.491214   0.067257
    10  C   -0.419419   0.028741
    11  C    0.245777   0.025430
    12  C    0.112774   0.106202
    13  C   -0.495752   0.062148
    14  C   -0.623745   0.065545
    15  H    0.144124  -0.004514
    16  H    0.144418  -0.004279
    17  H    0.150340  -0.003284
    18  N   -0.102157  -0.022382
    19  N   -0.137347  -0.023424
    20  O   -0.431394   0.074709
    21  O   -0.418450   0.072123
    22  O   -0.426378   0.068997
    23  O   -0.294205   0.075541
    24  C   -0.205647   0.001296
    25  H    0.176827  -0.001167
    26  H    0.171611  -0.000669
    27  H    0.173890  -0.000387
    28  C   -0.207962   0.001264
    29  H    0.172490  -0.000997
    30  H    0.171393  -0.000979
    31  H    0.173973  -0.000341
    32  C    0.085583  -0.027352
    33  C   -0.458300   0.018977
    34  S   -0.447945   0.008368
    35  C   -0.208096  -0.006342
    36  H    0.146646  -0.001409
    37  C    0.590742   0.023203
    38  O   -0.171195  -0.000505
    39  C    0.708072  -0.006537
    40  C   -0.234975   0.000290
    41  C   -0.010155   0.008071
    42  S   -0.245938   0.000072
    43  H    0.173764  -0.000009
    44  H    0.159909  -0.000066
    45  H    0.162902  -0.000103
    46  C   -0.574709  -0.003732
    47  O   -0.168884   0.001654
    48  C   -0.342124   0.008415
    49  H    0.158850   0.000157
    50  C   -0.250421   0.000019
    51  H    0.185867  -0.000501
    52  H    0.158656   0.000107
    53  H    0.172065   0.000007
    54  H    0.157879   0.000098
 Sum of Mulliken charges =  -1.00000   1.00000

 Dipole moment (field-independent basis, Debye):
    X=            -14.5250    Y=             -0.5977    Z=              1.1289  Tot=             14.5810
 Quadrupole moment (field-independent basis, Debye-Ang):
   XX=           -298.7386   YY=           -258.7999   ZZ=           -215.3164
   XY=              7.4723   XZ=              8.9495   YZ=             26.1751

 Normal termination of Gaussian 16 at Thu Oct 28 07:24:52 2021.
