 Gaussian 16, Revision C.01,
 Gaussian 16:  ES64L-G16RevC.01  3-Jul-2019

 ---------------------------------------------------------------
 # opt=modredundant b3lyp/6-311+g(d,p) scrf=(pcm, solvent=water)
 ---------------------------------------------------------------

 -----------
 NDI_140.pdb
 -----------
 Symbolic Z-matrix:
 Charge = -1 Multiplicity = 2

 SCF Done:  E(UB3LYP) =  -2359.48422876     A.U. after   21 cycles
 SCF Done:  E(UB3LYP) =  -2359.48887505     A.U. after   23 cycles
 SCF Done:  E(UB3LYP) =  -2359.49580481     A.U. after   21 cycles
 SCF Done:  E(UB3LYP) =  -2359.50036848     A.U. after   20 cycles
 SCF Done:  E(UB3LYP) =  -2359.50255664     A.U. after   21 cycles
 SCF Done:  E(UB3LYP) =  -2359.50317867     A.U. after   17 cycles
 SCF Done:  E(UB3LYP) =  -2359.50336462     A.U. after   17 cycles
 SCF Done:  E(UB3LYP) =  -2359.50343007     A.U. after   16 cycles
 SCF Done:  E(UB3LYP) =  -2359.50347842     A.U. after   15 cycles
 SCF Done:  E(UB3LYP) =  -2359.50350726     A.U. after   15 cycles
 SCF Done:  E(UB3LYP) =  -2359.50360233     A.U. after   14 cycles
 SCF Done:  E(UB3LYP) =  -2359.50360309     A.U. after    9 cycles
 SCF Done:  E(UB3LYP) =  -2359.50360353     A.U. after   10 cycles
 SCF Done:  E(UB3LYP) =  -2359.50360388     A.U. after    8 cycles
 SCF Done:  E(UB3LYP) =  -2359.50360426     A.U. after    9 cycles
 SCF Done:  E(UB3LYP) =  -2359.50360503     A.U. after   10 cycles
 SCF Done:  E(UB3LYP) =  -2359.50360540     A.U. after   12 cycles
 SCF Done:  E(UB3LYP) =  -2359.50360541     A.U. after    8 cycles
 SCF Done:  E(UB3LYP) =  -2359.50360541     A.U. after    8 cycles
 SCF Done:  E(UB3LYP) =  -2359.50360533     A.U. after    8 cycles
 Optimization completed.
    -- Stationary point found.

                         Standard orientation:
 ---------------------------------------------------------------------
 Center     Atomic      Atomic             Coordinates (Angstroms)
 Number     Number       Type             X           Y           Z
 ---------------------------------------------------------------------
      1          6           0        3.488940   -2.692213    0.398796
      2          6           0        2.760894   -1.469499    0.085777
      3          6           0        3.422111   -0.219768    0.127047
      4          6           0        4.788673   -0.131891    0.477492
      5          6           0        5.541237   -1.338874    0.804196
      6          6           0        1.389952   -1.523908   -0.195872
      7          6           0        2.686760    0.965211   -0.204578
      8          6           0        1.312826    0.876971   -0.566495
      9          6           0        0.643284   -0.385883   -0.496001
     10          6           0        0.678399    2.064066   -1.135084
     11          6           0        2.670853    3.437024   -0.533335
     12          6           0        3.367331    2.208571   -0.176454
     13          6           0        4.727470    2.268373    0.187911
     14          6           0        5.427560    1.123202    0.509085
     15          1           0        6.473648    1.170675    0.782168
     16          1           0        5.213028    3.235612    0.204301
     17          1           0        0.891319   -2.481329   -0.122525
     18          7           0        1.356422    3.289390   -0.986209
     19          7           0        4.841917   -2.555801    0.736849
     20          8           0        2.978611   -3.819342    0.380603
     21          8           0        6.735748   -1.322182    1.124291
     22          8           0        3.194286    4.557544   -0.473745
     23          8           0       -0.392786    2.059277   -1.749461
     24          6           0        0.649075    4.484459   -1.460779
     25          1           0        0.640400    4.519757   -2.552627
     26          1           0       -0.379701    4.458851   -1.107027
     27          1           0        1.164688    5.357451   -1.074289
     28          6           0        5.561118   -3.796621    1.049092
     29          1           0        5.113306   -4.280172    1.918340
     30          1           0        5.502518   -4.481772    0.203175
     31          1           0        6.595275   -3.543157    1.256217
     32          6           0       -0.814778   -0.568206   -0.590973
     33          6           0       -1.480239   -1.569231   -1.257266
     34         16           0       -1.918540    0.347851    0.407667
     35          6           0       -2.877935   -1.579649   -1.004798
     36          1           0       -0.979546   -2.258502   -1.921857
     37          6           0       -3.306037   -0.605943   -0.112625
     38          8           0       -3.785564   -2.435583   -1.553376
     39          6           0       -4.647031   -0.348837    0.352708
     40          6           0       -3.308236   -3.418219   -2.477735
     41          6           0       -5.073462    0.613372    1.259548
     42         16           0       -6.039151   -1.281914   -0.195616
     43          1           0       -4.184245   -3.982961   -2.790398
     44          1           0       -2.848008   -2.944845   -3.349457
     45          1           0       -2.591350   -4.091243   -1.999328
     46          6           0       -6.477285    0.605298    1.506607
     47          8           0       -4.164907    1.456705    1.824276
     48          6           0       -7.122306   -0.362803    0.790907
     49          1           0       -6.982632    1.281448    2.180745
     50          6           0       -4.643751    2.433613    2.753967
     51          1           0       -8.176572   -0.593574    0.785215
     52          1           0       -5.110754    1.955076    3.619267
     53          1           0       -3.767312    2.992069    3.076398
     54          1           0       -5.355022    3.113478    2.276848
 ---------------------------------------------------------------------

 The electronic state is 2-A.
 Alpha  occ. eigenvalues --  -88.87990 -88.87442 -19.16331 -19.16276 -19.09941
 Alpha  occ. eigenvalues --  -19.09907 -19.09688 -19.09587 -14.36735 -14.36450
 Alpha  occ. eigenvalues --  -10.28386 -10.28194 -10.28121 -10.28082 -10.24050
 Alpha  occ. eigenvalues --  -10.23900 -10.22495 -10.22461 -10.21316 -10.21166
 Alpha  occ. eigenvalues --  -10.21164 -10.20500 -10.20434 -10.20232 -10.20196
 Alpha  occ. eigenvalues --  -10.19743 -10.19649 -10.19372 -10.18953 -10.18911
 Alpha  occ. eigenvalues --  -10.18848 -10.18518 -10.18302 -10.18211 -10.18144
 Alpha  occ. eigenvalues --  -10.17908  -7.96553  -7.96013  -5.92861  -5.92477
 Alpha  occ. eigenvalues --   -5.92336  -5.92123  -5.91951  -5.91550  -1.07665
 Alpha  occ. eigenvalues --   -1.07552  -1.05863  -1.05714  -1.03811  -1.03630
 Alpha  occ. eigenvalues --   -0.93938  -0.93669  -0.89955  -0.89206  -0.87807
 Alpha  occ. eigenvalues --   -0.84171  -0.81862  -0.78842  -0.76350  -0.75932
 Alpha  occ. eigenvalues --   -0.75333  -0.74375  -0.73436  -0.72267  -0.70782
 Alpha  occ. eigenvalues --   -0.70063  -0.69481  -0.67554  -0.65096  -0.64066
 Alpha  occ. eigenvalues --   -0.63178  -0.62626  -0.59789  -0.58601  -0.56667
 Alpha  occ. eigenvalues --   -0.55740  -0.55348  -0.55002  -0.53976  -0.52935
 Alpha  occ. eigenvalues --   -0.51715  -0.49441  -0.48936  -0.48279  -0.47903
 Alpha  occ. eigenvalues --   -0.47782  -0.47690  -0.47402  -0.47312  -0.46990
 Alpha  occ. eigenvalues --   -0.46569  -0.45192  -0.45122  -0.44666  -0.44557
 Alpha  occ. eigenvalues --   -0.43814  -0.43210  -0.43007  -0.42501  -0.42074
 Alpha  occ. eigenvalues --   -0.41364  -0.41018  -0.40839  -0.40483  -0.40352
 Alpha  occ. eigenvalues --   -0.40143  -0.39882  -0.39594  -0.39182  -0.38573
 Alpha  occ. eigenvalues --   -0.38059  -0.37559  -0.37158  -0.36871  -0.35602
 Alpha  occ. eigenvalues --   -0.34903  -0.34400  -0.33564  -0.33221  -0.33043
 Alpha  occ. eigenvalues --   -0.32421  -0.30017  -0.29293  -0.28879  -0.28138
 Alpha  occ. eigenvalues --   -0.27938  -0.27348  -0.26888  -0.26377  -0.26276
 Alpha  occ. eigenvalues --   -0.24603  -0.24275  -0.23928  -0.18960  -0.15482
 Alpha virt. eigenvalues --   -0.06177  -0.05201  -0.03335  -0.02702  -0.00305
 Alpha virt. eigenvalues --    0.00029   0.00370   0.00698   0.00823   0.01390
 Alpha virt. eigenvalues --    0.01665   0.02317   0.02383   0.02513   0.02572

  Beta  occ. eigenvalues --  -88.87990 -88.87436 -19.16321 -19.16281 -19.09750
  Beta  occ. eigenvalues --  -19.09709 -19.09506 -19.09389 -14.36790 -14.36503
  Beta  occ. eigenvalues --  -10.28325 -10.28135 -10.28066 -10.28026 -10.24031
  Beta  occ. eigenvalues --  -10.23915 -10.22495 -10.22461 -10.21327 -10.21195
  Beta  occ. eigenvalues --  -10.21127 -10.20487 -10.20392 -10.20251 -10.20215
  Beta  occ. eigenvalues --  -10.19743 -10.19648 -10.19206 -10.18802 -10.18744
  Beta  occ. eigenvalues --  -10.18692 -10.18453 -10.18308 -10.18129 -10.18060
  Beta  occ. eigenvalues --  -10.17870  -7.96552  -7.96007  -5.92861  -5.92477
  Beta  occ. eigenvalues --   -5.92328  -5.92121  -5.91945  -5.91540  -1.07651
  Beta  occ. eigenvalues --   -1.07557  -1.05615  -1.05473  -1.03474  -1.03303
  Beta  occ. eigenvalues --   -0.93820  -0.93559  -0.89851  -0.89128  -0.87765
  Beta  occ. eigenvalues --   -0.83856  -0.81562  -0.78704  -0.76247  -0.75599
  Beta  occ. eigenvalues --   -0.75173  -0.74338  -0.73366  -0.72203  -0.70739
  Beta  occ. eigenvalues --   -0.69768  -0.69346  -0.67447  -0.64943  -0.63872
  Beta  occ. eigenvalues --   -0.63070  -0.62463  -0.59734  -0.58542  -0.56590
  Beta  occ. eigenvalues --   -0.55606  -0.55332  -0.54885  -0.53962  -0.52803
  Beta  occ. eigenvalues --   -0.51596  -0.49268  -0.48878  -0.48004  -0.47745
  Beta  occ. eigenvalues --   -0.47690  -0.47607  -0.47394  -0.47232  -0.46872
  Beta  occ. eigenvalues --   -0.46523  -0.45127  -0.45050  -0.44533  -0.44489
  Beta  occ. eigenvalues --   -0.43708  -0.43044  -0.42809  -0.42366  -0.41830
  Beta  occ. eigenvalues --   -0.41314  -0.40967  -0.40773  -0.40156  -0.39936
  Beta  occ. eigenvalues --   -0.39853  -0.39432  -0.39122  -0.38791  -0.38442
  Beta  occ. eigenvalues --   -0.37954  -0.37359  -0.36942  -0.36771  -0.35589
  Beta  occ. eigenvalues --   -0.34801  -0.34111  -0.33461  -0.33188  -0.33030
  Beta  occ. eigenvalues --   -0.31859  -0.29180  -0.28944  -0.28604  -0.27833
  Beta  occ. eigenvalues --   -0.27480  -0.27052  -0.26682  -0.26116  -0.25789
  Beta  occ. eigenvalues --   -0.24464  -0.23962  -0.22731  -0.18728
  Beta virt. eigenvalues --   -0.11089  -0.05532  -0.04408  -0.02572  -0.02260
  Beta virt. eigenvalues --   -0.00289   0.00154   0.00383   0.00709   0.00858
  Beta virt. eigenvalues --    0.01399   0.01689   0.02356   0.02578   0.02886

 Mulliken charges and spin densities:
               1          2
     1  C    0.394267   0.027011
     2  C   -0.124005   0.118507
     3  C    0.125388  -0.038492
     4  C    0.194835   0.104086
     5  C    0.261255   0.025554
     6  C   -0.282722   0.051967
     7  C    0.169890  -0.032704
     8  C    0.095770   0.124313
     9  C    0.291342   0.069933
    10  C   -0.459646   0.024108
    11  C    0.321276   0.025894
    12  C    0.051108   0.104871
    13  C   -0.491347   0.060305
    14  C   -0.579475   0.063514
    15  H    0.144187  -0.004446
    16  H    0.144481  -0.004184
    17  H    0.144337  -0.002906
    18  N   -0.030940  -0.022139
    19  N   -0.135785  -0.023116
    20  O   -0.430646   0.073950
    21  O   -0.418414   0.070896
    22  O   -0.428833   0.067764
    23  O   -0.359519   0.074654
    24  C   -0.190035   0.001387
    25  H    0.177639  -0.001178
    26  H    0.173676  -0.000601
    27  H    0.174826  -0.000403
    28  C   -0.205825   0.001288
    29  H    0.173529  -0.001016
    30  H    0.170696  -0.000933
    31  H    0.174392  -0.000336
    32  C    0.189422  -0.014534
    33  C   -0.591726   0.028625
    34  S   -0.608611   0.011106
    35  C   -0.090610  -0.009556
    36  H    0.155140  -0.001290
    37  C    0.530725   0.016403
    38  O   -0.168772  -0.000730
    39  C    0.820912  -0.008459
    40  C   -0.235590   0.000071
    41  C    0.017651   0.012657
    42  S   -0.238633  -0.000264
    43  H    0.174375   0.000000
    44  H    0.161855  -0.000114
    45  H    0.162672  -0.000102
    46  C   -0.608225  -0.004905
    47  O   -0.167908   0.001533
    48  C   -0.332675   0.012337
    49  H    0.159111   0.000227
    50  C   -0.250845  -0.000127
    51  H    0.186412  -0.000738
    52  H    0.158250   0.000194
    53  H    0.172700  -0.000008
    54  H    0.158670   0.000127
 Sum of Mulliken charges =  -1.00000   1.00000

 Dipole moment (field-independent basis, Debye):
    X=            -14.5565    Y=             -1.8121    Z=              1.1505  Tot=             14.7139
 Quadrupole moment (field-independent basis, Debye-Ang):
   XX=           -292.8473   YY=           -257.5031   ZZ=           -220.1105
   XY=            -11.4585   XZ=            -20.0165   YZ=             22.3590

 Normal termination of Gaussian 16 at Thu Oct 28 11:00:56 2021.
