 Gaussian 16, Revision C.01,
 Gaussian 16:  ES64L-G16RevC.01  3-Jul-2019

 ---------------------------------------------------------------
 # opt=modredundant b3lyp/6-311+g(d,p) scrf=(pcm, solvent=water)
 ---------------------------------------------------------------

 -----------
 NDI_-90.pdb
 -----------
 Symbolic Z-matrix:
 Charge = -1 Multiplicity = 2

 SCF Done:  E(UB3LYP) =  -2359.49558137     A.U. after   21 cycles
 SCF Done:  E(UB3LYP) =  -2359.50239321     A.U. after   18 cycles
 SCF Done:  E(UB3LYP) =  -2359.50319475     A.U. after   16 cycles
 SCF Done:  E(UB3LYP) =  -2359.50308974     A.U. after   15 cycles
 SCF Done:  E(UB3LYP) =  -2359.50334762     A.U. after   14 cycles
 SCF Done:  E(UB3LYP) =  -2359.50334856     A.U. after   12 cycles
 SCF Done:  E(UB3LYP) =  -2359.50335475     A.U. after   12 cycles
 SCF Done:  E(UB3LYP) =  -2359.50335588     A.U. after   10 cycles
 SCF Done:  E(UB3LYP) =  -2359.50335706     A.U. after   10 cycles
 SCF Done:  E(UB3LYP) =  -2359.50335906     A.U. after   10 cycles
 SCF Done:  E(UB3LYP) =  -2359.50336254     A.U. after    9 cycles
 SCF Done:  E(UB3LYP) =  -2359.50336315     A.U. after    9 cycles
 SCF Done:  E(UB3LYP) =  -2359.50336342     A.U. after    9 cycles
 SCF Done:  E(UB3LYP) =  -2359.50336353     A.U. after    9 cycles
 SCF Done:  E(UB3LYP) =  -2359.50336371     A.U. after    7 cycles
 SCF Done:  E(UB3LYP) =  -2359.50336392     A.U. after    8 cycles
 SCF Done:  E(UB3LYP) =  -2359.50336403     A.U. after    8 cycles
 SCF Done:  E(UB3LYP) =  -2359.50336415     A.U. after    8 cycles
 SCF Done:  E(UB3LYP) =  -2359.50336417     A.U. after    8 cycles
 SCF Done:  E(UB3LYP) =  -2359.50336407     A.U. after    8 cycles
 Optimization completed.
    -- Stationary point found.

                         Standard orientation:
 ---------------------------------------------------------------------
 Center     Atomic      Atomic             Coordinates (Angstroms)
 Number     Number       Type             X           Y           Z
 ---------------------------------------------------------------------
      1          6           0        3.206773   -2.840770    0.257896
      2          6           0        2.613413   -1.511847    0.200335
      3          6           0        3.426365   -0.379519   -0.030153
      4          6           0        4.824008   -0.514722   -0.206534
      5          6           0        5.446800   -1.832662   -0.155127
      6          6           0        1.231475   -1.351933    0.379997
      7          6           0        2.816708    0.917608   -0.083918
      8          6           0        1.410065    1.054743    0.090155
      9          6           0        0.617322   -0.106501    0.336190
     10          6           0        0.820539    2.390316    0.003160
     11          6           0        3.080689    3.381799   -0.376960
     12          6           0        3.648919    2.042555   -0.313728
     13          6           0        5.038320    1.878201   -0.484166
     14          6           0        5.617229    0.626589   -0.432610
     15          1           0        6.684363    0.503403   -0.564537
     16          1           0        5.642832    2.759027   -0.657321
     17          1           0        0.631008   -2.233184    0.565022
     18          7           0        1.695139    3.472180   -0.209259
     19          7           0        4.592868   -2.924953    0.073602
     20          8           0        2.556618   -3.874883    0.456923
     21          8           0        6.662235   -2.010322   -0.302430
     22          8           0        3.760867    4.398403   -0.568931
     23          8           0       -0.386253    2.630300    0.100523
     24          6           0        1.068460    4.797920   -0.274697
     25          1           0        0.381676    4.847761   -1.120848
     26          1           0        0.504685    4.986790    0.638807
     27          1           0        1.855634    5.535043   -0.390780
     28          6           0        5.174465   -4.271319    0.129677
     29          1           0        4.986996   -4.718732    1.106486
     30          1           0        4.721076   -4.903953   -0.633961
     31          1           0        6.241858   -4.183837   -0.042087
     32          6           0       -0.848356   -0.081099    0.572128
     33          6           0       -1.509085    0.040142    1.762286
     34         16           0       -1.960845   -0.356941   -0.741156
     35          6           0       -2.924264   -0.056303    1.624981
     36          1           0       -0.998347    0.208796    2.699325
     37          6           0       -3.362188   -0.271471    0.327595
     38          8           0       -3.833483    0.033407    2.637023
     39          6           0       -4.717714   -0.422090   -0.147828
     40          6           0       -3.346152    0.300502    3.955641
     41          6           0       -5.152879   -0.657993   -1.444617
     42         16           0       -6.116544   -0.314428    0.919505
     43          1           0       -4.226000    0.347921    4.594246
     44          1           0       -2.687928   -0.501618    4.300721
     45          1           0       -2.816089    1.256285    3.991390
     46          6           0       -6.569283   -0.749106   -1.581285
     47          8           0       -4.240353   -0.780314   -2.450330
     48          6           0       -7.215377   -0.583084   -0.389642
     49          1           0       -7.082273   -0.928664   -2.514947
     50          6           0       -4.729390   -1.027117   -3.771975
     51          1           0       -8.277659   -0.604626   -0.200421
     52          1           0       -5.368920   -0.208239   -4.113116
     53          1           0       -3.848960   -1.089673   -4.408421
     54          1           0       -5.280014   -1.970967   -3.816591
 ---------------------------------------------------------------------

 The electronic state is 2-A.
 Alpha  occ. eigenvalues --  -88.87904 -88.87493 -19.16211 -19.16201 -19.09901
 Alpha  occ. eigenvalues --  -19.09890 -19.09723 -19.09581 -14.36731 -14.36521
 Alpha  occ. eigenvalues --  -10.28352 -10.28174 -10.28149 -10.28139 -10.23874
 Alpha  occ. eigenvalues --  -10.23798 -10.22447 -10.22423 -10.21219 -10.21028
 Alpha  occ. eigenvalues --  -10.20873 -10.20509 -10.20445 -10.20303 -10.20100
 Alpha  occ. eigenvalues --  -10.19738 -10.19654 -10.19607 -10.18950 -10.18928
 Alpha  occ. eigenvalues --  -10.18927 -10.18477 -10.18255 -10.18229 -10.18190
 Alpha  occ. eigenvalues --  -10.17651  -7.96467  -7.96057  -5.92775  -5.92391
 Alpha  occ. eigenvalues --   -5.92378  -5.92037  -5.91992  -5.91600  -1.07533
 Alpha  occ. eigenvalues --   -1.07449  -1.05841  -1.05765  -1.03778  -1.03682
 Alpha  occ. eigenvalues --   -0.93936  -0.93690  -0.89912  -0.89155  -0.87717
 Alpha  occ. eigenvalues --   -0.84185  -0.81907  -0.78697  -0.76334  -0.75891
 Alpha  occ. eigenvalues --   -0.75296  -0.74272  -0.73456  -0.72141  -0.70760
 Alpha  occ. eigenvalues --   -0.70193  -0.69332  -0.67483  -0.65137  -0.64081
 Alpha  occ. eigenvalues --   -0.63142  -0.62654  -0.59744  -0.58515  -0.56673
 Alpha  occ. eigenvalues --   -0.55669  -0.55249  -0.54979  -0.53866  -0.53046
 Alpha  occ. eigenvalues --   -0.51583  -0.49513  -0.48980  -0.48262  -0.47913
 Alpha  occ. eigenvalues --   -0.47781  -0.47656  -0.47339  -0.47230  -0.46981
 Alpha  occ. eigenvalues --   -0.46573  -0.45110  -0.45003  -0.44739  -0.44480
 Alpha  occ. eigenvalues --   -0.43986  -0.43241  -0.42874  -0.42525  -0.42145
 Alpha  occ. eigenvalues --   -0.41254  -0.40879  -0.40789  -0.40409  -0.40402
 Alpha  occ. eigenvalues --   -0.40263  -0.39837  -0.39684  -0.39141  -0.38281
 Alpha  occ. eigenvalues --   -0.38058  -0.37527  -0.37311  -0.36868  -0.35539
 Alpha  occ. eigenvalues --   -0.34835  -0.33721  -0.33629  -0.33126  -0.32882
 Alpha  occ. eigenvalues --   -0.32747  -0.30089  -0.29204  -0.28668  -0.28217
 Alpha  occ. eigenvalues --   -0.27773  -0.27451  -0.26804  -0.26620  -0.26108
 Alpha  occ. eigenvalues --   -0.24395  -0.24359  -0.24099  -0.18768  -0.15643
 Alpha virt. eigenvalues --   -0.05816  -0.04594  -0.03801  -0.02953  -0.00301
 Alpha virt. eigenvalues --   -0.00095   0.00323   0.00810   0.01013   0.01063
 Alpha virt. eigenvalues --    0.01507   0.02275   0.02378   0.02474   0.02567

  Beta  occ. eigenvalues --  -88.87904 -88.87488 -19.16211 -19.16201 -19.09703
  Beta  occ. eigenvalues --  -19.09687 -19.09533 -19.09361 -14.36788 -14.36577
  Beta  occ. eigenvalues --  -10.28290 -10.28114 -10.28096 -10.28080 -10.23874
  Beta  occ. eigenvalues --  -10.23797 -10.22447 -10.22423 -10.21218 -10.21035
  Beta  occ. eigenvalues --  -10.20871 -10.20566 -10.20358 -10.20343 -10.20100
  Beta  occ. eigenvalues --  -10.19737 -10.19606 -10.19476 -10.18793 -10.18764
  Beta  occ. eigenvalues --  -10.18757 -10.18407 -10.18229 -10.18167 -10.18106
  Beta  occ. eigenvalues --  -10.17642  -7.96467  -7.96052  -5.92775  -5.92391
  Beta  occ. eigenvalues --   -5.92371  -5.92037  -5.91986  -5.91597  -1.07532
  Beta  occ. eigenvalues --   -1.07448  -1.05586  -1.05507  -1.03432  -1.03332
  Beta  occ. eigenvalues --   -0.93813  -0.93572  -0.89796  -0.89096  -0.87682
  Beta  occ. eigenvalues --   -0.83861  -0.81595  -0.78566  -0.76228  -0.75515
  Beta  occ. eigenvalues --   -0.75164  -0.74253  -0.73383  -0.72102  -0.70719
  Beta  occ. eigenvalues --   -0.69857  -0.69211  -0.67387  -0.64983  -0.63877
  Beta  occ. eigenvalues --   -0.63054  -0.62463  -0.59707  -0.58462  -0.56588
  Beta  occ. eigenvalues --   -0.55534  -0.55244  -0.54868  -0.53862  -0.52898
  Beta  occ. eigenvalues --   -0.51458  -0.49343  -0.48914  -0.47980  -0.47722
  Beta  occ. eigenvalues --   -0.47658  -0.47626  -0.47333  -0.47161  -0.46861
  Beta  occ. eigenvalues --   -0.46535  -0.45052  -0.44851  -0.44718  -0.44372
  Beta  occ. eigenvalues --   -0.43878  -0.43067  -0.42696  -0.42367  -0.41884
  Beta  occ. eigenvalues --   -0.41205  -0.40863  -0.40710  -0.40156  -0.39955
  Beta  occ. eigenvalues --   -0.39807  -0.39483  -0.39102  -0.38773  -0.38145
  Beta  occ. eigenvalues --   -0.38034  -0.37316  -0.37040  -0.36791  -0.35530
  Beta  occ. eigenvalues --   -0.34750  -0.33628  -0.33406  -0.33078  -0.32857
  Beta  occ. eigenvalues --   -0.32102  -0.29058  -0.29012  -0.28526  -0.27644
  Beta  occ. eigenvalues --   -0.27527  -0.27121  -0.26607  -0.25946  -0.25932
  Beta  occ. eigenvalues --   -0.24376  -0.24080  -0.22775  -0.18760
  Beta virt. eigenvalues --   -0.11017  -0.04697  -0.04515  -0.02992  -0.02267
  Beta virt. eigenvalues --   -0.00284  -0.00089   0.00332   0.00817   0.01027
  Beta virt. eigenvalues --    0.01073   0.01515   0.02361   0.02518   0.02846

 Mulliken charges and spin densities:
               1          2
     1  C    0.442797   0.025544
     2  C    0.021053   0.124727
     3  C    0.213433  -0.039724
     4  C    0.174826   0.111002
     5  C    0.286636   0.026642
     6  C   -0.611012   0.055293
     7  C    0.203526  -0.035836
     8  C   -0.071621   0.132491
     9  C    0.524770   0.074219
    10  C   -0.376112   0.024775
    11  C    0.223558   0.026134
    12  C    0.194575   0.113115
    13  C   -0.566492   0.058976
    14  C   -0.655790   0.066475
    15  H    0.144428  -0.004680
    16  H    0.144912  -0.004338
    17  H    0.137968  -0.003654
    18  N   -0.156845  -0.022940
    19  N   -0.139331  -0.023514
    20  O   -0.428203   0.075489
    21  O   -0.419459   0.073358
    22  O   -0.420053   0.071072
    23  O   -0.267105   0.081986
    24  C   -0.227646   0.001324
    25  H    0.174184  -0.001058
    26  H    0.171387  -0.000924
    27  H    0.174828  -0.000346
    28  C   -0.208774   0.001433
    29  H    0.172390  -0.001021
    30  H    0.171325  -0.000987
    31  H    0.173954  -0.000348
    32  C    0.096201  -0.027129
    33  C   -0.513929   0.007123
    34  S   -0.108701   0.007936
    35  C   -0.141782   0.003051
    36  H    0.139457  -0.000164
    37  C    0.217030   0.005250
    38  O   -0.174913   0.000014
    39  C    0.735173  -0.000202
    40  C   -0.235179   0.000230
    41  C    0.048136  -0.000768
    42  S   -0.255526   0.000201
    43  H    0.173806  -0.000010
    44  H    0.160370  -0.000019
    45  H    0.163619   0.000031
    46  C   -0.535922  -0.000613
    47  O   -0.179987   0.000257
    48  C   -0.374492  -0.000009
    49  H    0.158282   0.000001
    50  C   -0.246405   0.000119
    51  H    0.185228   0.000006
    52  H    0.158331   0.000002
    53  H    0.171801   0.000007
    54  H    0.157292  -0.000001
 Sum of Mulliken charges =  -1.00000   1.00000

 Dipole moment (field-independent basis, Debye):
    X=            -13.9910    Y=             -1.1216    Z=              0.4748  Tot=             14.0439
 Quadrupole moment (field-independent basis, Debye-Ang):
   XX=           -299.9464   YY=           -275.0363   ZZ=           -198.7625
   XY=              1.4534   XZ=             16.6884   YZ=             10.5519

 Normal termination of Gaussian 16 at Thu Oct 28 08:03:06 2021.
