 Gaussian 16, Revision C.01,
 Gaussian 16:  ES64L-G16RevC.01  3-Jul-2019

 ---------------------------------------------------------------
 # opt=modredundant b3lyp/6-311+g(d,p) scrf=(pcm, solvent=water)
 ---------------------------------------------------------------

 ----------
 NDI_55.pdb
 ----------
 Symbolic Z-matrix:
 Charge = -1 Multiplicity = 2

 SCF Done:  E(UB3LYP) =  -2359.49414191     A.U. after   21 cycles
 SCF Done:  E(UB3LYP) =  -2359.50070796     A.U. after   19 cycles
 SCF Done:  E(UB3LYP) =  -2359.50208623     A.U. after   19 cycles
 SCF Done:  E(UB3LYP) =  -2359.50276609     A.U. after   19 cycles
 SCF Done:  E(UB3LYP) =  -2359.50333773     A.U. after   19 cycles
 SCF Done:  E(UB3LYP) =  -2359.50369720     A.U. after   17 cycles
 SCF Done:  E(UB3LYP) =  -2359.50378344     A.U. after   16 cycles
 SCF Done:  E(UB3LYP) =  -2359.50382025     A.U. after   14 cycles
 SCF Done:  E(UB3LYP) =  -2359.50383963     A.U. after   15 cycles
 SCF Done:  E(UB3LYP) =  -2359.50384820     A.U. after   13 cycles
 SCF Done:  E(UB3LYP) =  -2359.50390339     A.U. after   13 cycles
 SCF Done:  E(UB3LYP) =  -2359.50390413     A.U. after   10 cycles
 SCF Done:  E(UB3LYP) =  -2359.50390485     A.U. after   10 cycles
 SCF Done:  E(UB3LYP) =  -2359.50390542     A.U. after   10 cycles
 SCF Done:  E(UB3LYP) =  -2359.50390630     A.U. after    9 cycles
 SCF Done:  E(UB3LYP) =  -2359.50390721     A.U. after   12 cycles
 SCF Done:  E(UB3LYP) =  -2359.50390788     A.U. after   12 cycles
 SCF Done:  E(UB3LYP) =  -2359.50390817     A.U. after   12 cycles
 SCF Done:  E(UB3LYP) =  -2359.50390828     A.U. after    8 cycles
 SCF Done:  E(UB3LYP) =  -2359.50390831     A.U. after    7 cycles
 Optimization completed.
    -- Stationary point found.

                         Standard orientation:
 ---------------------------------------------------------------------
 Center     Atomic      Atomic             Coordinates (Angstroms)
 Number     Number       Type             X           Y           Z
 ---------------------------------------------------------------------
      1          6           0       -2.880089   -2.916962    0.503695
      2          6           0       -2.432403   -1.550759    0.267512
      3          6           0       -3.376921   -0.518560    0.064488
      4          6           0       -4.764401   -0.789975    0.092039
      5          6           0       -5.242745   -2.147614    0.331197
      6          6           0       -1.064791   -1.249119    0.290176
      7          6           0       -2.907998    0.814378   -0.180308
      8          6           0       -1.510410    1.087151   -0.219152
      9          6           0       -0.581953    0.041279    0.084254
     10          6           0       -1.079805    2.410880   -0.668892
     11          6           0       -3.447237    3.201010   -0.664218
     12          6           0       -3.869855    1.834190   -0.393453
     13          6           0       -5.246913    1.537000   -0.351769
     14          6           0       -5.689392    0.251768   -0.114413
     15          1           0       -6.747090    0.024436   -0.087805
     16          1           0       -5.951223    2.342466   -0.514789
     17          1           0       -0.371699   -2.045860    0.526968
     18          7           0       -2.069490    3.408574   -0.772960
     19          7           0       -4.263504   -3.137468    0.519439
     20          8           0       -2.111380   -3.869107    0.687436
     21          8           0       -6.443581   -2.441753    0.369592
     22          8           0       -4.240031    4.140485   -0.813665
     23          8           0        0.077503    2.707757   -0.978253
     24          6           0       -1.597735    4.752140   -1.128148
     25          1           0       -0.744147    5.012578   -0.505144
     26          1           0       -1.286902    4.786723   -2.174627
     27          1           0       -2.414022    5.448739   -0.967803
     28          6           0       -4.698304   -4.518788    0.758571
     29          1           0       -4.288201   -5.175813   -0.008933
     30          1           0       -4.342830   -4.859005    1.731968
     31          1           0       -5.782428   -4.539985    0.729361
     32          6           0        0.862354    0.257462    0.285428
     33          6           0        1.489529    1.109058    1.157394
     34         16           0        2.023740   -0.735705   -0.560135
     35          6           0        2.902574    0.972845    1.150349
     36          1           0        0.950231    1.806485    1.781040
     37          6           0        3.385743    0.012873    0.269826
     38          8           0        3.779236    1.678017    1.919359
     39          6           0        4.755640   -0.361930    0.017783
     40          6           0        3.250605    2.683298    2.789952
     41          6           0        5.234912   -1.329391   -0.856078
     42         16           0        6.118144    0.406793    0.830840
     43          1           0        4.110067    3.127407    3.288153
     44          1           0        2.718398    3.451976    2.222935
     45          1           0        2.582916    2.243826    3.536191
     46          6           0        6.654882   -1.452630   -0.873790
     47          8           0        4.356585   -2.056930   -1.601690
     48          6           0        7.260015   -0.579692   -0.015089
     49          1           0        7.199520   -2.152415   -1.490860
     50          6           0        4.888017   -3.050084   -2.484227
     51          1           0        8.315463   -0.457336    0.174097
     52          1           0        5.440199   -3.813104   -1.928560
     53          1           0        4.028406   -3.505852   -2.971420
     54          1           0        5.537600   -2.597128   -3.238395
 ---------------------------------------------------------------------

 The electronic state is 2-A.
 Alpha  occ. eigenvalues --  -88.87968 -88.87706 -19.16311 -19.16261 -19.09922
 Alpha  occ. eigenvalues --  -19.09895 -19.09666 -19.09507 -14.36731 -14.36432
 Alpha  occ. eigenvalues --  -10.28367 -10.28179 -10.28122 -10.28058 -10.23996
 Alpha  occ. eigenvalues --  -10.23918 -10.22487 -10.22449 -10.21303 -10.21107
 Alpha  occ. eigenvalues --  -10.21039 -10.20542 -10.20457 -10.20208 -10.20193
 Alpha  occ. eigenvalues --  -10.19741 -10.19618 -10.19473 -10.18937 -10.18907
 Alpha  occ. eigenvalues --  -10.18841 -10.18497 -10.18286 -10.18197 -10.18134
 Alpha  occ. eigenvalues --  -10.17719  -7.96531  -7.96269  -5.92839  -5.92586
 Alpha  occ. eigenvalues --   -5.92455  -5.92202  -5.92100  -5.91822  -1.07639
 Alpha  occ. eigenvalues --   -1.07539  -1.05852  -1.05692  -1.03795  -1.03603
 Alpha  occ. eigenvalues --   -0.93933  -0.93628  -0.89965  -0.89198  -0.87817
 Alpha  occ. eigenvalues --   -0.84167  -0.81860  -0.78769  -0.76463  -0.75844
 Alpha  occ. eigenvalues --   -0.75329  -0.74380  -0.73430  -0.72226  -0.70734
 Alpha  occ. eigenvalues --   -0.70287  -0.69328  -0.67512  -0.65120  -0.64029
 Alpha  occ. eigenvalues --   -0.63211  -0.62593  -0.59807  -0.58584  -0.56645
 Alpha  occ. eigenvalues --   -0.55657  -0.55324  -0.55018  -0.53945  -0.53121
 Alpha  occ. eigenvalues --   -0.51548  -0.49517  -0.48994  -0.48229  -0.47881
 Alpha  occ. eigenvalues --   -0.47755  -0.47724  -0.47394  -0.47222  -0.47001
 Alpha  occ. eigenvalues --   -0.46558  -0.45187  -0.45037  -0.44677  -0.44422
 Alpha  occ. eigenvalues --   -0.43962  -0.43186  -0.42874  -0.42411  -0.42111
 Alpha  occ. eigenvalues --   -0.41350  -0.41032  -0.40874  -0.40459  -0.40354
 Alpha  occ. eigenvalues --   -0.40197  -0.39860  -0.39531  -0.39112  -0.38585
 Alpha  occ. eigenvalues --   -0.38115  -0.37623  -0.37188  -0.36838  -0.35670
 Alpha  occ. eigenvalues --   -0.34891  -0.34156  -0.33537  -0.33273  -0.32991
 Alpha  occ. eigenvalues --   -0.32638  -0.30074  -0.29322  -0.28799  -0.28131
 Alpha  occ. eigenvalues --   -0.27926  -0.27354  -0.26858  -0.26421  -0.26174
 Alpha  occ. eigenvalues --   -0.24522  -0.24240  -0.24015  -0.18924  -0.15498
 Alpha virt. eigenvalues --   -0.06072  -0.05086  -0.03422  -0.02749  -0.00282
 Alpha virt. eigenvalues --    0.00060   0.00373   0.00755   0.00873   0.01220
 Alpha virt. eigenvalues --    0.01663   0.02306   0.02388   0.02435   0.02620

  Beta  occ. eigenvalues --  -88.87968 -88.87702 -19.16304 -19.16265 -19.09729
  Beta  occ. eigenvalues --  -19.09695 -19.09483 -19.09308 -14.36786 -14.36486
  Beta  occ. eigenvalues --  -10.28305 -10.28119 -10.28067 -10.28002 -10.23980
  Beta  occ. eigenvalues --  -10.23932 -10.22487 -10.22448 -10.21312 -10.21071
  Beta  occ. eigenvalues --  -10.21066 -10.20511 -10.20440 -10.20262 -10.20179
  Beta  occ. eigenvalues --  -10.19740 -10.19617 -10.19304 -10.18785 -10.18738
  Beta  occ. eigenvalues --  -10.18684 -10.18429 -10.18292 -10.18115 -10.18051
  Beta  occ. eigenvalues --  -10.17686  -7.96530  -7.96265  -5.92838  -5.92582
  Beta  occ. eigenvalues --   -5.92454  -5.92199  -5.92099  -5.91813  -1.07629
  Beta  occ. eigenvalues --   -1.07541  -1.05602  -1.05449  -1.03455  -1.03273
  Beta  occ. eigenvalues --   -0.93814  -0.93516  -0.89863  -0.89119  -0.87777
  Beta  occ. eigenvalues --   -0.83850  -0.81558  -0.78634  -0.76352  -0.75488
  Beta  occ. eigenvalues --   -0.75189  -0.74355  -0.73359  -0.72178  -0.70691
  Beta  occ. eigenvalues --   -0.69985  -0.69186  -0.67404  -0.64967  -0.63831
  Beta  occ. eigenvalues --   -0.63127  -0.62396  -0.59766  -0.58529  -0.56560
  Beta  occ. eigenvalues --   -0.55534  -0.55308  -0.54909  -0.53933  -0.52970
  Beta  occ. eigenvalues --   -0.51435  -0.49367  -0.48906  -0.47957  -0.47740
  Beta  occ. eigenvalues --   -0.47696  -0.47593  -0.47385  -0.47157  -0.46879
  Beta  occ. eigenvalues --   -0.46514  -0.45136  -0.44933  -0.44606  -0.44297
  Beta  occ. eigenvalues --   -0.43870  -0.43007  -0.42701  -0.42246  -0.41891
  Beta  occ. eigenvalues --   -0.41281  -0.40969  -0.40791  -0.40204  -0.39927
  Beta  occ. eigenvalues --   -0.39822  -0.39443  -0.39073  -0.38666  -0.38443
  Beta  occ. eigenvalues --   -0.38072  -0.37451  -0.36873  -0.36796  -0.35655
  Beta  occ. eigenvalues --   -0.34797  -0.33943  -0.33407  -0.33218  -0.32974
  Beta  occ. eigenvalues --   -0.32075  -0.29278  -0.28927  -0.28548  -0.27749
  Beta  occ. eigenvalues --   -0.27501  -0.27038  -0.26643  -0.26030  -0.25854
  Beta  occ. eigenvalues --   -0.24345  -0.24060  -0.22721  -0.18721
  Beta virt. eigenvalues --   -0.11071  -0.05390  -0.04354  -0.02687  -0.02252
  Beta virt. eigenvalues --   -0.00266   0.00169   0.00386   0.00760   0.00892
  Beta virt. eigenvalues --    0.01264   0.01676   0.02410   0.02460   0.02764

 Mulliken charges and spin densities:
               1          2
     1  C    0.426987   0.026894
     2  C   -0.158424   0.118603
     3  C    0.101136  -0.036746
     4  C    0.192297   0.105239
     5  C    0.272352   0.026388
     6  C   -0.513905   0.057998
     7  C    0.195217  -0.032345
     8  C    0.186308   0.121050
     9  C    0.480494   0.068110
    10  C   -0.435350   0.028537
    11  C    0.252464   0.025409
    12  C    0.107338   0.104955
    13  C   -0.494549   0.061868
    14  C   -0.617900   0.065095
    15  H    0.144139  -0.004470
    16  H    0.144376  -0.004257
    17  H    0.151941  -0.003163
    18  N   -0.089621  -0.022232
    19  N   -0.136528  -0.023324
    20  O   -0.432190   0.074428
    21  O   -0.417997   0.071720
    22  O   -0.426777   0.068443
    23  O   -0.303223   0.074282
    24  C   -0.200539   0.001297
    25  H    0.171419  -0.000645
    26  H    0.176564  -0.001161
    27  H    0.173879  -0.000390
    28  C   -0.207971   0.001242
    29  H    0.171177  -0.000964
    30  H    0.172744  -0.001002
    31  H    0.174007  -0.000339
    32  C    0.092999  -0.028660
    33  C   -0.456876   0.021681
    34  S   -0.487841   0.009470
    35  C   -0.236772  -0.007516
    36  H    0.148291  -0.001627
    37  C    0.631302   0.026552
    38  O   -0.169700  -0.000569
    39  C    0.710844  -0.007784
    40  C   -0.235224   0.000244
    41  C   -0.003312   0.010156
    42  S   -0.242134   0.000056
    43  H    0.174004  -0.000008
    44  H    0.162531  -0.000131
    45  H    0.160194  -0.000080
    46  C   -0.585536  -0.004459
    47  O   -0.167840   0.001910
    48  C   -0.337985   0.010407
    49  H    0.158973   0.000194
    50  C   -0.250821  -0.000001
    51  H    0.186056  -0.000619
    52  H    0.158332   0.000128
    53  H    0.172191   0.000005
    54  H    0.158463   0.000132
 Sum of Mulliken charges =  -1.00000   1.00000

 Dipole moment (field-independent basis, Debye):
    X=             14.6585    Y=             -0.5642    Z=              1.1705  Tot=             14.7160
 Quadrupole moment (field-independent basis, Debye-Ang):
   XX=           -298.2064   YY=           -256.9410   ZZ=           -217.3858
   XY=             -7.9330   XZ=             -7.4542   YZ=             25.8026

 Normal termination of Gaussian 16 at Thu Oct 28 09:24:54 2021.
