 Gaussian 16, Revision C.01,
 Gaussian 16:  ES64L-G16RevC.01  3-Jul-2019

 ---------------------------------------------------------------
 # opt=modredundant b3lyp/6-311+g(d,p) scrf=(pcm, solvent=water)
 ---------------------------------------------------------------

 ------------
 NDI_-145.pdb
 ------------
 Symbolic Z-matrix:
 Charge = -1 Multiplicity = 2

 SCF Done:  E(UB3LYP) =  -2359.47886545     A.U. after   21 cycles
 SCF Done:  E(UB3LYP) =  -2359.48785366     A.U. after   21 cycles
 SCF Done:  E(UB3LYP) =  -2359.49528191     A.U. after   20 cycles
 SCF Done:  E(UB3LYP) =  -2359.49854769     A.U. after   19 cycles
 SCF Done:  E(UB3LYP) =  -2359.49930425     A.U. after   19 cycles
 SCF Done:  E(UB3LYP) =  -2359.49995478     A.U. after   19 cycles
 SCF Done:  E(UB3LYP) =  -2359.50042885     A.U. after   20 cycles
 SCF Done:  E(UB3LYP) =  -2359.50048986     A.U. after   20 cycles
 SCF Done:  E(UB3LYP) =  -2359.50119432     A.U. after   16 cycles
 SCF Done:  E(UB3LYP) =  -2359.50257199     A.U. after   20 cycles
 SCF Done:  E(UB3LYP) =  -2359.50328401     A.U. after   13 cycles
 SCF Done:  E(UB3LYP) =  -2359.50328454     A.U. after   11 cycles
 SCF Done:  E(UB3LYP) =  -2359.50328477     A.U. after   10 cycles
 SCF Done:  E(UB3LYP) =  -2359.50328485     A.U. after    8 cycles
 SCF Done:  E(UB3LYP) =  -2359.50328491     A.U. after    8 cycles
 SCF Done:  E(UB3LYP) =  -2359.50328498     A.U. after    8 cycles
 SCF Done:  E(UB3LYP) =  -2359.50328507     A.U. after    8 cycles
 SCF Done:  E(UB3LYP) =  -2359.50328509     A.U. after    8 cycles
 SCF Done:  E(UB3LYP) =  -2359.50328511     A.U. after    7 cycles
 SCF Done:  E(UB3LYP) =  -2359.50328510     A.U. after    7 cycles
 Optimization completed.
    -- Stationary point found.

                         Standard orientation:
 ---------------------------------------------------------------------
 Center     Atomic      Atomic             Coordinates (Angstroms)
 Number     Number       Type             X           Y           Z
 ---------------------------------------------------------------------
      1          6           0       -3.490995   -2.690342    0.372847
      2          6           0       -2.761821   -1.466636    0.065614
      3          6           0       -3.418686   -0.215264    0.125792
      4          6           0       -4.781729   -0.126685    0.488414
      5          6           0       -5.535614   -1.334810    0.808396
      6          6           0       -1.393486   -1.522605   -0.225126
      7          6           0       -2.681349    0.970129   -0.199324
      8          6           0       -1.310580    0.881029   -0.573476
      9          6           0       -0.642739   -0.384736   -0.519828
     10          6           0       -0.682348    2.069873   -1.144447
     11          6           0       -2.661371    3.444853   -0.505780
     12          6           0       -3.357958    2.215237   -0.153380
     13          6           0       -4.714732    2.275891    0.223291
     14          6           0       -5.416244    1.130051    0.538696
     15          1           0       -6.459833    1.178231    0.821054
     16          1           0       -5.196681    3.244617    0.253257
     17          1           0       -0.899124   -2.482648   -0.159395
     18          7           0       -1.353418    3.296656   -0.976103
     19          7           0       -4.840705   -2.553163    0.723290
     20          8           0       -2.984322   -3.818718    0.339562
     21          8           0       -6.727502   -1.317712    1.137824
     22          8           0       -3.179992    4.566656   -0.429383
     23          8           0        0.377974    2.065709   -1.777579
     24          6           0       -0.648939    4.493003   -1.451674
     25          1           0        0.386317    4.458028   -1.118389
     26          1           0       -0.661349    4.540257   -2.543091
     27          1           0       -1.152128    5.364538   -1.045922
     28          6           0       -5.561129   -3.794762    1.029543
     29          1           0       -5.510954   -4.472261    0.176954
     30          1           0       -5.108167   -4.287544    1.890909
     31          1           0       -6.592909   -3.540244    1.246919
     32          6           0        0.814071   -0.572635   -0.609662
     33          6           0        1.472573   -1.621713   -1.208915
     34         16           0        1.925920    0.387862    0.337929
     35          6           0        2.867151   -1.635551   -0.946623
     36          1           0        0.968155   -2.344605   -1.833701
     37          6           0        3.302506   -0.616022   -0.110138
     38          8           0        3.767289   -2.533114   -1.437841
     39          6           0        4.643440   -0.349935    0.349216
     40          6           0        3.280346   -3.573865   -2.290726
     41          6           0        5.077247    0.659309    1.200062
     42         16           0        6.025472   -1.336046   -0.127685
     43          1           0        4.150905   -4.167205   -2.563017
     44          1           0        2.557605   -4.204765   -1.765914
     45          1           0        2.823870   -3.158841   -3.193586
     46          6           0        6.478467    0.644792    1.460671
     47          8           0        4.177295    1.548468    1.704456
     48          6           0        7.114167   -0.375098    0.811605
     49          1           0        6.988667    1.352920    2.097276
     50          6           0        4.664625    2.577382    2.571594
     51          1           0        8.164673   -0.621813    0.830205
     52          1           0        5.387348    3.215253    2.055296
     53          1           0        3.794196    3.167010    2.852009
     54          1           0        5.120833    2.149910    3.468765
 ---------------------------------------------------------------------

 The electronic state is 2-A.
 Alpha  occ. eigenvalues --  -88.88003 -88.87445 -19.16351 -19.16280 -19.09950
 Alpha  occ. eigenvalues --  -19.09914 -19.09674 -19.09563 -14.36739 -14.36436
 Alpha  occ. eigenvalues --  -10.28394 -10.28201 -10.28101 -10.28067 -10.24078
 Alpha  occ. eigenvalues --  -10.23904 -10.22503 -10.22464 -10.21332 -10.21205
 Alpha  occ. eigenvalues --  -10.21186 -10.20532 -10.20427 -10.20253 -10.20175
 Alpha  occ. eigenvalues --  -10.19745 -10.19647 -10.19337 -10.18952 -10.18907
 Alpha  occ. eigenvalues --  -10.18833 -10.18523 -10.18313 -10.18201 -10.18131
 Alpha  occ. eigenvalues --  -10.17930  -7.96565  -7.96015  -5.92874  -5.92489
 Alpha  occ. eigenvalues --   -5.92339  -5.92136  -5.91953  -5.91553  -1.07688
 Alpha  occ. eigenvalues --   -1.07563  -1.05872  -1.05701  -1.03820  -1.03614
 Alpha  occ. eigenvalues --   -0.93942  -0.93659  -0.89959  -0.89211  -0.87819
 Alpha  occ. eigenvalues --   -0.84166  -0.81853  -0.78858  -0.76356  -0.75933
 Alpha  occ. eigenvalues --   -0.75338  -0.74390  -0.73433  -0.72280  -0.70781
 Alpha  occ. eigenvalues --   -0.70053  -0.69498  -0.67560  -0.65092  -0.64062
 Alpha  occ. eigenvalues --   -0.63183  -0.62623  -0.59793  -0.58614  -0.56665
 Alpha  occ. eigenvalues --   -0.55746  -0.55361  -0.55003  -0.53992  -0.52925
 Alpha  occ. eigenvalues --   -0.51731  -0.49433  -0.48921  -0.48283  -0.47901
 Alpha  occ. eigenvalues --   -0.47791  -0.47685  -0.47411  -0.47318  -0.46992
 Alpha  occ. eigenvalues --   -0.46566  -0.45216  -0.45130  -0.44663  -0.44551
 Alpha  occ. eigenvalues --   -0.43788  -0.43196  -0.43008  -0.42499  -0.42064
 Alpha  occ. eigenvalues --   -0.41378  -0.41040  -0.40851  -0.40492  -0.40345
 Alpha  occ. eigenvalues --   -0.40122  -0.39882  -0.39588  -0.39186  -0.38605
 Alpha  occ. eigenvalues --   -0.38064  -0.37581  -0.37129  -0.36855  -0.35608
 Alpha  occ. eigenvalues --   -0.34909  -0.34488  -0.33566  -0.33234  -0.33031
 Alpha  occ. eigenvalues --   -0.32403  -0.30008  -0.29304  -0.28915  -0.28145
 Alpha  occ. eigenvalues --   -0.27944  -0.27336  -0.26899  -0.26362  -0.26275
 Alpha  occ. eigenvalues --   -0.24609  -0.24284  -0.23885  -0.18979  -0.15457
 Alpha virt. eigenvalues --   -0.06265  -0.05235  -0.03304  -0.02676  -0.00307
 Alpha virt. eigenvalues --    0.00079   0.00380   0.00679   0.00814   0.01407
 Alpha virt. eigenvalues --    0.01712   0.02314   0.02378   0.02537   0.02566

  Beta  occ. eigenvalues --  -88.88003 -88.87440 -19.16340 -19.16286 -19.09760
  Beta  occ. eigenvalues --  -19.09717 -19.09494 -19.09366 -14.36793 -14.36489
  Beta  occ. eigenvalues --  -10.28333 -10.28142 -10.28046 -10.28011 -10.24056
  Beta  occ. eigenvalues --  -10.23923 -10.22503 -10.22464 -10.21345 -10.21221
  Beta  occ. eigenvalues --  -10.21159 -10.20479 -10.20422 -10.20232 -10.20231
  Beta  occ. eigenvalues --  -10.19745 -10.19646 -10.19173 -10.18802 -10.18740
  Beta  occ. eigenvalues --  -10.18678 -10.18459 -10.18321 -10.18120 -10.18048
  Beta  occ. eigenvalues --  -10.17886  -7.96565  -7.96010  -5.92873  -5.92489
  Beta  occ. eigenvalues --   -5.92332  -5.92134  -5.91947  -5.91544  -1.07670
  Beta  occ. eigenvalues --   -1.07570  -1.05625  -1.05462  -1.03485  -1.03290
  Beta  occ. eigenvalues --   -0.93825  -0.93550  -0.89856  -0.89130  -0.87775
  Beta  occ. eigenvalues --   -0.83852  -0.81555  -0.78719  -0.76253  -0.75607
  Beta  occ. eigenvalues --   -0.75176  -0.74351  -0.73364  -0.72212  -0.70738
  Beta  occ. eigenvalues --   -0.69765  -0.69359  -0.67451  -0.64939  -0.63871
  Beta  occ. eigenvalues --   -0.63073  -0.62463  -0.59735  -0.58554  -0.56588
  Beta  occ. eigenvalues --   -0.55615  -0.55343  -0.54887  -0.53977  -0.52793
  Beta  occ. eigenvalues --   -0.51614  -0.49261  -0.48862  -0.48009  -0.47756
  Beta  occ. eigenvalues --   -0.47687  -0.47601  -0.47402  -0.47237  -0.46874
  Beta  occ. eigenvalues --   -0.46519  -0.45152  -0.45060  -0.44522  -0.44487
  Beta  occ. eigenvalues --   -0.43682  -0.43030  -0.42811  -0.42362  -0.41825
  Beta  occ. eigenvalues --   -0.41326  -0.40981  -0.40783  -0.40149  -0.39934
  Beta  occ. eigenvalues --   -0.39853  -0.39432  -0.39127  -0.38797  -0.38467
  Beta  occ. eigenvalues --   -0.37954  -0.37383  -0.36906  -0.36763  -0.35594
  Beta  occ. eigenvalues --   -0.34803  -0.34205  -0.33462  -0.33196  -0.33018
  Beta  occ. eigenvalues --   -0.31850  -0.29193  -0.28938  -0.28619  -0.27857
  Beta  occ. eigenvalues --   -0.27476  -0.27043  -0.26694  -0.26130  -0.25776
  Beta  occ. eigenvalues --   -0.24449  -0.23947  -0.22726  -0.18714
  Beta virt. eigenvalues --   -0.11098  -0.05639  -0.04401  -0.02545  -0.02257
  Beta virt. eigenvalues --   -0.00291   0.00218   0.00396   0.00690   0.00853
  Beta virt. eigenvalues --    0.01417   0.01736   0.02352   0.02571   0.02895

 Mulliken charges and spin densities:
               1          2
     1  C    0.391294   0.027262
     2  C   -0.117486   0.117328
     3  C    0.123887  -0.038702
     4  C    0.204800   0.103520
     5  C    0.256263   0.025611
     6  C   -0.232248   0.049884
     7  C    0.160046  -0.032407
     8  C    0.119207   0.122686
     9  C    0.280493   0.072717
    10  C   -0.476496   0.023613
    11  C    0.328759   0.026153
    12  C    0.044698   0.103462
    13  C   -0.496902   0.059674
    14  C   -0.573432   0.062898
    15  H    0.144176  -0.004399
    16  H    0.144444  -0.004155
    17  H    0.145375  -0.002762
    18  N   -0.024098  -0.022033
    19  N   -0.135934  -0.023005
    20  O   -0.430772   0.073547
    21  O   -0.417838   0.070451
    22  O   -0.429388   0.067268
    23  O   -0.363107   0.073987
    24  C   -0.192699   0.001402
    25  H    0.173796  -0.000593
    26  H    0.177730  -0.001177
    27  H    0.174727  -0.000406
    28  C   -0.205081   0.001289
    29  H    0.170656  -0.000926
    30  H    0.173572  -0.001011
    31  H    0.174309  -0.000334
    32  C    0.151841  -0.014903
    33  C   -0.620433   0.032633
    34  S   -0.645711   0.010374
    35  C   -0.088190  -0.012982
    36  H    0.156393  -0.001496
    37  C    0.580033   0.021341
    38  O   -0.169216  -0.000892
    39  C    0.829577  -0.009698
    40  C   -0.235753   0.000140
    41  C    0.011242   0.014920
    42  S   -0.234229  -0.000356
    43  H    0.174564   0.000001
    44  H    0.163044  -0.000126
    45  H    0.161069  -0.000143
    46  C   -0.615994  -0.005991
    47  O   -0.166572   0.001957
    48  C   -0.329005   0.014790
    49  H    0.159178   0.000272
    50  C   -0.251238  -0.000171
    51  H    0.186632  -0.000886
    52  H    0.158876   0.000157
    53  H    0.172861  -0.000008
    54  H    0.158280   0.000224
 Sum of Mulliken charges =  -1.00000   1.00000

 Dipole moment (field-independent basis, Debye):
    X=             14.6463    Y=             -1.8995    Z=              1.2404  Tot=             14.8209
 Quadrupole moment (field-independent basis, Debye-Ang):
   XX=           -292.0162   YY=           -255.7487   ZZ=           -222.2949
   XY=             11.9729   XZ=             20.1917   YZ=             21.5789

 Normal termination of Gaussian 16 at Thu Oct 28 09:55:01 2021.
