 Gaussian 16, Revision C.01,
 Gaussian 16:  ES64L-G16RevC.01  3-Jul-2019

 ---------------------------------------------------------------
 # opt=modredundant b3lyp/6-311+g(d,p) scrf=(pcm, solvent=water)
 ---------------------------------------------------------------

 ----------
 NDI_65.pdb
 ----------
 Symbolic Z-matrix:
 Charge = -1 Multiplicity = 2

 SCF Done:  E(UB3LYP) =  -2359.49416244     A.U. after   21 cycles
 SCF Done:  E(UB3LYP) =  -2359.50097236     A.U. after   16 cycles
 SCF Done:  E(UB3LYP) =  -2359.50261104     A.U. after   19 cycles
 SCF Done:  E(UB3LYP) =  -2359.50293842     A.U. after   19 cycles
 SCF Done:  E(UB3LYP) =  -2359.50351650     A.U. after   16 cycles
 SCF Done:  E(UB3LYP) =  -2359.50360882     A.U. after   17 cycles
 SCF Done:  E(UB3LYP) =  -2359.50366924     A.U. after   12 cycles
 SCF Done:  E(UB3LYP) =  -2359.50368184     A.U. after   12 cycles
 SCF Done:  E(UB3LYP) =  -2359.50369281     A.U. after   13 cycles
 SCF Done:  E(UB3LYP) =  -2359.50370011     A.U. after   13 cycles
 SCF Done:  E(UB3LYP) =  -2359.50374192     A.U. after   10 cycles
 SCF Done:  E(UB3LYP) =  -2359.50374518     A.U. after   10 cycles
 SCF Done:  E(UB3LYP) =  -2359.50374820     A.U. after   12 cycles
 SCF Done:  E(UB3LYP) =  -2359.50375194     A.U. after   12 cycles
 SCF Done:  E(UB3LYP) =  -2359.50375449     A.U. after   12 cycles
 SCF Done:  E(UB3LYP) =  -2359.50375560     A.U. after    9 cycles
 SCF Done:  E(UB3LYP) =  -2359.50375587     A.U. after    9 cycles
 SCF Done:  E(UB3LYP) =  -2359.50375571     A.U. after    8 cycles
 SCF Done:  E(UB3LYP) =  -2359.50375556     A.U. after    8 cycles
 SCF Done:  E(UB3LYP) =  -2359.50375540     A.U. after    8 cycles
 Optimization completed.
    -- Stationary point found.

                         Standard orientation:
 ---------------------------------------------------------------------
 Center     Atomic      Atomic             Coordinates (Angstroms)
 Number     Number       Type             X           Y           Z
 ---------------------------------------------------------------------
      1          6           0       -2.975126   -2.882366    0.536165
      2          6           0       -2.485010   -1.530432    0.303009
      3          6           0       -3.394565   -0.478599    0.049421
      4          6           0       -4.788720   -0.716603    0.022123
      5          6           0       -5.309431   -2.058756    0.258516
      6          6           0       -1.110694   -1.262546    0.367752
      7          6           0       -2.884830    0.840516   -0.189080
      8          6           0       -1.481094    1.080225   -0.169029
      9          6           0       -0.592017    0.012820    0.166693
     10          6           0       -0.997058    2.400629   -0.572324
     11          6           0       -3.345384    3.235095   -0.714454
     12          6           0       -3.811631    1.880776   -0.452446
     13          6           0       -5.195802    1.615963   -0.468457
     14          6           0       -5.678305    0.344204   -0.236090
     15          1           0       -6.741449    0.142520   -0.252087
     16          1           0       -5.873313    2.435425   -0.670519
     17          1           0       -0.442371   -2.074137    0.624886
     18          7           0       -1.959275    3.414808   -0.743310
     19          7           0       -4.363098   -3.068900    0.500003
     20          8           0       -2.237992   -3.850684    0.760793
     21          8           0       -6.517704   -2.323926    0.251109
     22          8           0       -4.108657    4.188519   -0.918482
     23          8           0        0.185891    2.680798   -0.785455
     24          6           0       -1.439978    4.748933   -1.066745
     25          1           0       -0.634387    5.000894   -0.379475
     26          1           0       -1.046750    4.771371   -2.085366
     27          1           0       -2.255600    5.458529   -0.975316
     28          6           0       -4.841000   -4.435854    0.739148
     29          1           0       -4.428642   -5.111213   -0.011207
     30          1           0       -4.520700   -4.775634    1.724696
     31          1           0       -5.924091   -4.428516    0.680379
     32          6           0        0.859486    0.188778    0.384549
     33          6           0        1.494843    0.895361    1.369986
     34         16           0        2.006244   -0.672165   -0.608631
     35          6           0        2.909573    0.762598    1.325696
     36          1           0        0.962448    1.492212    2.096064
     37          6           0        3.380408   -0.054994    0.307299
     38          8           0        3.795307    1.345066    2.182481
     39          6           0        4.747261   -0.389131   -0.013665
     40          6           0        3.280100    2.232653    3.179783
     41          6           0        5.214715   -1.218712   -1.024337
     42         16           0        6.120352    0.255619    0.884619
     43          1           0        4.145775    2.599191    3.727878
     44          1           0        2.753901    3.074172    2.720857
     45          1           0        2.610541    1.706071    3.865449
     46          6           0        6.634524   -1.335753   -1.078286
     47          8           0        4.326681   -1.831604   -1.857133
     48          6           0        7.251205   -0.595603   -0.110188
     49          1           0        7.170752   -1.937819   -1.797390
     50          6           0        4.846189   -2.698022   -2.870371
     51          1           0        8.309032   -0.500432    0.081276
     52          1           0        5.399691   -3.530916   -2.427851
     53          1           0        3.980571   -3.081023   -3.407089
     54          1           0        5.491501   -2.149749   -3.562367
 ---------------------------------------------------------------------

 The electronic state is 2-A.
 Alpha  occ. eigenvalues --  -88.87939 -88.87670 -19.16267 -19.16235 -19.09910
 Alpha  occ. eigenvalues --  -19.09889 -19.09693 -19.09555 -14.36729 -14.36471
 Alpha  occ. eigenvalues --  -10.28357 -10.28175 -10.28152 -10.28090 -10.23941
 Alpha  occ. eigenvalues --  -10.23876 -10.22469 -10.22437 -10.21268 -10.21033
 Alpha  occ. eigenvalues --  -10.21010 -10.20500 -10.20476 -10.20249 -10.20152
 Alpha  occ. eigenvalues --  -10.19738 -10.19622 -10.19549 -10.18942 -10.18918
 Alpha  occ. eigenvalues --  -10.18876 -10.18495 -10.18261 -10.18221 -10.18160
 Alpha  occ. eigenvalues --  -10.17679  -7.96502  -7.96231  -5.92810  -5.92549
 Alpha  occ. eigenvalues --   -5.92426  -5.92164  -5.92072  -5.91782  -1.07592
 Alpha  occ. eigenvalues --   -1.07502  -1.05844  -1.05726  -1.03785  -1.03640
 Alpha  occ. eigenvalues --   -0.93931  -0.93657  -0.89950  -0.89185  -0.87787
 Alpha  occ. eigenvalues --   -0.84178  -0.81880  -0.78739  -0.76417  -0.75860
 Alpha  occ. eigenvalues --   -0.75317  -0.74344  -0.73441  -0.72193  -0.70745
 Alpha  occ. eigenvalues --   -0.70262  -0.69324  -0.67502  -0.65130  -0.64050
 Alpha  occ. eigenvalues --   -0.63187  -0.62617  -0.59785  -0.58556  -0.56655
 Alpha  occ. eigenvalues --   -0.55656  -0.55293  -0.55008  -0.53914  -0.53105
 Alpha  occ. eigenvalues --   -0.51553  -0.49517  -0.49000  -0.48241  -0.47896
 Alpha  occ. eigenvalues --   -0.47769  -0.47695  -0.47372  -0.47221  -0.46994
 Alpha  occ. eigenvalues --   -0.46563  -0.45163  -0.45022  -0.44697  -0.44446
 Alpha  occ. eigenvalues --   -0.43986  -0.43211  -0.42874  -0.42460  -0.42127
 Alpha  occ. eigenvalues --   -0.41306  -0.40980  -0.40835  -0.40439  -0.40371
 Alpha  occ. eigenvalues --   -0.40221  -0.39869  -0.39583  -0.39125  -0.38473
 Alpha  occ. eigenvalues --   -0.38097  -0.37616  -0.37220  -0.36855  -0.35623
 Alpha  occ. eigenvalues --   -0.34871  -0.34015  -0.33512  -0.33213  -0.32971
 Alpha  occ. eigenvalues --   -0.32693  -0.30076  -0.29292  -0.28754  -0.28147
 Alpha  occ. eigenvalues --   -0.27896  -0.27385  -0.26843  -0.26486  -0.26157
 Alpha  occ. eigenvalues --   -0.24479  -0.24216  -0.24120  -0.18867  -0.15555
 Alpha virt. eigenvalues --   -0.05951  -0.04898  -0.03559  -0.02851  -0.00285
 Alpha virt. eigenvalues --   -0.00018   0.00352   0.00801   0.00889   0.01152
 Alpha virt. eigenvalues --    0.01613   0.02283   0.02406   0.02434   0.02582

  Beta  occ. eigenvalues --  -88.87939 -88.87666 -19.16263 -19.16237 -19.09715
  Beta  occ. eigenvalues --  -19.09688 -19.09507 -19.09348 -14.36784 -14.36526
  Beta  occ. eigenvalues --  -10.28296 -10.28115 -10.28098 -10.28032 -10.23932
  Beta  occ. eigenvalues --  -10.23886 -10.22469 -10.22437 -10.21274 -10.21053
  Beta  occ. eigenvalues --  -10.20987 -10.20531 -10.20399 -10.20303 -10.20143
  Beta  occ. eigenvalues --  -10.19737 -10.19621 -10.19376 -10.18788 -10.18750
  Beta  occ. eigenvalues --  -10.18716 -10.18426 -10.18265 -10.18136 -10.18076
  Beta  occ. eigenvalues --  -10.17656  -7.96501  -7.96228  -5.92809  -5.92545
  Beta  occ. eigenvalues --   -5.92426  -5.92161  -5.92071  -5.91777  -1.07587
  Beta  occ. eigenvalues --   -1.07502  -1.05592  -1.05477  -1.03442  -1.03302
  Beta  occ. eigenvalues --   -0.93811  -0.93543  -0.89844  -0.89112  -0.87749
  Beta  occ. eigenvalues --   -0.83858  -0.81574  -0.78606  -0.76307  -0.75494
  Beta  occ. eigenvalues --   -0.75182  -0.74323  -0.73370  -0.72150  -0.70702
  Beta  occ. eigenvalues --   -0.69947  -0.69188  -0.67399  -0.64976  -0.63849
  Beta  occ. eigenvalues --   -0.63104  -0.62420  -0.59746  -0.58502  -0.56570
  Beta  occ. eigenvalues --   -0.55528  -0.55282  -0.54899  -0.53905  -0.52954
  Beta  occ. eigenvalues --   -0.51435  -0.49361  -0.48920  -0.47965  -0.47731
  Beta  occ. eigenvalues --   -0.47680  -0.47613  -0.47365  -0.47156  -0.46872
  Beta  occ. eigenvalues --   -0.46522  -0.45110  -0.44905  -0.44639  -0.44326
  Beta  occ. eigenvalues --   -0.43889  -0.43033  -0.42700  -0.42301  -0.41887
  Beta  occ. eigenvalues --   -0.41247  -0.40930  -0.40757  -0.40189  -0.39937
  Beta  occ. eigenvalues --   -0.39823  -0.39452  -0.39086  -0.38708  -0.38342
  Beta  occ. eigenvalues --   -0.38056  -0.37432  -0.36918  -0.36801  -0.35611
  Beta  occ. eigenvalues --   -0.34780  -0.33845  -0.33372  -0.33145  -0.32938
  Beta  occ. eigenvalues --   -0.32111  -0.29215  -0.28947  -0.28540  -0.27720
  Beta  occ. eigenvalues --   -0.27511  -0.27062  -0.26627  -0.26003  -0.25892
  Beta  occ. eigenvalues --   -0.24339  -0.24090  -0.22744  -0.18744
  Beta virt. eigenvalues --   -0.11050  -0.05157  -0.04340  -0.02837  -0.02261
  Beta virt. eigenvalues --   -0.00269   0.00046   0.00366   0.00808   0.00903
  Beta virt. eigenvalues --    0.01189   0.01623   0.02394   0.02464   0.02788

 Mulliken charges and spin densities:
               1          2
     1  C    0.442379   0.026467
     2  C   -0.119542   0.120306
     3  C    0.127363  -0.037649
     4  C    0.181743   0.107278
     5  C    0.272491   0.026692
     6  C   -0.525757   0.059500
     7  C    0.198987  -0.033991
     8  C    0.113089   0.124591
     9  C    0.499914   0.067264
    10  C   -0.412655   0.028704
    11  C    0.242680   0.025559
    12  C    0.121309   0.107536
    13  C   -0.501809   0.062144
    14  C   -0.630680   0.066029
    15  H    0.144152  -0.004562
    16  H    0.144531  -0.004297
    17  H    0.147553  -0.003374
    18  N   -0.113694  -0.022531
    19  N   -0.137770  -0.023474
    20  O   -0.430607   0.074949
    21  O   -0.418934   0.072454
    22  O   -0.425861   0.069585
    23  O   -0.285379   0.076960
    24  C   -0.210815   0.001317
    25  H    0.171841  -0.000704
    26  H    0.176963  -0.001170
    27  H    0.174095  -0.000382
    28  C   -0.208134   0.001292
    29  H    0.171450  -0.000986
    30  H    0.172417  -0.000998
    31  H    0.173926  -0.000343
    32  C    0.095856  -0.026713
    33  C   -0.484472   0.015911
    34  S   -0.391243   0.007623
    35  C   -0.199705  -0.004784
    36  H    0.145064  -0.001164
    37  C    0.528645   0.019874
    38  O   -0.172516  -0.000418
    39  C    0.712385  -0.005119
    40  C   -0.234960   0.000320
    41  C   -0.001416   0.005745
    42  S   -0.248013   0.000112
    43  H    0.173612  -0.000009
    44  H    0.163366  -0.000069
    45  H    0.159702  -0.000051
    46  C   -0.565110  -0.003033
    47  O   -0.169585   0.001398
    48  C   -0.349760   0.006265
    49  H    0.158781   0.000118
    50  C   -0.249687   0.000042
    51  H    0.185718  -0.000373
    52  H    0.157881   0.000071
    53  H    0.171937   0.000011
    54  H    0.158270   0.000081
 Sum of Mulliken charges =  -1.00000   1.00000

 Dipole moment (field-independent basis, Debye):
    X=             14.3771    Y=             -0.6567    Z=              1.0606  Tot=             14.4311
 Quadrupole moment (field-independent basis, Debye-Ang):
   XX=           -299.1848   YY=           -261.2873   ZZ=           -212.6334
   XY=             -6.8516   XZ=            -10.4375   YZ=             25.9360

 Normal termination of Gaussian 16 at Thu Oct 28 08:41:47 2021.
