 Gaussian 16, Revision C.01,
 Gaussian 16:  ES64L-G16RevC.01  3-Jul-2019

 ---------------------------------------------------------------
 # opt=modredundant b3lyp/6-311+g(d,p) scrf=(pcm, solvent=water)
 ---------------------------------------------------------------

 -----------
 NDI_100.pdb
 -----------
 Symbolic Z-matrix:
 Charge = -1 Multiplicity = 2

 SCF Done:  E(UB3LYP) =  -2359.49555306     A.U. after   22 cycles
 SCF Done:  E(UB3LYP) =  -2359.50206360     A.U. after   19 cycles
 SCF Done:  E(UB3LYP) =  -2359.50311003     A.U. after   18 cycles
 SCF Done:  E(UB3LYP) =  -2359.50316767     A.U. after   16 cycles
 SCF Done:  E(UB3LYP) =  -2359.50340835     A.U. after   14 cycles
 SCF Done:  E(UB3LYP) =  -2359.50344286     A.U. after   14 cycles
 SCF Done:  E(UB3LYP) =  -2359.50345692     A.U. after   12 cycles
 SCF Done:  E(UB3LYP) =  -2359.50346299     A.U. after   10 cycles
 SCF Done:  E(UB3LYP) =  -2359.50346776     A.U. after   11 cycles
 SCF Done:  E(UB3LYP) =  -2359.50347061     A.U. after   10 cycles
 SCF Done:  E(UB3LYP) =  -2359.50347284     A.U. after   10 cycles
 SCF Done:  E(UB3LYP) =  -2359.50347537     A.U. after   10 cycles
 SCF Done:  E(UB3LYP) =  -2359.50347680     A.U. after   10 cycles
 SCF Done:  E(UB3LYP) =  -2359.50347751     A.U. after    9 cycles
 SCF Done:  E(UB3LYP) =  -2359.50347804     A.U. after   10 cycles
 SCF Done:  E(UB3LYP) =  -2359.50347813     A.U. after   10 cycles
 SCF Done:  E(UB3LYP) =  -2359.50347815     A.U. after    9 cycles
 SCF Done:  E(UB3LYP) =  -2359.50347817     A.U. after    8 cycles
 Optimization completed.
    -- Stationary point found.

                         Standard orientation:
 ---------------------------------------------------------------------
 Center     Atomic      Atomic             Coordinates (Angstroms)
 Number     Number       Type             X           Y           Z
 ---------------------------------------------------------------------
      1          6           0        3.280768   -2.822663    0.022505
      2          6           0        2.653494   -1.511074   -0.063947
      3          6           0        3.430988   -0.339919    0.076750
      4          6           0        4.825456   -0.419181    0.305079
      5          6           0        5.481613   -1.718702    0.398730
      6          6           0        1.271656   -1.407496   -0.280094
      7          6           0        2.788604    0.938952   -0.018528
      8          6           0        1.385766    1.020496   -0.251179
      9          6           0        0.624447   -0.181349   -0.371780
     10          6           0        0.774775    2.342569   -0.385209
     11          6           0        2.985878    3.426244    0.029468
     12          6           0        3.586222    2.102879    0.121522
     13          6           0        4.972561    1.994122    0.350543
     14          6           0        5.583219    0.759941    0.440851
     15          1           0        6.648301    0.679985    0.615704
     16          1           0        5.548711    2.904531    0.452945
     17          1           0        0.695214   -2.319034   -0.369948
     18          7           0        1.610391    3.462958   -0.220122
     19          7           0        4.662184   -2.850888    0.252860
     20          8           0        2.662600   -3.888275   -0.095374
     21          8           0        6.696088   -1.848216    0.595495
     22          8           0        3.633110    4.474052    0.156436
     23          8           0       -0.417820    2.541046   -0.634390
     24          6           0        0.957382    4.771827   -0.343766
     25          1           0        0.530321    4.885094   -1.340948
     26          1           0        0.153377    4.856899    0.387550
     27          1           0        1.705928    5.537182   -0.169455
     28          6           0        5.278181   -4.180169    0.340600
     29          1           0        4.810220   -4.754181    1.140813
     30          1           0        5.140187   -4.718461   -0.597962
     31          1           0        6.335683   -4.048502    0.542704
     32          6           0       -0.842743   -0.228633   -0.591506
     33          6           0       -1.510495   -0.436911   -1.765965
     34         16           0       -1.946457   -0.157128    0.756397
     35          6           0       -2.924326   -0.506154   -1.597711
     36          1           0       -1.005640   -0.517918   -2.717767
     37          6           0       -3.353257   -0.372840   -0.286524
     38          8           0       -3.839266   -0.693810   -2.591076
     39          6           0       -4.704346   -0.407032    0.223115
     40          6           0       -3.359426   -0.799743   -3.935005
     41          6           0       -5.130598   -0.291710    1.539175
     42         16           0       -6.108963   -0.608386   -0.822705
     43          1           0       -4.242632   -0.932312   -4.556744
     44          1           0       -2.833425    0.110333   -4.236451
     45          1           0       -2.699796   -1.664404   -4.049205
     46          6           0       -6.545026   -0.360593    1.706216
     47          8           0       -4.212421   -0.130323    2.534135
     48          6           0       -7.198303   -0.529152    0.518886
     49          1           0       -7.051864   -0.289358    2.657590
     50          6           0       -4.693838    0.004622    3.874604
     51          1           0       -8.260985   -0.613656    0.350774
     52          1           0       -5.238744   -0.890298    4.187991
     53          1           0       -3.810024    0.128069    4.497300
     54          1           0       -5.336370    0.883978    3.974083
 ---------------------------------------------------------------------

 The electronic state is 2-A.
 Alpha  occ. eigenvalues --  -88.87911 -88.87449 -19.16216 -19.16209 -19.09900
 Alpha  occ. eigenvalues --  -19.09885 -19.09720 -19.09591 -14.36729 -14.36522
 Alpha  occ. eigenvalues --  -10.28354 -10.28168 -10.28155 -10.28134 -10.23889
 Alpha  occ. eigenvalues --  -10.23808 -10.22451 -10.22428 -10.21226 -10.21047
 Alpha  occ. eigenvalues --  -10.20893 -10.20510 -10.20445 -10.20297 -10.20109
 Alpha  occ. eigenvalues --  -10.19739 -10.19661 -10.19608 -10.18953 -10.18919
 Alpha  occ. eigenvalues --  -10.18913 -10.18460 -10.18251 -10.18234 -10.18183
 Alpha  occ. eigenvalues --  -10.17692  -7.96474  -7.96016  -5.92782  -5.92398
 Alpha  occ. eigenvalues --   -5.92338  -5.92045  -5.91952  -5.91557  -1.07537
 Alpha  occ. eigenvalues --   -1.07453  -1.05840  -1.05765  -1.03777  -1.03682
 Alpha  occ. eigenvalues --   -0.93934  -0.93688  -0.89908  -0.89157  -0.87719
 Alpha  occ. eigenvalues --   -0.84181  -0.81902  -0.78709  -0.76321  -0.75896
 Alpha  occ. eigenvalues --   -0.75299  -0.74275  -0.73454  -0.72151  -0.70765
 Alpha  occ. eigenvalues --   -0.70165  -0.69352  -0.67486  -0.65132  -0.64083
 Alpha  occ. eigenvalues --   -0.63137  -0.62652  -0.59745  -0.58518  -0.56672
 Alpha  occ. eigenvalues --   -0.55680  -0.55255  -0.54976  -0.53874  -0.53018
 Alpha  occ. eigenvalues --   -0.51600  -0.49503  -0.48980  -0.48264  -0.47911
 Alpha  occ. eigenvalues --   -0.47779  -0.47658  -0.47339  -0.47245  -0.46977
 Alpha  occ. eigenvalues --   -0.46574  -0.45108  -0.45004  -0.44744  -0.44496
 Alpha  occ. eigenvalues --   -0.43963  -0.43243  -0.42892  -0.42529  -0.42140
 Alpha  occ. eigenvalues --   -0.41262  -0.40877  -0.40787  -0.40407  -0.40401
 Alpha  occ. eigenvalues --   -0.40251  -0.39839  -0.39686  -0.39145  -0.38315
 Alpha  occ. eigenvalues --   -0.38024  -0.37467  -0.37343  -0.36877  -0.35535
 Alpha  occ. eigenvalues --   -0.34830  -0.33815  -0.33574  -0.33119  -0.32953
 Alpha  occ. eigenvalues --   -0.32664  -0.30084  -0.29195  -0.28675  -0.28205
 Alpha  occ. eigenvalues --   -0.27768  -0.27456  -0.26800  -0.26612  -0.26127
 Alpha  occ. eigenvalues --   -0.24453  -0.24336  -0.24078  -0.18782  -0.15638
 Alpha virt. eigenvalues --   -0.05816  -0.04689  -0.03716  -0.02935  -0.00309
 Alpha virt. eigenvalues --   -0.00112   0.00323   0.00795   0.00965   0.01144
 Alpha virt. eigenvalues --    0.01489   0.02308   0.02363   0.02476   0.02566

  Beta  occ. eigenvalues --  -88.87911 -88.87444 -19.16216 -19.16208 -19.09703
  Beta  occ. eigenvalues --  -19.09681 -19.09530 -19.09371 -14.36785 -14.36578
  Beta  occ. eigenvalues --  -10.28292 -10.28108 -10.28102 -10.28075 -10.23889
  Beta  occ. eigenvalues --  -10.23807 -10.22451 -10.22428 -10.21226 -10.21055
  Beta  occ. eigenvalues --  -10.20891 -10.20566 -10.20352 -10.20342 -10.20109
  Beta  occ. eigenvalues --  -10.19738 -10.19607 -10.19483 -10.18796 -10.18756
  Beta  occ. eigenvalues --  -10.18743 -10.18392 -10.18234 -10.18162 -10.18099
  Beta  occ. eigenvalues --  -10.17684  -7.96474  -7.96010  -5.92782  -5.92398
  Beta  occ. eigenvalues --   -5.92329  -5.92044  -5.91945  -5.91553  -1.07536
  Beta  occ. eigenvalues --   -1.07451  -1.05585  -1.05507  -1.03431  -1.03332
  Beta  occ. eigenvalues --   -0.93811  -0.93570  -0.89793  -0.89098  -0.87684
  Beta  occ. eigenvalues --   -0.83857  -0.81590  -0.78578  -0.76217  -0.75523
  Beta  occ. eigenvalues --   -0.75162  -0.74254  -0.73381  -0.72110  -0.70723
  Beta  occ. eigenvalues --   -0.69831  -0.69233  -0.67390  -0.64978  -0.63879
  Beta  occ. eigenvalues --   -0.63045  -0.62467  -0.59706  -0.58465  -0.56588
  Beta  occ. eigenvalues --   -0.55544  -0.55250  -0.54863  -0.53869  -0.52873
  Beta  occ. eigenvalues --   -0.51474  -0.49330  -0.48918  -0.47982  -0.47717
  Beta  occ. eigenvalues --   -0.47667  -0.47620  -0.47335  -0.47173  -0.46858
  Beta  occ. eigenvalues --   -0.46536  -0.45047  -0.44868  -0.44708  -0.44391
  Beta  occ. eigenvalues --   -0.43853  -0.43071  -0.42709  -0.42376  -0.41876
  Beta  occ. eigenvalues --   -0.41215  -0.40866  -0.40710  -0.40142  -0.39954
  Beta  occ. eigenvalues --   -0.39804  -0.39483  -0.39106  -0.38779  -0.38194
  Beta  occ. eigenvalues --   -0.37979  -0.37250  -0.37093  -0.36788  -0.35527
  Beta  occ. eigenvalues --   -0.34746  -0.33653  -0.33404  -0.33072  -0.32904
  Beta  occ. eigenvalues --   -0.32051  -0.29047  -0.29010  -0.28528  -0.27644
  Beta  occ. eigenvalues --   -0.27522  -0.27127  -0.26606  -0.25952  -0.25923
  Beta  occ. eigenvalues --   -0.24423  -0.24054  -0.22774  -0.18768
  Beta virt. eigenvalues --   -0.11017  -0.04691  -0.04581  -0.02930  -0.02262
  Beta virt. eigenvalues --   -0.00292  -0.00103   0.00331   0.00803   0.00978
  Beta virt. eigenvalues --    0.01154   0.01496   0.02368   0.02531   0.02863

 Mulliken charges and spin densities:
               1          2
     1  C    0.436239   0.025253
     2  C    0.031270   0.126531
     3  C    0.218020  -0.039903
     4  C    0.173650   0.110864
     5  C    0.291116   0.026539
     6  C   -0.566719   0.052297
     7  C    0.211916  -0.035355
     8  C   -0.128760   0.131959
     9  C    0.413061   0.074349
    10  C   -0.328931   0.024300
    11  C    0.232202   0.026119
    12  C    0.184040   0.112885
    13  C   -0.549915   0.059156
    14  C   -0.657432   0.065834
    15  H    0.144549  -0.004666
    16  H    0.144877  -0.004339
    17  H    0.138027  -0.003613
    18  N   -0.149201  -0.022867
    19  N   -0.137964  -0.023492
    20  O   -0.428060   0.075556
    21  O   -0.419539   0.073259
    22  O   -0.420670   0.070823
    23  O   -0.284902   0.081977
    24  C   -0.222581   0.001299
    25  H    0.172656  -0.001016
    26  H    0.173247  -0.000961
    27  H    0.174742  -0.000345
    28  C   -0.209023   0.001407
    29  H    0.171312  -0.000978
    30  H    0.172541  -0.001028
    31  H    0.174019  -0.000348
    32  C    0.083347  -0.024632
    33  C   -0.387717   0.007157
    34  S   -0.188147   0.010602
    35  C   -0.121659   0.005431
    36  H    0.139325   0.000083
    37  C    0.205411   0.000200
    38  O   -0.171415   0.000035
    39  C    0.734905  -0.000338
    40  C   -0.235722  -0.000045
    41  C    0.042629  -0.000098
    42  S   -0.255295   0.000137
    43  H    0.173818  -0.000006
    44  H    0.163416   0.000034
    45  H    0.160985  -0.000020
    46  C   -0.533100  -0.000169
    47  O   -0.179495  -0.000074
    48  C   -0.369400   0.000082
    49  H    0.158323   0.000000
    50  C   -0.246614   0.000109
    51  H    0.185242   0.000005
    52  H    0.157251   0.000008
    53  H    0.171746   0.000001
    54  H    0.158380  -0.000001
 Sum of Mulliken charges =  -1.00000   1.00000

 Dipole moment (field-independent basis, Debye):
    X=            -13.9936    Y=             -1.3107    Z=             -0.0929  Tot=             14.0551
 Quadrupole moment (field-independent basis, Debye-Ang):
   XX=           -299.1627   YY=           -276.1899   ZZ=           -198.0600
   XY=             -2.2126   XZ=            -18.3479   YZ=              3.0300

 Normal termination of Gaussian 16 at Thu Oct 28 08:36:16 2021.
