 Gaussian 16, Revision C.01,
 Gaussian 16:  ES64L-G16RevC.01  3-Jul-2019

 ---------------------------------------------------------------
 # opt=modredundant b3lyp/6-311+g(d,p) scrf=(pcm, solvent=water)
 ---------------------------------------------------------------

 ------------
 NDI_-120.pdb
 ------------
 Symbolic Z-matrix:
 Charge = -1 Multiplicity = 2

 SCF Done:  E(UB3LYP) =  -2359.49251550     A.U. after   22 cycles
 SCF Done:  E(UB3LYP) =  -2359.50026488     A.U. after   21 cycles
 SCF Done:  E(UB3LYP) =  -2359.50268769     A.U. after   18 cycles
 SCF Done:  E(UB3LYP) =  -2359.50334426     A.U. after   17 cycles
 SCF Done:  E(UB3LYP) =  -2359.50366090     A.U. after   17 cycles
 SCF Done:  E(UB3LYP) =  -2359.50382748     A.U. after   16 cycles
 SCF Done:  E(UB3LYP) =  -2359.50386759     A.U. after   16 cycles
 SCF Done:  E(UB3LYP) =  -2359.50388717     A.U. after   12 cycles
 SCF Done:  E(UB3LYP) =  -2359.50389402     A.U. after   12 cycles
 SCF Done:  E(UB3LYP) =  -2359.50390506     A.U. after   12 cycles
 SCF Done:  E(UB3LYP) =  -2359.50393563     A.U. after   11 cycles
 SCF Done:  E(UB3LYP) =  -2359.50393602     A.U. after   11 cycles
 SCF Done:  E(UB3LYP) =  -2359.50393638     A.U. after   12 cycles
 SCF Done:  E(UB3LYP) =  -2359.50393654     A.U. after   10 cycles
 SCF Done:  E(UB3LYP) =  -2359.50393653     A.U. after   10 cycles
 SCF Done:  E(UB3LYP) =  -2359.50393641     A.U. after    9 cycles
 SCF Done:  E(UB3LYP) =  -2359.50393628     A.U. after   10 cycles
 SCF Done:  E(UB3LYP) =  -2359.50393633     A.U. after    9 cycles
 SCF Done:  E(UB3LYP) =  -2359.50393651     A.U. after   10 cycles
 SCF Done:  E(UB3LYP) =  -2359.50393630     A.U. after   10 cycles
 Optimization completed.
    -- Stationary point found.

                         Standard orientation:
 ---------------------------------------------------------------------
 Center     Atomic      Atomic             Coordinates (Angstroms)
 Number     Number       Type             X           Y           Z
 ---------------------------------------------------------------------
      1          6           0       -3.425207   -2.732968    0.394906
      2          6           0       -2.729452   -1.484720    0.112085
      3          6           0       -3.434387   -0.259506    0.126109
      4          6           0       -4.817483   -0.221516    0.420471
      5          6           0       -5.539470   -1.454622    0.714539
      6          6           0       -1.349904   -1.491613   -0.138355
      7          6           0       -2.729307    0.952980   -0.172318
      8          6           0       -1.339020    0.915674   -0.477500
      9          6           0       -0.638593   -0.327894   -0.412541
     10          6           0       -0.697016    2.145853   -0.937978
     11          6           0       -2.787579    3.427977   -0.478046
     12          6           0       -3.454105    2.171487   -0.165109
     13          6           0       -4.830177    2.180527    0.139083
     14          6           0       -5.501482    1.009588    0.426739
     15          1           0       -6.559119    1.018857    0.655953
     16          1           0       -5.350517    3.129567    0.138351
     17          1           0       -0.821255   -2.434202   -0.082278
     18          7           0       -1.438975    3.337847   -0.836257
     19          7           0       -4.794738   -2.645608    0.677501
     20          8           0       -2.874224   -3.841182    0.396629
     21          8           0       -6.746615   -1.481291    0.983276
     22          8           0       -3.360582    4.525185   -0.452515
     23          8           0        0.438858    2.205510   -1.417888
     24          6           0       -0.741347    4.568276   -1.228148
     25          1           0        0.233828    4.601688   -0.745676
     26          1           0       -0.594288    4.597731   -2.309935
     27          1           0       -1.349020    5.412427   -0.919551
     28          6           0       -5.482450   -3.911632    0.957530
     29          1           0       -5.373110   -4.588504    0.109879
     30          1           0       -5.048517   -4.386231    1.838530
     31          1           0       -6.530931   -3.693800    1.130409
     32          6           0        0.825454   -0.474405   -0.560582
     33          6           0        1.498451   -1.201189   -1.506299
     34         16           0        1.922828    0.161507    0.638807
     35          6           0        2.906785   -1.221663   -1.296618
     36          1           0        0.999158   -1.684760   -2.333550
     37          6           0        3.329033   -0.529714   -0.171569
     38          8           0        3.824201   -1.846112   -2.088061
     39          6           0        4.674876   -0.365671    0.324924
     40          6           0        3.350390   -2.540532   -3.246083
     41          6           0        5.096844    0.315960    1.458684
     42         16           0        6.079148   -1.049830   -0.492688
     43          1           0        4.234154   -2.955739   -3.726395
     44          1           0        2.671609   -3.351154   -2.966950
     45          1           0        2.847446   -1.856234   -3.934975
     46          6           0        6.507283    0.293708    1.666034
     47          8           0        4.178625    0.927920    2.258623
     48          6           0        7.161827   -0.405663    0.692603
     49          1           0        7.010244    0.771157    2.494382
     50          6           0        4.656180    1.638207    3.405180
     51          1           0        8.222382   -0.583012    0.600370
     52          1           0        5.324762    2.452328    3.111723
     53          1           0        3.772955    2.049793    3.889512
     54          1           0        5.171615    0.965764    4.096621
 ---------------------------------------------------------------------

 The electronic state is 2-A.
 Alpha  occ. eigenvalues --  -88.87939 -88.87419 -19.16254 -19.16237 -19.09909
 Alpha  occ. eigenvalues --  -19.09892 -19.09706 -19.09614 -14.36728 -14.36492
 Alpha  occ. eigenvalues --  -10.28357 -10.28179 -10.28155 -10.28109 -10.23948
 Alpha  occ. eigenvalues --  -10.23846 -10.22466 -10.22442 -10.21259 -10.21095
 Alpha  occ. eigenvalues --  -10.21005 -10.20475 -10.20449 -10.20258 -10.20154
 Alpha  occ. eigenvalues --  -10.19738 -10.19631 -10.19540 -10.18948 -10.18913
 Alpha  occ. eigenvalues --  -10.18892 -10.18479 -10.18258 -10.18233 -10.18171
 Alpha  occ. eigenvalues --  -10.17794  -7.96502  -7.95988  -5.92810  -5.92426
 Alpha  occ. eigenvalues --   -5.92312  -5.92072  -5.91927  -5.91526  -1.07585
 Alpha  occ. eigenvalues --   -1.07496  -1.05841  -1.05753  -1.03783  -1.03669
 Alpha  occ. eigenvalues --   -0.93930  -0.93687  -0.89920  -0.89172  -0.87748
 Alpha  occ. eigenvalues --   -0.84175  -0.81885  -0.78765  -0.76320  -0.75911
 Alpha  occ. eigenvalues --   -0.75310  -0.74310  -0.73446  -0.72200  -0.70775
 Alpha  occ. eigenvalues --   -0.70107  -0.69409  -0.67515  -0.65113  -0.64076
 Alpha  occ. eigenvalues --   -0.63153  -0.62639  -0.59759  -0.58548  -0.56667
 Alpha  occ. eigenvalues --   -0.55707  -0.55290  -0.54984  -0.53912  -0.52973
 Alpha  occ. eigenvalues --   -0.51651  -0.49472  -0.48968  -0.48269  -0.47910
 Alpha  occ. eigenvalues --   -0.47774  -0.47677  -0.47362  -0.47278  -0.46978
 Alpha  occ. eigenvalues --   -0.46570  -0.45127  -0.45055  -0.44705  -0.44536
 Alpha  occ. eigenvalues --   -0.43897  -0.43236  -0.42966  -0.42509  -0.42111
 Alpha  occ. eigenvalues --   -0.41299  -0.40923  -0.40801  -0.40443  -0.40376
 Alpha  occ. eigenvalues --   -0.40204  -0.39867  -0.39640  -0.39161  -0.38443
 Alpha  occ. eigenvalues --   -0.38007  -0.37474  -0.37280  -0.36888  -0.35557
 Alpha  occ. eigenvalues --   -0.34854  -0.34102  -0.33517  -0.33142  -0.33033
 Alpha  occ. eigenvalues --   -0.32523  -0.30053  -0.29245  -0.28753  -0.28143
 Alpha  occ. eigenvalues --   -0.27859  -0.27401  -0.26841  -0.26494  -0.26205
 Alpha  occ. eigenvalues --   -0.24549  -0.24271  -0.24028  -0.18860  -0.15574
 Alpha virt. eigenvalues --   -0.05920  -0.04982  -0.03478  -0.02825  -0.00314
 Alpha virt. eigenvalues --   -0.00092   0.00346   0.00760   0.00862   0.01289
 Alpha virt. eigenvalues --    0.01516   0.02312   0.02414   0.02442   0.02569

  Beta  occ. eigenvalues --  -88.87939 -88.87413 -19.16251 -19.16238 -19.09714
  Beta  occ. eigenvalues --  -19.09690 -19.09520 -19.09403 -14.36783 -14.36547
  Beta  occ. eigenvalues --  -10.28296 -10.28118 -10.28102 -10.28051 -10.23942
  Beta  occ. eigenvalues --  -10.23850 -10.22466 -10.22442 -10.21262 -10.21112
  Beta  occ. eigenvalues --  -10.20991 -10.20530 -10.20346 -10.20312 -10.20148
  Beta  occ. eigenvalues --  -10.19737 -10.19630 -10.19366 -10.18793 -10.18744
  Beta  occ. eigenvalues --  -10.18731 -10.18411 -10.18260 -10.18147 -10.18087
  Beta  occ. eigenvalues --  -10.17777  -7.96502  -7.95982  -5.92810  -5.92426
  Beta  occ. eigenvalues --   -5.92302  -5.92072  -5.91920  -5.91518  -1.07581
  Beta  occ. eigenvalues --   -1.07496  -1.05589  -1.05501  -1.03440  -1.03329
  Beta  occ. eigenvalues --   -0.93809  -0.93573  -0.89809  -0.89106  -0.87710
  Beta  occ. eigenvalues --   -0.83854  -0.81577  -0.78632  -0.76218  -0.75555
  Beta  occ. eigenvalues --   -0.75162  -0.74283  -0.73374  -0.72150  -0.70733
  Beta  occ. eigenvalues --   -0.69787  -0.69286  -0.67415  -0.64960  -0.63877
  Beta  occ. eigenvalues --   -0.63053  -0.62464  -0.59714  -0.58491  -0.56587
  Beta  occ. eigenvalues --   -0.55570  -0.55282  -0.54868  -0.53904  -0.52833
  Beta  occ. eigenvalues --   -0.51528  -0.49297  -0.48909  -0.47990  -0.47713
  Beta  occ. eigenvalues --   -0.47690  -0.47618  -0.47356  -0.47201  -0.46859
  Beta  occ. eigenvalues --   -0.46529  -0.45062  -0.44965  -0.44618  -0.44442
  Beta  occ. eigenvalues --   -0.43788  -0.43068  -0.42772  -0.42371  -0.41852
  Beta  occ. eigenvalues --   -0.41252  -0.40898  -0.40733  -0.40150  -0.39943
  Beta  occ. eigenvalues --   -0.39836  -0.39443  -0.39109  -0.38786  -0.38324
  Beta  occ. eigenvalues --   -0.37930  -0.37253  -0.37073  -0.36779  -0.35548
  Beta  occ. eigenvalues --   -0.34766  -0.33842  -0.33401  -0.33104  -0.33002
  Beta  occ. eigenvalues --   -0.31936  -0.29122  -0.28963  -0.28552  -0.27722
  Beta  occ. eigenvalues --   -0.27500  -0.27085  -0.26633  -0.26031  -0.25855
  Beta  occ. eigenvalues --   -0.24476  -0.23994  -0.22754  -0.18757
  Beta virt. eigenvalues --   -0.11045  -0.05106  -0.04450  -0.02722  -0.02256
  Beta virt. eigenvalues --   -0.00297  -0.00037   0.00356   0.00771   0.00882
  Beta virt. eigenvalues --    0.01299   0.01531   0.02359   0.02564   0.02871

 Mulliken charges and spin densities:
               1          2
     1  C    0.430808   0.026356
     2  C   -0.115710   0.122806
     3  C    0.112676  -0.039786
     4  C    0.243369   0.109494
     5  C    0.292305   0.025535
     6  C   -0.568503   0.054777
     7  C    0.161524  -0.035315
     8  C    0.004494   0.131788
     9  C    0.316139   0.066141
    10  C   -0.230381   0.024501
    11  C    0.341683   0.026370
    12  C    0.175591   0.111499
    13  C   -0.520169   0.060735
    14  C   -0.672539   0.064033
    15  H    0.144597  -0.004580
    16  H    0.145218  -0.004275
    17  H    0.141850  -0.003360
    18  N   -0.083608  -0.022376
    19  N   -0.134855  -0.023431
    20  O   -0.429380   0.075155
    21  O   -0.419725   0.072439
    22  O   -0.425843   0.069549
    23  O   -0.328686   0.078587
    24  C   -0.194048   0.001298
    25  H    0.173026  -0.000704
    26  H    0.177366  -0.001182
    27  H    0.174865  -0.000381
    28  C   -0.209391   0.001305
    29  H    0.171284  -0.000962
    30  H    0.173019  -0.001028
    31  H    0.174790  -0.000343
    32  C    0.255276  -0.025192
    33  C   -0.630072   0.023943
    34  S   -0.424479   0.012725
    35  C   -0.224754  -0.005602
    36  H    0.146277  -0.000495
    37  C    0.364956  -0.000361
    38  O   -0.153907  -0.000197
    39  C    0.887806   0.001194
    40  C   -0.257168   0.000325
    41  C    0.002527   0.005443
    42  S   -0.223674  -0.000002
    43  H    0.174305  -0.000004
    44  H    0.162711  -0.000023
    45  H    0.162547  -0.000015
    46  C   -0.534053  -0.000882
    47  O   -0.173072   0.000272
    48  C   -0.340689   0.004327
    49  H    0.158874   0.000079
    50  C   -0.248888  -0.000040
    51  H    0.185921  -0.000256
    52  H    0.158351   0.000041
    53  H    0.172009  -0.000002
    54  H    0.157429   0.000078
 Sum of Mulliken charges =  -1.00000   1.00000

 Dipole moment (field-independent basis, Debye):
    X=             14.2244    Y=             -1.5442    Z=              0.6399  Tot=             14.3223
 Quadrupole moment (field-independent basis, Debye-Ang):
   XX=           -296.3399   YY=           -266.3731   ZZ=           -209.4876
   XY=              8.5185   XZ=             19.4345   YZ=             20.8779

 Normal termination of Gaussian 16 at Thu Oct 28 09:36:43 2021.
