 Gaussian 16, Revision C.01,
 Gaussian 16:  ES64L-G16RevC.01  3-Jul-2019

 ---------------------------------------------------------------
 # opt=modredundant b3lyp/6-311+g(d,p) scrf=(pcm, solvent=water)
 ---------------------------------------------------------------

 -----------
 NDI_125.pdb
 -----------
 Symbolic Z-matrix:
 Charge = -1 Multiplicity = 2

 SCF Done:  E(UB3LYP) =  -2359.49319601     A.U. after   22 cycles
 SCF Done:  E(UB3LYP) =  -2359.49988747     A.U. after   21 cycles
 SCF Done:  E(UB3LYP) =  -2359.50298353     A.U. after   18 cycles
 SCF Done:  E(UB3LYP) =  -2359.50336846     A.U. after   17 cycles
 SCF Done:  E(UB3LYP) =  -2359.50373325     A.U. after   16 cycles
 SCF Done:  E(UB3LYP) =  -2359.50381322     A.U. after   15 cycles
 SCF Done:  E(UB3LYP) =  -2359.50383685     A.U. after   13 cycles
 SCF Done:  E(UB3LYP) =  -2359.50385278     A.U. after   14 cycles
 SCF Done:  E(UB3LYP) =  -2359.50386629     A.U. after   14 cycles
 SCF Done:  E(UB3LYP) =  -2359.50388163     A.U. after   11 cycles
 SCF Done:  E(UB3LYP) =  -2359.50392120     A.U. after   10 cycles
 SCF Done:  E(UB3LYP) =  -2359.50392140     A.U. after    9 cycles
 SCF Done:  E(UB3LYP) =  -2359.50392159     A.U. after   10 cycles
 SCF Done:  E(UB3LYP) =  -2359.50392163     A.U. after    8 cycles
 SCF Done:  E(UB3LYP) =  -2359.50392165     A.U. after    8 cycles
 SCF Done:  E(UB3LYP) =  -2359.50392172     A.U. after    8 cycles
 SCF Done:  E(UB3LYP) =  -2359.50392182     A.U. after   10 cycles
 SCF Done:  E(UB3LYP) =  -2359.50392194     A.U. after    8 cycles
 SCF Done:  E(UB3LYP) =  -2359.50392212     A.U. after    8 cycles
 SCF Done:  E(UB3LYP) =  -2359.50392216     A.U. after    8 cycles
 Optimization completed.
    -- Stationary point found.

                         Standard orientation:
 ---------------------------------------------------------------------
 Center     Atomic      Atomic             Coordinates (Angstroms)
 Number     Number       Type             X           Y           Z
 ---------------------------------------------------------------------
      1          6           0        3.454841   -2.713838    0.424442
      2          6           0        2.744650   -1.478273    0.122265
      3          6           0        3.433434   -0.243545    0.129071
      4          6           0        4.812848   -0.183346    0.435574
      5          6           0        5.548512   -1.403280    0.750425
      6          6           0        1.366439   -1.505783   -0.133053
      7          6           0        2.715225    0.955617   -0.190446
      8          6           0        1.329012    0.895581   -0.509235
      9          6           0        0.641390   -0.354426   -0.425764
     10          6           0        0.683768    2.105182   -1.016637
     11          6           0        2.742639    3.426292   -0.529622
     12          6           0        3.423474    2.183794   -0.192345
     13          6           0        4.796112    2.215315    0.125478
     14          6           0        5.480134    1.057034    0.433942
     15          1           0        6.535269    1.083214    0.673030
     16          1           0        5.303656    3.171282    0.118430
     17          1           0        0.848735   -2.453261   -0.060341
     18          7           0        1.401324    3.311622   -0.907073
     19          7           0        4.820502   -2.604723    0.718378
     20          8           0        2.919203   -3.829475    0.432998
     21          8           0        6.753021   -1.410457    1.031782
     22          8           0        3.298076    4.532664   -0.510413
     23          8           0       -0.432426    2.134539   -1.543176
     24          6           0        0.695327    4.527584   -1.327724
     25          1           0        0.627421    4.577579   -2.416964
     26          1           0       -0.312503    4.518305   -0.917883
     27          1           0        1.250410    5.384399   -0.960069
     28          6           0        5.522560   -3.858364    1.018007
     29          1           0        5.088666   -4.328351    1.901528
     30          1           0        5.427679   -4.546353    0.177635
     31          1           0        6.566917   -3.624987    1.195564
     32          6           0       -0.821054   -0.515560   -0.555777
     33          6           0       -1.493472   -1.331039   -1.428222
     34         16           0       -1.918936    0.215480    0.588590
     35          6           0       -2.899701   -1.344927   -1.209214
     36          1           0       -0.994523   -1.882635   -2.211973
     37          6           0       -3.322295   -0.558191   -0.147984
     38          8           0       -3.816245   -2.043742   -1.936846
     39          6           0       -4.667023   -0.360016    0.338000
     40          6           0       -3.341566   -2.846121   -3.022505
     41          6           0       -5.089833    0.420644    1.405829
     42         16           0       -6.068683   -1.130570   -0.403797
     43          1           0       -4.224440   -3.310034   -3.457759
     44          1           0       -2.843077   -2.230411   -3.776274
     45          1           0       -2.658600   -3.622581   -2.666905
     46          6           0       -6.498699    0.403933    1.623434
     47          8           0       -4.173564    1.113462    2.139009
     48          6           0       -7.151285   -0.389291    0.723365
     49          1           0       -7.002035    0.951413    2.406988
     50          6           0       -4.652175    1.927841    3.213762
     51          1           0       -8.210485   -0.584585    0.654788
     52          1           0       -5.158487    1.321497    3.970002
     53          1           0       -3.770358    2.391832    3.650990
     54          1           0       -5.329220    2.703984    2.846161
 ---------------------------------------------------------------------

 The electronic state is 2-A.
 Alpha  occ. eigenvalues --  -88.87953 -88.87426 -19.16274 -19.16251 -19.09914
 Alpha  occ. eigenvalues --  -19.09894 -19.09702 -19.09624 -14.36728 -14.36481
 Alpha  occ. eigenvalues --  -10.28362 -10.28180 -10.28160 -10.28095 -10.23973
 Alpha  occ. eigenvalues --  -10.23863 -10.22474 -10.22448 -10.21273 -10.21112
 Alpha  occ. eigenvalues --  -10.21046 -10.20462 -10.20455 -10.20243 -10.20174
 Alpha  occ. eigenvalues --  -10.19738 -10.19647 -10.19495 -10.18948 -10.18913
 Alpha  occ. eigenvalues --  -10.18880 -10.18490 -10.18269 -10.18228 -10.18166
 Alpha  occ. eigenvalues --  -10.17827  -7.96516  -7.95995  -5.92824  -5.92439
 Alpha  occ. eigenvalues --   -5.92319  -5.92086  -5.91934  -5.91533  -1.07606
 Alpha  occ. eigenvalues --   -1.07513  -1.05844  -1.05749  -1.03787  -1.03665
 Alpha  occ. eigenvalues --   -0.93930  -0.93688  -0.89930  -0.89182  -0.87764
 Alpha  occ. eigenvalues --   -0.84175  -0.81880  -0.78785  -0.76328  -0.75918
 Alpha  occ. eigenvalues --   -0.75318  -0.74329  -0.73444  -0.72220  -0.70780
 Alpha  occ. eigenvalues --   -0.70094  -0.69429  -0.67527  -0.65108  -0.64076
 Alpha  occ. eigenvalues --   -0.63160  -0.62634  -0.59769  -0.58562  -0.56667
 Alpha  occ. eigenvalues --   -0.55717  -0.55305  -0.54990  -0.53928  -0.52964
 Alpha  occ. eigenvalues --   -0.51668  -0.49463  -0.48963  -0.48272  -0.47912
 Alpha  occ. eigenvalues --   -0.47776  -0.47685  -0.47373  -0.47289  -0.46980
 Alpha  occ. eigenvalues --   -0.46568  -0.45138  -0.45078  -0.44694  -0.44549
 Alpha  occ. eigenvalues --   -0.43879  -0.43233  -0.42989  -0.42502  -0.42101
 Alpha  occ. eigenvalues --   -0.41312  -0.40947  -0.40813  -0.40462  -0.40360
 Alpha  occ. eigenvalues --   -0.40188  -0.39889  -0.39617  -0.39170  -0.38485
 Alpha  occ. eigenvalues --   -0.38016  -0.37501  -0.37244  -0.36892  -0.35573
 Alpha  occ. eigenvalues --   -0.34865  -0.34190  -0.33513  -0.33156  -0.33051
 Alpha  occ. eigenvalues --   -0.32494  -0.30044  -0.29271  -0.28782  -0.28126
 Alpha  occ. eigenvalues --   -0.27898  -0.27376  -0.26853  -0.26461  -0.26231
 Alpha  occ. eigenvalues --   -0.24569  -0.24263  -0.24015  -0.18889  -0.15551
 Alpha virt. eigenvalues --   -0.05970  -0.05051  -0.03433  -0.02788  -0.00302
 Alpha virt. eigenvalues --   -0.00075   0.00350   0.00743   0.00860   0.01331
 Alpha virt. eigenvalues --    0.01550   0.02327   0.02409   0.02452   0.02574

  Beta  occ. eigenvalues --  -88.87953 -88.87419 -19.16269 -19.16253 -19.09720
  Beta  occ. eigenvalues --  -19.09693 -19.09517 -19.09416 -14.36783 -14.36535
  Beta  occ. eigenvalues --  -10.28300 -10.28120 -10.28105 -10.28038 -10.23964
  Beta  occ. eigenvalues --  -10.23869 -10.22474 -10.22448 -10.21279 -10.21131
  Beta  occ. eigenvalues --  -10.21026 -10.20517 -10.20352 -10.20298 -10.20165
  Beta  occ. eigenvalues --  -10.19737 -10.19646 -10.19323 -10.18794 -10.18744
  Beta  occ. eigenvalues --  -10.18720 -10.18422 -10.18272 -10.18143 -10.18082
  Beta  occ. eigenvalues --  -10.17805  -7.96515  -7.95990  -5.92823  -5.92439
  Beta  occ. eigenvalues --   -5.92310  -5.92085  -5.91927  -5.91525  -1.07599
  Beta  occ. eigenvalues --   -1.07513  -1.05592  -1.05500  -1.03445  -1.03328
  Beta  occ. eigenvalues --   -0.93809  -0.93575  -0.89821  -0.89113  -0.87726
  Beta  occ. eigenvalues --   -0.83856  -0.81574  -0.78651  -0.76227  -0.75567
  Beta  occ. eigenvalues --   -0.75166  -0.74299  -0.73373  -0.72166  -0.70738
  Beta  occ. eigenvalues --   -0.69780  -0.69303  -0.67426  -0.64955  -0.63878
  Beta  occ. eigenvalues --   -0.63058  -0.62462  -0.59721  -0.58505  -0.56588
  Beta  occ. eigenvalues --   -0.55580  -0.55296  -0.54874  -0.53919  -0.52826
  Beta  occ. eigenvalues --   -0.51546  -0.49288  -0.48906  -0.47994  -0.47720
  Beta  occ. eigenvalues --   -0.47696  -0.47620  -0.47366  -0.47211  -0.46862
  Beta  occ. eigenvalues --   -0.46525  -0.45074  -0.44994  -0.44595  -0.44459
  Beta  occ. eigenvalues --   -0.43770  -0.43065  -0.42792  -0.42367  -0.41844
  Beta  occ. eigenvalues --   -0.41266  -0.40917  -0.40745  -0.40156  -0.39937
  Beta  occ. eigenvalues --   -0.39855  -0.39426  -0.39120  -0.38785  -0.38364
  Beta  occ. eigenvalues --   -0.37929  -0.37288  -0.37040  -0.36776  -0.35563
  Beta  occ. eigenvalues --   -0.34775  -0.33921  -0.33402  -0.33119  -0.33022
  Beta  occ. eigenvalues --   -0.31914  -0.29147  -0.28959  -0.28564  -0.27755
  Beta  occ. eigenvalues --   -0.27494  -0.27065  -0.26644  -0.26059  -0.25838
  Beta  occ. eigenvalues --   -0.24482  -0.23989  -0.22747  -0.18755
  Beta virt. eigenvalues --   -0.11055  -0.05217  -0.04434  -0.02671  -0.02257
  Beta virt. eigenvalues --   -0.00285  -0.00003   0.00361   0.00755   0.00884
  Beta virt. eigenvalues --    0.01340   0.01567   0.02372   0.02574   0.02885

 Mulliken charges and spin densities:
               1          2
     1  C    0.411185   0.026367
     2  C   -0.102446   0.122371
     3  C    0.147773  -0.038397
     4  C    0.171318   0.106786
     5  C    0.275701   0.025237
     6  C   -0.405589   0.055521
     7  C    0.192892  -0.033947
     8  C    0.006245   0.128260
     9  C    0.284241   0.065218
    10  C   -0.390100   0.024867
    11  C    0.301762   0.025532
    12  C    0.076713   0.108859
    13  C   -0.476421   0.061271
    14  C   -0.612567   0.065012
    15  H    0.144237  -0.004567
    16  H    0.144672  -0.004260
    17  H    0.141249  -0.003274
    18  N   -0.064788  -0.022360
    19  N   -0.135103  -0.023383
    20  O   -0.430265   0.074904
    21  O   -0.419923   0.072102
    22  O   -0.427598   0.069119
    23  O   -0.339559   0.077344
    24  C   -0.192856   0.001352
    25  H    0.177876  -0.001202
    26  H    0.173272  -0.000626
    27  H    0.174581  -0.000405
    28  C   -0.208173   0.001297
    29  H    0.173167  -0.001026
    30  H    0.171016  -0.000954
    31  H    0.174711  -0.000342
    32  C    0.244578  -0.016294
    33  C   -0.480744   0.017342
    34  S   -0.471144   0.011691
    35  C   -0.135416   0.000538
    36  H    0.148159  -0.000624
    37  C    0.400859   0.005840
    38  O   -0.166510  -0.000302
    39  C    0.795475  -0.005509
    40  C   -0.234340  -0.000209
    41  C    0.018081   0.006658
    42  S   -0.247815  -0.000094
    43  H    0.173953   0.000000
    44  H    0.162443  -0.000037
    45  H    0.162279  -0.000049
    46  C   -0.573547  -0.002201
    47  O   -0.171717   0.000523
    48  C   -0.345032   0.006156
    49  H    0.158771   0.000112
    50  C   -0.249540  -0.000017
    51  H    0.185803  -0.000362
    52  H    0.157625   0.000105
    53  H    0.172123  -0.000005
    54  H    0.158434   0.000060
 Sum of Mulliken charges =  -1.00000   1.00000

 Dipole moment (field-independent basis, Debye):
    X=            -14.3287    Y=             -1.5962    Z=              0.8197  Tot=             14.4406
 Quadrupole moment (field-independent basis, Debye-Ang):
   XX=           -295.5006   YY=           -263.3570   ZZ=           -213.0106
   XY=             -9.6553   XZ=            -19.4739   YZ=             22.4832

 Normal termination of Gaussian 16 at Thu Oct 28 10:18:23 2021.
