 Gaussian 16, Revision C.01,
 Gaussian 16:  ES64L-G16RevC.01  3-Jul-2019

 ---------------------------------------------------------------
 # opt=modredundant b3lyp/6-311+g(d,p) scrf=(pcm, solvent=water)
 ---------------------------------------------------------------

 -----------
 NDI_115.pdb
 -----------
 Symbolic Z-matrix:
 Charge = -1 Multiplicity = 2

 SCF Done:  E(UB3LYP) =  -2359.49538338     A.U. after   23 cycles
 SCF Done:  E(UB3LYP) =  -2359.50233318     A.U. after   20 cycles
 SCF Done:  E(UB3LYP) =  -2359.50284520     A.U. after   17 cycles
 SCF Done:  E(UB3LYP) =  -2359.50341011     A.U. after   16 cycles
 SCF Done:  E(UB3LYP) =  -2359.50371343     A.U. after   15 cycles
 SCF Done:  E(UB3LYP) =  -2359.50373391     A.U. after   14 cycles
 SCF Done:  E(UB3LYP) =  -2359.50375253     A.U. after   14 cycles
 SCF Done:  E(UB3LYP) =  -2359.50376768     A.U. after   14 cycles
 SCF Done:  E(UB3LYP) =  -2359.50378096     A.U. after   14 cycles
 SCF Done:  E(UB3LYP) =  -2359.50384447     A.U. after   13 cycles
 SCF Done:  E(UB3LYP) =  -2359.50385714     A.U. after   13 cycles
 SCF Done:  E(UB3LYP) =  -2359.50385547     A.U. after   13 cycles
 SCF Done:  E(UB3LYP) =  -2359.50385581     A.U. after   10 cycles
 SCF Done:  E(UB3LYP) =  -2359.50385725     A.U. after   13 cycles
 SCF Done:  E(UB3LYP) =  -2359.50385590     A.U. after   13 cycles
 SCF Done:  E(UB3LYP) =  -2359.50385344     A.U. after   13 cycles
 SCF Done:  E(UB3LYP) =  -2359.50385594     A.U. after   13 cycles
 SCF Done:  E(UB3LYP) =  -2359.50385715     A.U. after   13 cycles
 SCF Done:  E(UB3LYP) =  -2359.50385562     A.U. after   13 cycles
 SCF Done:  E(UB3LYP) =  -2359.50385490     A.U. after   13 cycles
 Optimization completed.
    -- Stationary point found.

                         Standard orientation:
 ---------------------------------------------------------------------
 Center     Atomic      Atomic             Coordinates (Angstroms)
 Number     Number       Type             X           Y           Z
 ---------------------------------------------------------------------
      1          6           0        3.396017   -2.752677    0.351892
      2          6           0        2.714494   -1.490912    0.096033
      3          6           0        3.435711   -0.275680    0.121187
      4          6           0        4.822750   -0.261292    0.399743
      5          6           0        5.531353   -1.508523    0.664881
      6          6           0        1.333617   -1.476047   -0.147013
      7          6           0        2.743383    0.950947   -0.148392
      8          6           0        1.348943    0.937612   -0.437523
      9          6           0        0.635501   -0.299359   -0.396271
     10          6           0        0.711005    2.189715   -0.841928
     11          6           0        2.832102    3.430890   -0.406013
     12          6           0        3.484743    2.159355   -0.127268
     13          6           0        4.864539    2.144599    0.159407
     14          6           0        5.523550    0.960125    0.418083
     15          1           0        6.583928    0.951396    0.634422
     16          1           0        5.397398    3.086563    0.168545
     17          1           0        0.794410   -2.413661   -0.111297
     18          7           0        1.476209    3.366930   -0.741795
     19          7           0        4.769451   -2.688336    0.620798
     20          8           0        2.829903   -3.853207    0.342494
     21          8           0        6.741588   -1.555907    0.916511
     22          8           0        3.422171    4.518711   -0.368812
     23          8           0       -0.442607    2.281205   -1.271889
     24          6           0        0.786584    4.614295   -1.092283
     25          1           0        0.557065    4.635611   -2.159351
     26          1           0       -0.147347    4.684595   -0.536530
     27          1           0        1.441348    5.441825   -0.840587
     28          6           0        5.442382   -3.967748    0.874332
     29          1           0        5.000741   -4.456083    1.743753
     30          1           0        5.327893   -4.625238    0.012039
     31          1           0        6.492842   -3.765393    1.053629
     32          6           0       -0.829650   -0.431099   -0.562851
     33          6           0       -1.500825   -1.061133   -1.575843
     34         16           0       -1.929703    0.101726    0.682550
     35          6           0       -2.911140   -1.089533   -1.377259
     36          1           0       -0.999445   -1.469903   -2.441317
     37          6           0       -3.335825   -0.500070   -0.196502
     38          8           0       -3.827614   -1.633008   -2.227598
     39          6           0       -4.683601   -0.373253    0.306160
     40          6           0       -3.350659   -2.224280   -3.440305
     41          6           0       -5.107682    0.206298    1.494376
     42         16           0       -6.087113   -0.973045   -0.576143
     43          1           0       -4.233912   -2.587891   -3.961639
     44          1           0       -2.838005   -1.484844   -4.061776
     45          1           0       -2.679587   -3.061876   -3.230865
     46          6           0       -6.519250    0.173152    1.692720
     47          8           0       -4.190203    0.739531    2.349864
     48          6           0       -7.172559   -0.432019    0.657310
     49          1           0       -7.023803    0.576851    2.558506
     50          6           0       -4.669667    1.342680    3.555440
     51          1           0       -8.233518   -0.594477    0.544630
     52          1           0       -5.190224    0.611243    4.179954
     53          1           0       -3.786918    1.704352    4.078911
     54          1           0       -5.334227    2.183039    3.336188
 ---------------------------------------------------------------------

 The electronic state is 2-A.
 Alpha  occ. eigenvalues --  -88.87932 -88.87417 -19.16244 -19.16231 -19.09905
 Alpha  occ. eigenvalues --  -19.09890 -19.09709 -19.09605 -14.36728 -14.36501
 Alpha  occ. eigenvalues --  -10.28355 -10.28176 -10.28154 -10.28117 -10.23930
 Alpha  occ. eigenvalues --  -10.23832 -10.22462 -10.22439 -10.21248 -10.21081
 Alpha  occ. eigenvalues --  -10.20970 -10.20489 -10.20450 -10.20270 -10.20142
 Alpha  occ. eigenvalues --  -10.19737 -10.19619 -10.19585 -10.18949 -10.18912
 Alpha  occ. eigenvalues --  -10.18900 -10.18469 -10.18252 -10.18237 -10.18174
 Alpha  occ. eigenvalues --  -10.17769  -7.96495  -7.95986  -5.92803  -5.92419
 Alpha  occ. eigenvalues --   -5.92310  -5.92065  -5.91924  -5.91525  -1.07573
 Alpha  occ. eigenvalues --   -1.07485  -1.05841  -1.05756  -1.03781  -1.03672
 Alpha  occ. eigenvalues --   -0.93932  -0.93686  -0.89914  -0.89168  -0.87738
 Alpha  occ. eigenvalues --   -0.84177  -0.81889  -0.78749  -0.76318  -0.75907
 Alpha  occ. eigenvalues --   -0.75308  -0.74299  -0.73448  -0.72186  -0.70771
 Alpha  occ. eigenvalues --   -0.70123  -0.69394  -0.67506  -0.65119  -0.64078
 Alpha  occ. eigenvalues --   -0.63147  -0.62643  -0.59754  -0.58539  -0.56669
 Alpha  occ. eigenvalues --   -0.55699  -0.55280  -0.54980  -0.53900  -0.52984
 Alpha  occ. eigenvalues --   -0.51638  -0.49480  -0.48972  -0.48267  -0.47909
 Alpha  occ. eigenvalues --   -0.47776  -0.47672  -0.47357  -0.47270  -0.46977
 Alpha  occ. eigenvalues --   -0.46572  -0.45122  -0.45036  -0.44718  -0.44525
 Alpha  occ. eigenvalues --   -0.43914  -0.43239  -0.42944  -0.42516  -0.42123
 Alpha  occ. eigenvalues --   -0.41288  -0.40908  -0.40795  -0.40428  -0.40390
 Alpha  occ. eigenvalues --   -0.40217  -0.39852  -0.39657  -0.39153  -0.38408
 Alpha  occ. eigenvalues --   -0.38004  -0.37456  -0.37313  -0.36890  -0.35552
 Alpha  occ. eigenvalues --   -0.34845  -0.34028  -0.33530  -0.33133  -0.33010
 Alpha  occ. eigenvalues --   -0.32560  -0.30061  -0.29220  -0.28730  -0.28161
 Alpha  occ. eigenvalues --   -0.27826  -0.27424  -0.26830  -0.26528  -0.26182
 Alpha  occ. eigenvalues --   -0.24533  -0.24284  -0.24040  -0.18838  -0.15595
 Alpha virt. eigenvalues --   -0.05882  -0.04916  -0.03526  -0.02856  -0.00315
 Alpha virt. eigenvalues --   -0.00105   0.00339   0.00769   0.00880   0.01262
 Alpha virt. eigenvalues --    0.01494   0.02313   0.02394   0.02453   0.02569

  Beta  occ. eigenvalues --  -88.87932 -88.87411 -19.16241 -19.16232 -19.09710
  Beta  occ. eigenvalues --  -19.09688 -19.09522 -19.09392 -14.36784 -14.36556
  Beta  occ. eigenvalues --  -10.28293 -10.28116 -10.28101 -10.28060 -10.23925
  Beta  occ. eigenvalues --  -10.23834 -10.22462 -10.22439 -10.21250 -10.21095
  Beta  occ. eigenvalues --  -10.20961 -10.20544 -10.20347 -10.20325 -10.20137
  Beta  occ. eigenvalues --  -10.19736 -10.19618 -10.19409 -10.18793 -10.18742
  Beta  occ. eigenvalues --  -10.18739 -10.18400 -10.18253 -10.18151 -10.18091
  Beta  occ. eigenvalues --  -10.17755  -7.96495  -7.95980  -5.92803  -5.92419
  Beta  occ. eigenvalues --   -5.92300  -5.92065  -5.91917  -5.91518  -1.07569
  Beta  occ. eigenvalues --   -1.07484  -1.05588  -1.05502  -1.03436  -1.03329
  Beta  occ. eigenvalues --   -0.93810  -0.93571  -0.89802  -0.89104  -0.87701
  Beta  occ. eigenvalues --   -0.83855  -0.81580  -0.78617  -0.76216  -0.75546
  Beta  occ. eigenvalues --   -0.75162  -0.74273  -0.73376  -0.72138  -0.70729
  Beta  occ. eigenvalues --   -0.69798  -0.69273  -0.67408  -0.64965  -0.63877
  Beta  occ. eigenvalues --   -0.63049  -0.62466  -0.59711  -0.58484  -0.56587
  Beta  occ. eigenvalues --   -0.55562  -0.55273  -0.54865  -0.53893  -0.52843
  Beta  occ. eigenvalues --   -0.51514  -0.49305  -0.48913  -0.47987  -0.47714
  Beta  occ. eigenvalues --   -0.47686  -0.47617  -0.47351  -0.47195  -0.46859
  Beta  occ. eigenvalues --   -0.46532  -0.45057  -0.44938  -0.44642  -0.44428
  Beta  occ. eigenvalues --   -0.43805  -0.43070  -0.42753  -0.42375  -0.41861
  Beta  occ. eigenvalues --   -0.41242  -0.40888  -0.40724  -0.40145  -0.39950
  Beta  occ. eigenvalues --   -0.39818  -0.39461  -0.39103  -0.38784  -0.38290
  Beta  occ. eigenvalues --   -0.37935  -0.37226  -0.37106  -0.36784  -0.35543
  Beta  occ. eigenvalues --   -0.34759  -0.33783  -0.33407  -0.33095  -0.32973
  Beta  occ. eigenvalues --   -0.31965  -0.29099  -0.28968  -0.28544  -0.27695
  Beta  occ. eigenvalues --   -0.27506  -0.27103  -0.26625  -0.26006  -0.25874
  Beta  occ. eigenvalues --   -0.24472  -0.24004  -0.22761  -0.18763
  Beta virt. eigenvalues --   -0.11038  -0.05004  -0.04472  -0.02770  -0.02256
  Beta virt. eigenvalues --   -0.00298  -0.00064   0.00349   0.00780   0.00896
  Beta virt. eigenvalues --    0.01272   0.01507   0.02358   0.02557   0.02874

 Mulliken charges and spin densities:
               1          2
     1  C    0.435474   0.026108
     2  C   -0.080092   0.124180
     3  C    0.114932  -0.040428
     4  C    0.231737   0.110527
     5  C    0.279833   0.025301
     6  C   -0.633794   0.053965
     7  C    0.176088  -0.035602
     8  C   -0.038425   0.132871
     9  C    0.363645   0.068560
    10  C   -0.198009   0.024231
    11  C    0.342231   0.026572
    12  C    0.186224   0.112467
    13  C   -0.544072   0.060125
    14  C   -0.672579   0.064331
    15  H    0.144568  -0.004601
    16  H    0.145213  -0.004296
    17  H    0.140815  -0.003448
    18  N   -0.102235  -0.022455
    19  N   -0.135379  -0.023468
    20  O   -0.428860   0.075331
    21  O   -0.419681   0.072730
    22  O   -0.424306   0.069916
    23  O   -0.318352   0.079736
    24  C   -0.199349   0.001259
    25  H    0.176275  -0.001145
    26  H    0.173037  -0.000783
    27  H    0.175006  -0.000363
    28  C   -0.209462   0.001319
    29  H    0.172537  -0.001017
    30  H    0.171632  -0.000980
    31  H    0.174791  -0.000345
    32  C    0.298316  -0.029597
    33  C   -0.690824   0.025267
    34  S   -0.378309   0.013089
    35  C   -0.219783  -0.005426
    36  H    0.144064  -0.000296
    37  C    0.370063  -0.003468
    38  O   -0.155442  -0.000108
    39  C    0.876065   0.002811
    40  C   -0.256799   0.000454
    41  C    0.007270   0.004028
    42  S   -0.226326   0.000021
    43  H    0.174232  -0.000005
    44  H    0.162679   0.000003
    45  H    0.162595  -0.000013
    46  C   -0.531097  -0.000246
    47  O   -0.174579   0.000072
    48  C   -0.345624   0.002873
    49  H    0.158772   0.000052
    50  C   -0.248159  -0.000020
    51  H    0.185835  -0.000168
    52  H    0.157478   0.000056
    53  H    0.171929  -0.000001
    54  H    0.158201   0.000025
 Sum of Mulliken charges =  -1.00000   1.00000

 Dipole moment (field-independent basis, Debye):
    X=            -14.1469    Y=             -1.5107    Z=              0.4672  Tot=             14.2350
 Quadrupole moment (field-independent basis, Debye-Ang):
   XX=           -297.1627   YY=           -269.1263   ZZ=           -206.2653
   XY=             -7.3030   XZ=            -19.3320   YZ=             18.5376

 Normal termination of Gaussian 16 at Thu Oct 28 15:55:33 2021.
