 Gaussian 16, Revision C.01,
 Gaussian 16:  ES64L-G16RevC.01  3-Jul-2019

 ---------------------------------------------------------------
 # opt=modredundant b3lyp/6-311+g(d,p) scrf=(pcm, solvent=water)
 ---------------------------------------------------------------

 -----------
 NDI_-65.pdb
 -----------
 Symbolic Z-matrix:
 Charge = -1 Multiplicity = 2

 SCF Done:  E(UB3LYP) =  -2359.49718912     A.U. after   22 cycles
 SCF Done:  E(UB3LYP) =  -2359.50268690     A.U. after   20 cycles
 SCF Done:  E(UB3LYP) =  -2359.50343652     A.U. after   18 cycles
 SCF Done:  E(UB3LYP) =  -2359.50347895     A.U. after   16 cycles
 SCF Done:  E(UB3LYP) =  -2359.50365353     A.U. after   15 cycles
 SCF Done:  E(UB3LYP) =  -2359.50368583     A.U. after   13 cycles
 SCF Done:  E(UB3LYP) =  -2359.50369827     A.U. after   13 cycles
 SCF Done:  E(UB3LYP) =  -2359.50370383     A.U. after   10 cycles
 SCF Done:  E(UB3LYP) =  -2359.50371355     A.U. after   11 cycles
 SCF Done:  E(UB3LYP) =  -2359.50372061     A.U. after   12 cycles
 SCF Done:  E(UB3LYP) =  -2359.50375145     A.U. after   12 cycles
 SCF Done:  E(UB3LYP) =  -2359.50375364     A.U. after   10 cycles
 SCF Done:  E(UB3LYP) =  -2359.50375447     A.U. after   10 cycles
 SCF Done:  E(UB3LYP) =  -2359.50375493     A.U. after    9 cycles
 SCF Done:  E(UB3LYP) =  -2359.50375546     A.U. after    9 cycles
 SCF Done:  E(UB3LYP) =  -2359.50375542     A.U. after    9 cycles
 SCF Done:  E(UB3LYP) =  -2359.50375543     A.U. after    9 cycles
 SCF Done:  E(UB3LYP) =  -2359.50375558     A.U. after    9 cycles
 SCF Done:  E(UB3LYP) =  -2359.50375561     A.U. after    8 cycles
 SCF Done:  E(UB3LYP) =  -2359.50375578     A.U. after    8 cycles
 Optimization completed.
    -- Stationary point found.

                         Standard orientation:
 ---------------------------------------------------------------------
 Center     Atomic      Atomic             Coordinates (Angstroms)
 Number     Number       Type             X           Y           Z
 ---------------------------------------------------------------------
      1          6           0        2.975482   -2.882359    0.535905
      2          6           0        2.485221   -1.530470    0.302953
      3          6           0        3.394641   -0.478480    0.049468
      4          6           0        4.788813   -0.716343    0.021969
      5          6           0        5.309716   -2.058464    0.258018
      6          6           0        1.110857   -1.262766    0.367482
      7          6           0        2.884743    0.840592   -0.189034
      8          6           0        1.480976    1.080145   -0.169011
      9          6           0        0.592034    0.012551    0.166587
     10          6           0        0.996766    2.400477   -0.572249
     11          6           0        3.345015    3.235256   -0.714281
     12          6           0        3.811409    1.880974   -0.452415
     13          6           0        5.195595    1.616278   -0.468632
     14          6           0        5.678239    0.344539   -0.236486
     15          1           0        6.741400    0.142984   -0.252786
     16          1           0        5.873055    2.435767   -0.670751
     17          1           0        0.442553   -2.074423    0.624461
     18          7           0        1.958893    3.414769   -0.743277
     19          7           0        4.363580   -3.068425    0.501093
     20          8           0        2.238428   -3.851066    0.759131
     21          8           0        6.517954   -2.323718    0.249348
     22          8           0        4.108184    4.188822   -0.918044
     23          8           0       -0.186195    2.680515   -0.785461
     24          6           0        1.439441    4.748850   -1.066678
     25          1           0        1.046334    4.771293   -2.085344
     26          1           0        0.633751    5.000658   -0.379472
     27          1           0        2.254952    5.458553   -0.975105
     28          6           0        4.841740   -4.435128    0.741178
     29          1           0        4.507226   -4.779630    1.720177
     30          1           0        4.443085   -5.108812   -0.018231
     31          1           0        5.925550   -4.424582    0.698426
     32          6           0       -0.859481    0.188389    0.384442
     33          6           0       -1.494733    0.895028    1.369923
     34         16           0       -2.006339   -0.672619   -0.608542
     35          6           0       -2.909452    0.762292    1.325791
     36          1           0       -0.962211    1.491852    2.095931
     37          6           0       -3.380387   -0.055339    0.307473
     38          8           0       -3.795087    1.344887    2.182591
     39          6           0       -4.747282   -0.389321   -0.013478
     40          6           0       -3.279729    2.232518    3.179767
     41          6           0       -5.214828   -1.219015   -1.024007
     42         16           0       -6.120297    0.255824    0.884643
     43          1           0       -4.145343    2.599306    3.727792
     44          1           0       -2.610283    1.705903    3.865522
     45          1           0       -2.753356    3.073867    2.720734
     46          6           0       -6.634655   -1.335769   -1.078036
     47          8           0       -4.326854   -1.832420   -1.856480
     48          6           0       -7.251248   -0.595314   -0.110111
     49          1           0       -7.170957   -1.937846   -1.797076
     50          6           0       -4.846585   -2.697240   -2.870958
     51          1           0       -8.309071   -0.499869    0.081231
     52          1           0       -5.491203   -2.147656   -3.562562
     53          1           0       -3.981029   -3.080259   -3.407761
     54          1           0       -5.400893   -3.530254   -2.429674
 ---------------------------------------------------------------------

 The electronic state is 2-A.
 Alpha  occ. eigenvalues --  -88.87939 -88.87670 -19.16268 -19.16235 -19.09910
 Alpha  occ. eigenvalues --  -19.09890 -19.09693 -19.09555 -14.36728 -14.36471
 Alpha  occ. eigenvalues --  -10.28357 -10.28175 -10.28152 -10.28089 -10.23941
 Alpha  occ. eigenvalues --  -10.23876 -10.22469 -10.22437 -10.21268 -10.21033
 Alpha  occ. eigenvalues --  -10.21011 -10.20500 -10.20477 -10.20249 -10.20152
 Alpha  occ. eigenvalues --  -10.19738 -10.19622 -10.19549 -10.18942 -10.18919
 Alpha  occ. eigenvalues --  -10.18876 -10.18496 -10.18261 -10.18221 -10.18160
 Alpha  occ. eigenvalues --  -10.17679  -7.96502  -7.96232  -5.92810  -5.92549
 Alpha  occ. eigenvalues --   -5.92426  -5.92165  -5.92072  -5.91782  -1.07593
 Alpha  occ. eigenvalues --   -1.07502  -1.05844  -1.05726  -1.03785  -1.03640
 Alpha  occ. eigenvalues --   -0.93931  -0.93657  -0.89950  -0.89185  -0.87787
 Alpha  occ. eigenvalues --   -0.84178  -0.81880  -0.78739  -0.76417  -0.75860
 Alpha  occ. eigenvalues --   -0.75317  -0.74344  -0.73441  -0.72193  -0.70745
 Alpha  occ. eigenvalues --   -0.70262  -0.69324  -0.67502  -0.65129  -0.64050
 Alpha  occ. eigenvalues --   -0.63187  -0.62617  -0.59784  -0.58556  -0.56655
 Alpha  occ. eigenvalues --   -0.55656  -0.55293  -0.55008  -0.53914  -0.53105
 Alpha  occ. eigenvalues --   -0.51553  -0.49517  -0.49000  -0.48241  -0.47895
 Alpha  occ. eigenvalues --   -0.47769  -0.47696  -0.47372  -0.47222  -0.46994
 Alpha  occ. eigenvalues --   -0.46563  -0.45163  -0.45022  -0.44697  -0.44446
 Alpha  occ. eigenvalues --   -0.43986  -0.43211  -0.42873  -0.42460  -0.42128
 Alpha  occ. eigenvalues --   -0.41305  -0.40980  -0.40836  -0.40438  -0.40372
 Alpha  occ. eigenvalues --   -0.40221  -0.39874  -0.39579  -0.39125  -0.38474
 Alpha  occ. eigenvalues --   -0.38098  -0.37617  -0.37218  -0.36856  -0.35623
 Alpha  occ. eigenvalues --   -0.34871  -0.34013  -0.33516  -0.33213  -0.32969
 Alpha  occ. eigenvalues --   -0.32694  -0.30076  -0.29291  -0.28757  -0.28144
 Alpha  occ. eigenvalues --   -0.27896  -0.27386  -0.26843  -0.26486  -0.26157
 Alpha  occ. eigenvalues --   -0.24479  -0.24216  -0.24120  -0.18867  -0.15555
 Alpha virt. eigenvalues --   -0.05951  -0.04899  -0.03558  -0.02851  -0.00285
 Alpha virt. eigenvalues --   -0.00018   0.00352   0.00801   0.00889   0.01152
 Alpha virt. eigenvalues --    0.01613   0.02283   0.02406   0.02434   0.02582

  Beta  occ. eigenvalues --  -88.87939 -88.87667 -19.16263 -19.16237 -19.09715
  Beta  occ. eigenvalues --  -19.09689 -19.09506 -19.09348 -14.36784 -14.36525
  Beta  occ. eigenvalues --  -10.28296 -10.28115 -10.28098 -10.28032 -10.23932
  Beta  occ. eigenvalues --  -10.23885 -10.22469 -10.22437 -10.21274 -10.21053
  Beta  occ. eigenvalues --  -10.20987 -10.20531 -10.20399 -10.20304 -10.20143
  Beta  occ. eigenvalues --  -10.19737 -10.19621 -10.19376 -10.18788 -10.18750
  Beta  occ. eigenvalues --  -10.18716 -10.18427 -10.18265 -10.18136 -10.18076
  Beta  occ. eigenvalues --  -10.17655  -7.96501  -7.96228  -5.92810  -5.92545
  Beta  occ. eigenvalues --   -5.92426  -5.92161  -5.92071  -5.91778  -1.07587
  Beta  occ. eigenvalues --   -1.07502  -1.05592  -1.05477  -1.03442  -1.03302
  Beta  occ. eigenvalues --   -0.93811  -0.93543  -0.89844  -0.89112  -0.87749
  Beta  occ. eigenvalues --   -0.83858  -0.81574  -0.78606  -0.76307  -0.75494
  Beta  occ. eigenvalues --   -0.75182  -0.74323  -0.73370  -0.72150  -0.70702
  Beta  occ. eigenvalues --   -0.69947  -0.69189  -0.67399  -0.64976  -0.63849
  Beta  occ. eigenvalues --   -0.63104  -0.62420  -0.59746  -0.58502  -0.56570
  Beta  occ. eigenvalues --   -0.55528  -0.55282  -0.54899  -0.53905  -0.52954
  Beta  occ. eigenvalues --   -0.51435  -0.49361  -0.48920  -0.47965  -0.47730
  Beta  occ. eigenvalues --   -0.47680  -0.47613  -0.47365  -0.47156  -0.46872
  Beta  occ. eigenvalues --   -0.46522  -0.45110  -0.44905  -0.44639  -0.44326
  Beta  occ. eigenvalues --   -0.43889  -0.43033  -0.42699  -0.42301  -0.41887
  Beta  occ. eigenvalues --   -0.41247  -0.40930  -0.40757  -0.40189  -0.39938
  Beta  occ. eigenvalues --   -0.39820  -0.39455  -0.39084  -0.38708  -0.38343
  Beta  occ. eigenvalues --   -0.38057  -0.37433  -0.36916  -0.36801  -0.35611
  Beta  occ. eigenvalues --   -0.34780  -0.33843  -0.33376  -0.33145  -0.32936
  Beta  occ. eigenvalues --   -0.32112  -0.29216  -0.28946  -0.28542  -0.27719
  Beta  occ. eigenvalues --   -0.27510  -0.27062  -0.26627  -0.26003  -0.25892
  Beta  occ. eigenvalues --   -0.24339  -0.24090  -0.22744  -0.18744
  Beta virt. eigenvalues --   -0.11050  -0.05157  -0.04340  -0.02837  -0.02261
  Beta virt. eigenvalues --   -0.00269   0.00046   0.00366   0.00807   0.00903
  Beta virt. eigenvalues --    0.01189   0.01623   0.02395   0.02464   0.02789

 Mulliken charges and spin densities:
               1          2
     1  C    0.442235   0.026476
     2  C   -0.119861   0.120309
     3  C    0.127403  -0.037652
     4  C    0.181943   0.107252
     5  C    0.271899   0.026690
     6  C   -0.525555   0.059494
     7  C    0.199144  -0.033977
     8  C    0.113782   0.124577
     9  C    0.499914   0.067267
    10  C   -0.412890   0.028707
    11  C    0.242670   0.025549
    12  C    0.121636   0.107532
    13  C   -0.501895   0.062147
    14  C   -0.630641   0.066038
    15  H    0.144150  -0.004562
    16  H    0.144530  -0.004297
    17  H    0.147552  -0.003374
    18  N   -0.113761  -0.022532
    19  N   -0.137813  -0.023474
    20  O   -0.430629   0.074954
    21  O   -0.418927   0.072450
    22  O   -0.425869   0.069580
    23  O   -0.285331   0.076967
    24  C   -0.210771   0.001317
    25  H    0.176964  -0.001169
    26  H    0.171840  -0.000704
    27  H    0.174094  -0.000382
    28  C   -0.208151   0.001290
    29  H    0.172012  -0.000983
    30  H    0.171859  -0.001001
    31  H    0.173917  -0.000343
    32  C    0.096101  -0.026694
    33  C   -0.484865   0.015912
    34  S   -0.391273   0.007615
    35  C   -0.199501  -0.004794
    36  H    0.145066  -0.001165
    37  C    0.528646   0.019883
    38  O   -0.172519  -0.000419
    39  C    0.712481  -0.005126
    40  C   -0.234962   0.000320
    41  C   -0.001777   0.005754
    42  S   -0.248043   0.000112
    43  H    0.173612  -0.000009
    44  H    0.159701  -0.000051
    45  H    0.163364  -0.000069
    46  C   -0.565061  -0.003035
    47  O   -0.169599   0.001399
    48  C   -0.349733   0.006274
    49  H    0.158781   0.000118
    50  C   -0.249687   0.000041
    51  H    0.185717  -0.000374
    52  H    0.158286   0.000081
    53  H    0.171942   0.000010
    54  H    0.157873   0.000071
 Sum of Mulliken charges =  -1.00000   1.00000

 Dipole moment (field-independent basis, Debye):
    X=            -14.3772    Y=             -0.6525    Z=              1.0671  Tot=             14.4315
 Quadrupole moment (field-independent basis, Debye-Ang):
   XX=           -299.1760   YY=           -261.3178   ZZ=           -212.6124
   XY=              6.8470   XZ=             10.4884   YZ=             25.8943

 Normal termination of Gaussian 16 at Thu Oct 28 07:27:02 2021.
