 Gaussian 16, Revision C.01,
 Gaussian 16:  ES64L-G16RevC.01  3-Jul-2019

 ---------------------------------------------------------------
 # opt=modredundant b3lyp/6-311+g(d,p) scrf=(pcm, solvent=water)
 ---------------------------------------------------------------

 -----------
 NDI_-10.pdb
 -----------
 Symbolic Z-matrix:
 Charge = -1 Multiplicity = 2

 SCF Done:  E(UB3LYP) =  -2359.48291336     A.U. after   21 cycles
 SCF Done:  E(UB3LYP) =  -2359.47556287     A.U. after   22 cycles
 SCF Done:  E(UB3LYP) =  -2359.49223536     A.U. after   18 cycles
 SCF Done:  E(UB3LYP) =  -2359.49590954     A.U. after   21 cycles
 SCF Done:  E(UB3LYP) =  -2359.49821666     A.U. after   21 cycles
 SCF Done:  E(UB3LYP) =  -2359.49885301     A.U. after   21 cycles
 SCF Done:  E(UB3LYP) =  -2359.49968618     A.U. after   21 cycles
 SCF Done:  E(UB3LYP) =  -2359.49986792     A.U. after   17 cycles
 SCF Done:  E(UB3LYP) =  -2359.49990646     A.U. after   14 cycles
 SCF Done:  E(UB3LYP) =  -2359.49994171     A.U. after   15 cycles
 SCF Done:  E(UB3LYP) =  -2359.50004859     A.U. after   15 cycles
 SCF Done:  E(UB3LYP) =  -2359.50005210     A.U. after   14 cycles
 SCF Done:  E(UB3LYP) =  -2359.50005343     A.U. after   13 cycles
 SCF Done:  E(UB3LYP) =  -2359.50005495     A.U. after   14 cycles
 SCF Done:  E(UB3LYP) =  -2359.50005560     A.U. after   13 cycles
 SCF Done:  E(UB3LYP) =  -2359.50005672     A.U. after   11 cycles
 SCF Done:  E(UB3LYP) =  -2359.50005918     A.U. after   14 cycles
 SCF Done:  E(UB3LYP) =  -2359.50005955     A.U. after   10 cycles
 SCF Done:  E(UB3LYP) =  -2359.50005987     A.U. after   13 cycles
 SCF Done:  E(UB3LYP) =  -2359.50005988     A.U. after   10 cycles
 Optimization completed.
    -- Stationary point found.

                         Standard orientation:
 ---------------------------------------------------------------------
 Center     Atomic      Atomic             Coordinates (Angstroms)
 Number     Number       Type             X           Y           Z
 ---------------------------------------------------------------------
      1          6           0       -2.609343   -3.022057   -0.034694
      2          6           0       -2.288364   -1.602214    0.048156
      3          6           0       -3.312894   -0.633112   -0.059760
      4          6           0       -4.655399   -1.018434   -0.261403
      5          6           0       -5.006768   -2.433126   -0.358474
      6          6           0       -0.957946   -1.197417    0.149785
      7          6           0       -2.960514    0.751402    0.054407
      8          6           0       -1.605201    1.140199    0.272603
      9          6           0       -0.561012    0.142879    0.230318
     10          6           0       -1.379473    2.515939    0.706834
     11          6           0       -3.719840    3.126719    0.110153
     12          6           0       -4.005989    1.707263   -0.035067
     13          6           0       -5.336484    1.297356   -0.254703
     14          6           0       -5.661811   -0.038493   -0.365620
     15          1           0       -6.685345   -0.351357   -0.525319
     16          1           0       -6.101468    2.059831   -0.325384
     17          1           0       -0.211919   -1.980124    0.101611
     18          7           0       -2.410152    3.448650    0.465424
     19          7           0       -3.955008   -3.356209   -0.232196
     20          8           0       -1.766630   -3.922724    0.056889
     21          8           0       -6.164365   -2.827172   -0.538487
     22          8           0       -4.571482    4.015334   -0.031707
     23          8           0       -0.366441    2.916090    1.291309
     24          6           0       -2.105781    4.853712    0.759796
     25          1           0       -2.184812    5.053587    1.831410
     26          1           0       -1.090233    5.073493    0.439655
     27          1           0       -2.819773    5.473539    0.226413
     28          6           0       -4.262829   -4.788904   -0.317173
     29          1           0       -3.725043   -5.236735   -1.153590
     30          1           0       -3.955413   -5.290245    0.600991
     31          1           0       -5.332574   -4.895417   -0.461610
     32          6           0        0.865105    0.416915    0.030789
     33          6           0        1.517115    1.575311   -0.333723
     34         16           0        2.046868   -0.862571    0.318405
     35          6           0        2.921000    1.435717   -0.429333
     36          1           0        1.002505    2.497031   -0.540878
     37          6           0        3.402852    0.172637   -0.103720
     38          8           0        3.798121    2.409405   -0.799134
     39          6           0        4.766623   -0.287597   -0.097718
     40          6           0        3.271493    3.695834   -1.140878
     41          6           0        5.248228   -1.550300    0.231295
     42         16           0        6.123475    0.751816   -0.534045
     43          1           0        4.131765    4.309366   -1.400652
     44          1           0        2.597926    3.627047   -1.999447
     45          1           0        2.746346    4.141868   -0.291992
     46          6           0        6.663625   -1.680604    0.135244
     47          8           0        4.377173   -2.526327    0.605167
     48          6           0        7.263176   -0.520243   -0.265294
     49          1           0        7.209524   -2.587152    0.352236
     50          6           0        4.911298   -3.812867    0.935459
     51          1           0        8.315395   -0.335781   -0.419117
     52          1           0        5.591387   -3.746507    1.789054
     53          1           0        4.055600   -4.431055    1.198852
     54          1           0        5.430556   -4.252334    0.079442
 ---------------------------------------------------------------------

 The electronic state is 2-A.
 Alpha  occ. eigenvalues --  -88.88103 -88.87642 -19.16492 -19.16368 -19.10044
 Alpha  occ. eigenvalues --  -19.09993 -19.09553 -19.09427 -14.36790 -14.36336
 Alpha  occ. eigenvalues --  -10.28487 -10.28276 -10.28043 -10.27905 -10.24269
 Alpha  occ. eigenvalues --  -10.24029 -10.22558 -10.22484 -10.21523 -10.21456
 Alpha  occ. eigenvalues --  -10.21300 -10.20843 -10.20438 -10.20398 -10.20065
 Alpha  occ. eigenvalues --  -10.19777 -10.19644 -10.19299 -10.18972 -10.18900
 Alpha  occ. eigenvalues --  -10.18735 -10.18622 -10.18399 -10.18141 -10.18037
 Alpha  occ. eigenvalues --  -10.17763  -7.96665  -7.96220  -5.92973  -5.92588
 Alpha  occ. eigenvalues --   -5.92540  -5.92234  -5.92156  -5.91770  -1.07846
 Alpha  occ. eigenvalues --   -1.07684  -1.05968  -1.05612  -1.03925  -1.03490
 Alpha  occ. eigenvalues --   -0.94012  -0.93571  -0.89989  -0.89255  -0.87879
 Alpha  occ. eigenvalues --   -0.84148  -0.81812  -0.78888  -0.76660  -0.75836
 Alpha  occ. eigenvalues --   -0.75389  -0.74451  -0.73424  -0.72360  -0.70735
 Alpha  occ. eigenvalues --   -0.70392  -0.69371  -0.67547  -0.65154  -0.63999
 Alpha  occ. eigenvalues --   -0.63328  -0.62546  -0.59918  -0.58721  -0.56660
 Alpha  occ. eigenvalues --   -0.55749  -0.55437  -0.55054  -0.54091  -0.53193
 Alpha  occ. eigenvalues --   -0.51606  -0.49553  -0.48974  -0.48252  -0.47886
 Alpha  occ. eigenvalues --   -0.47853  -0.47725  -0.47492  -0.47224  -0.47088
 Alpha  occ. eigenvalues --   -0.46562  -0.45294  -0.45155  -0.44688  -0.44369
 Alpha  occ. eigenvalues --   -0.43900  -0.43084  -0.42936  -0.42327  -0.41903
 Alpha  occ. eigenvalues --   -0.41493  -0.41278  -0.41094  -0.40572  -0.40299
 Alpha  occ. eigenvalues --   -0.40192  -0.39899  -0.39405  -0.39128  -0.38869
 Alpha  occ. eigenvalues --   -0.38114  -0.37696  -0.37106  -0.36660  -0.35788
 Alpha  occ. eigenvalues --   -0.35084  -0.34834  -0.33665  -0.33432  -0.32778
 Alpha  occ. eigenvalues --   -0.32365  -0.30157  -0.29427  -0.28997  -0.28161
 Alpha  occ. eigenvalues --   -0.28018  -0.27212  -0.26970  -0.26381  -0.26136
 Alpha  occ. eigenvalues --   -0.24754  -0.24342  -0.23758  -0.19153  -0.15330
 Alpha virt. eigenvalues --   -0.06924  -0.05379  -0.03244  -0.02409  -0.00307
 Alpha virt. eigenvalues --    0.00413   0.00544   0.00580   0.00915   0.01440
 Alpha virt. eigenvalues --    0.01792   0.02204   0.02356   0.02645   0.02800

  Beta  occ. eigenvalues --  -88.88102 -88.87629 -19.16473 -19.16374 -19.09865
  Beta  occ. eigenvalues --  -19.09803 -19.09380 -19.09241 -14.36842 -14.36388
  Beta  occ. eigenvalues --  -10.28430 -10.28220 -10.27983 -10.27851 -10.24230
  Beta  occ. eigenvalues --  -10.24054 -10.22559 -10.22483 -10.21493 -10.21425
  Beta  occ. eigenvalues --  -10.21354 -10.20714 -10.20484 -10.20361 -10.20122
  Beta  occ. eigenvalues --  -10.19776 -10.19643 -10.19149 -10.18830 -10.18738
  Beta  occ. eigenvalues --  -10.18590 -10.18572 -10.18413 -10.18066 -10.17958
  Beta  occ. eigenvalues --  -10.17704  -7.96664  -7.96209  -5.92973  -5.92588
  Beta  occ. eigenvalues --   -5.92533  -5.92231  -5.92149  -5.91729  -1.07810
  Beta  occ. eigenvalues --   -1.07691  -1.05732  -1.05383  -1.03606  -1.03179
  Beta  occ. eigenvalues --   -0.93901  -0.93466  -0.89890  -0.89157  -0.87824
  Beta  occ. eigenvalues --   -0.83840  -0.81529  -0.78743  -0.76540  -0.75534
  Beta  occ. eigenvalues --   -0.75222  -0.74405  -0.73359  -0.72292  -0.70688
  Beta  occ. eigenvalues --   -0.70122  -0.69222  -0.67428  -0.64997  -0.63814
  Beta  occ. eigenvalues --   -0.63235  -0.62361  -0.59864  -0.58659  -0.56575
  Beta  occ. eigenvalues --   -0.55651  -0.55393  -0.54948  -0.54064  -0.53044
  Beta  occ. eigenvalues --   -0.51507  -0.49417  -0.48853  -0.47998  -0.47820
  Beta  occ. eigenvalues --   -0.47760  -0.47571  -0.47472  -0.47156  -0.46969
  Beta  occ. eigenvalues --   -0.46508  -0.45235  -0.45067  -0.44600  -0.44245
  Beta  occ. eigenvalues --   -0.43813  -0.42914  -0.42763  -0.42070  -0.41821
  Beta  occ. eigenvalues --   -0.41374  -0.41160  -0.40982  -0.40327  -0.39918
  Beta  occ. eigenvalues --   -0.39854  -0.39552  -0.39123  -0.38742  -0.38557
  Beta  occ. eigenvalues --   -0.37979  -0.37555  -0.36823  -0.36601  -0.35755
  Beta  occ. eigenvalues --   -0.34938  -0.34595  -0.33526  -0.33413  -0.32710
  Beta  occ. eigenvalues --   -0.31884  -0.29509  -0.28947  -0.28616  -0.27909
  Beta  occ. eigenvalues --   -0.27527  -0.26915  -0.26769  -0.26143  -0.25761
  Beta  occ. eigenvalues --   -0.24375  -0.24141  -0.22655  -0.18658
  Beta virt. eigenvalues --   -0.11160  -0.06328  -0.04441  -0.02366  -0.02195
  Beta virt. eigenvalues --   -0.00291   0.00423   0.00585   0.00684   0.01062
  Beta virt. eigenvalues --    0.01454   0.01804   0.02276   0.02684   0.02878

 Mulliken charges and spin densities:
               1          2
     1  C    0.302288   0.026294
     2  C   -0.058962   0.116078
     3  C    0.236869  -0.036997
     4  C    0.193240   0.097623
     5  C    0.245438   0.025775
     6  C    0.105819   0.032609
     7  C    0.241955  -0.025176
     8  C    0.472873   0.109071
     9  C    0.058473   0.079562
    10  C   -0.917463   0.018035
    11  C    0.253798   0.025318
    12  C    0.117467   0.092945
    13  C   -0.501637   0.056996
    14  C   -0.595598   0.061737
    15  H    0.143797  -0.004112
    16  H    0.144616  -0.003946
    17  H    0.145242  -0.001342
    18  N    0.010973  -0.021809
    19  N   -0.130245  -0.021828
    20  O   -0.433552   0.070459
    21  O   -0.413382   0.066489
    22  O   -0.435280   0.064505
    23  O   -0.375369   0.069900
    24  C   -0.180544   0.001651
    25  H    0.177004  -0.001187
    26  H    0.171848  -0.000525
    27  H    0.172590  -0.000464
    28  C   -0.207918   0.001095
    29  H    0.173083  -0.000930
    30  H    0.171640  -0.000897
    31  H    0.173619  -0.000315
    32  C   -0.309287  -0.030862
    33  C   -0.249112   0.057495
    34  S   -0.644091   0.016906
    35  C   -0.395098  -0.014558
    36  H    0.163788  -0.003138
    37  C    0.670555   0.049558
    38  O   -0.158372  -0.000482
    39  C    0.905240  -0.015314
    40  C   -0.242731   0.000105
    41  C    0.045604   0.025750
    42  S   -0.203917  -0.000616
    43  H    0.175980  -0.000000
    44  H    0.160426  -0.000162
    45  H    0.162322  -0.000274
    46  C   -0.619655  -0.010589
    47  O   -0.163180   0.003993
    48  C   -0.349864   0.026306
    49  H    0.160258   0.000482
    50  C   -0.251461  -0.000359
    51  H    0.188236  -0.001581
    52  H    0.158801   0.000360
    53  H    0.173566  -0.000015
    54  H    0.159311   0.000384
 Sum of Mulliken charges =  -1.00000   1.00000

 Dipole moment (field-independent basis, Debye):
    X=             15.7839    Y=             -0.6471    Z=             -1.3987  Tot=             15.8590
 Quadrupole moment (field-independent basis, Debye-Ang):
   XX=           -292.1990   YY=           -245.8041   ZZ=           -230.7016
   XY=             -8.9163   XZ=             -4.9169   YZ=            -12.2972

 Normal termination of Gaussian 16 at Thu Oct 28 09:32:59 2021.
