 Gaussian 16, Revision C.01,
 Gaussian 16:  ES64L-G16RevC.01  3-Jul-2019

 ---------------------------------------------------------------
 # opt=modredundant b3lyp/6-311+g(d,p) scrf=(pcm, solvent=water)
 ---------------------------------------------------------------

 ------------
 NDI_-155.pdb
 ------------
 Symbolic Z-matrix:
 Charge = -1 Multiplicity = 2

 SCF Done:  E(UB3LYP) =  -2359.46854126     A.U. after   21 cycles
 SCF Done:  E(UB3LYP) =  -2359.48605515     A.U. after   22 cycles
 SCF Done:  E(UB3LYP) =  -2359.49507874     A.U. after   20 cycles
 SCF Done:  E(UB3LYP) =  -2359.49784605     A.U. after   17 cycles
 SCF Done:  E(UB3LYP) =  -2359.49867383     A.U. after   19 cycles
 SCF Done:  E(UB3LYP) =  -2359.49887008     A.U. after   20 cycles
 SCF Done:  E(UB3LYP) =  -2359.49927891     A.U. after   16 cycles
 SCF Done:  E(UB3LYP) =  -2359.49965212     A.U. after   20 cycles
 SCF Done:  E(UB3LYP) =  -2359.50011675     A.U. after   19 cycles
 SCF Done:  E(UB3LYP) =  -2359.50055659     A.U. after   16 cycles
 SCF Done:  E(UB3LYP) =  -2359.50227345     A.U. after   15 cycles
 SCF Done:  E(UB3LYP) =  -2359.50227697     A.U. after   11 cycles
 SCF Done:  E(UB3LYP) =  -2359.50227900     A.U. after   13 cycles
 SCF Done:  E(UB3LYP) =  -2359.50227969     A.U. after   13 cycles
 SCF Done:  E(UB3LYP) =  -2359.50227989     A.U. after   13 cycles
 SCF Done:  E(UB3LYP) =  -2359.50228013     A.U. after    9 cycles
 SCF Done:  E(UB3LYP) =  -2359.50228037     A.U. after    9 cycles
 SCF Done:  E(UB3LYP) =  -2359.50228050     A.U. after    8 cycles
 SCF Done:  E(UB3LYP) =  -2359.50228065     A.U. after    9 cycles
 SCF Done:  E(UB3LYP) =  -2359.50228073     A.U. after    8 cycles
 Optimization completed.
    -- Stationary point found.

                         Standard orientation:
 ---------------------------------------------------------------------
 Center     Atomic      Atomic             Coordinates (Angstroms)
 Number     Number       Type             X           Y           Z
 ---------------------------------------------------------------------
      1          6           0       -3.515035   -2.678203    0.305615
      2          6           0       -2.774698   -1.456204    0.017366
      3          6           0       -3.414562   -0.198526    0.118068
      4          6           0       -4.770531   -0.101609    0.502064
      5          6           0       -5.536119   -1.308173    0.800952
      6          6           0       -1.411224   -1.522566   -0.287214
      7          6           0       -2.664331    0.983607   -0.187538
      8          6           0       -1.300166    0.885662   -0.584333
      9          6           0       -0.643803   -0.389824   -0.566347
     10          6           0       -0.676622    2.076609   -1.154758
     11          6           0       -2.617902    3.464323   -0.436819
     12          6           0       -3.324309    2.235788   -0.101499
     13          6           0       -4.674399    2.305095    0.297269
     14          6           0       -5.387425    1.161582    0.594325
     15          1           0       -6.425993    1.216485    0.893480
     16          1           0       -5.142132    3.279352    0.358070
     17          1           0       -0.932968   -2.491299   -0.238204
     18          7           0       -1.323068    3.309518   -0.938493
     19          7           0       -4.858716   -2.532863    0.675065
     20          8           0       -3.022762   -3.811401    0.240407
     21          8           0       -6.723124   -1.284229    1.146576
     22          8           0       -3.118362    4.591339   -0.322994
     23          8           0        0.359123    2.069623   -1.827944
     24          6           0       -0.616128    4.508059   -1.404809
     25          1           0        0.436115    4.429377   -1.140738
     26          1           0       -0.696326    4.608009   -2.490036
     27          1           0       -1.067015    5.373183   -0.929410
     28          6           0       -5.591577   -3.772538    0.958783
     29          1           0       -5.547046   -4.434698    0.094083
     30          1           0       -5.144623   -4.285501    1.811609
     31          1           0       -6.620838   -3.511712    1.180373
     32          6           0        0.810222   -0.596558   -0.641887
     33          6           0        1.452678   -1.727730   -1.100518
     34         16           0        1.939794    0.438722    0.202827
     35          6           0        2.840079   -1.747413   -0.815941
     36          1           0        0.940836   -2.508597   -1.643953
     37          6           0        3.291983   -0.648273   -0.095548
     38          8           0        3.722532   -2.718124   -1.185024
     39          6           0        4.634888   -0.359978    0.341896
     40          6           0        3.220346   -3.837601   -1.921357
     41          6           0        5.082332    0.721087    1.092271
     42         16           0        6.003510   -1.406866   -0.034240
     43          1           0        4.078984   -4.478733   -2.110418
     44          1           0        2.475140   -4.387061   -1.339463
     45          1           0        2.786219   -3.517952   -2.872765
     46          6           0        6.482912    0.712439    1.355607
     47          8           0        4.194616    1.666497    1.506784
     48          6           0        7.104582   -0.374262    0.809330
     49          1           0        7.002580    1.471209    1.922341
     50          6           0        4.695909    2.771987    2.265224
     51          1           0        8.151201   -0.633562    0.855711
     52          1           0        5.425849    3.344927    1.686812
     53          1           0        3.833150    3.397758    2.484190
     54          1           0        5.147670    2.432202    3.201277
 ---------------------------------------------------------------------

 The electronic state is 2-A.
 Alpha  occ. eigenvalues --  -88.88027 -88.87457 -19.16388 -19.16287 -19.09971
 Alpha  occ. eigenvalues --  -19.09931 -19.09647 -19.09537 -14.36747 -14.36413
 Alpha  occ. eigenvalues --  -10.28413 -10.28218 -10.28079 -10.28027 -10.24135
 Alpha  occ. eigenvalues --  -10.23912 -10.22516 -10.22470 -10.21361 -10.21274
 Alpha  occ. eigenvalues --  -10.21240 -10.20606 -10.20414 -10.20297 -10.20134
 Alpha  occ. eigenvalues --  -10.19750 -10.19652 -10.19277 -10.18953 -10.18899
 Alpha  occ. eigenvalues --  -10.18803 -10.18537 -10.18336 -10.18183 -10.18105
 Alpha  occ. eigenvalues --  -10.17977  -7.96590  -7.96025  -5.92898  -5.92513
 Alpha  occ. eigenvalues --   -5.92348  -5.92160  -5.91960  -5.91564  -1.07727
 Alpha  occ. eigenvalues --   -1.07576  -1.05891  -1.05678  -1.03843  -1.03585
 Alpha  occ. eigenvalues --   -0.93953  -0.93644  -0.89966  -0.89222  -0.87840
 Alpha  occ. eigenvalues --   -0.84157  -0.81836  -0.78887  -0.76370  -0.75938
 Alpha  occ. eigenvalues --   -0.75348  -0.74420  -0.73429  -0.72302  -0.70782
 Alpha  occ. eigenvalues --   -0.70035  -0.69528  -0.67573  -0.65086  -0.64059
 Alpha  occ. eigenvalues --   -0.63192  -0.62616  -0.59800  -0.58641  -0.56663
 Alpha  occ. eigenvalues --   -0.55767  -0.55386  -0.55010  -0.54025  -0.52908
 Alpha  occ. eigenvalues --   -0.51767  -0.49418  -0.48886  -0.48293  -0.47901
 Alpha  occ. eigenvalues --   -0.47804  -0.47672  -0.47425  -0.47327  -0.46995
 Alpha  occ. eigenvalues --   -0.46561  -0.45275  -0.45146  -0.44668  -0.44532
 Alpha  occ. eigenvalues --   -0.43738  -0.43167  -0.43022  -0.42489  -0.42042
 Alpha  occ. eigenvalues --   -0.41411  -0.41096  -0.40870  -0.40513  -0.40323
 Alpha  occ. eigenvalues --   -0.40084  -0.39890  -0.39581  -0.39202  -0.38675
 Alpha  occ. eigenvalues --   -0.38075  -0.37625  -0.37075  -0.36801  -0.35610
 Alpha  occ. eigenvalues --   -0.34926  -0.34623  -0.33590  -0.33275  -0.33008
 Alpha  occ. eigenvalues --   -0.32361  -0.29992  -0.29342  -0.28979  -0.28167
 Alpha  occ. eigenvalues --   -0.27952  -0.27300  -0.26923  -0.26366  -0.26246
 Alpha  occ. eigenvalues --   -0.24618  -0.24303  -0.23809  -0.19020  -0.15409
 Alpha virt. eigenvalues --   -0.06462  -0.05275  -0.03260  -0.02652  -0.00314
 Alpha virt. eigenvalues --    0.00202   0.00406   0.00644   0.00803   0.01438
 Alpha virt. eigenvalues --    0.01794   0.02309   0.02358   0.02538   0.02604

  Beta  occ. eigenvalues --  -88.88027 -88.87452 -19.16373 -19.16295 -19.09784
  Beta  occ. eigenvalues --  -19.09736 -19.09469 -19.09344 -14.36800 -14.36465
  Beta  occ. eigenvalues --  -10.28354 -10.28159 -10.28022 -10.27973 -10.24106
  Beta  occ. eigenvalues --  -10.23938 -10.22517 -10.22470 -10.21377 -10.21283
  Beta  occ. eigenvalues --  -10.21212 -10.20491 -10.20464 -10.20269 -10.20190
  Beta  occ. eigenvalues --  -10.19749 -10.19651 -10.19119 -10.18805 -10.18734
  Beta  occ. eigenvalues --  -10.18651 -10.18477 -10.18346 -10.18104 -10.18023
  Beta  occ. eigenvalues --  -10.17921  -7.96589  -7.96021  -5.92897  -5.92513
  Beta  occ. eigenvalues --   -5.92342  -5.92157  -5.91956  -5.91556  -1.07702
  Beta  occ. eigenvalues --   -1.07588  -1.05647  -1.05442  -1.03512  -1.03265
  Beta  occ. eigenvalues --   -0.93838  -0.93536  -0.89865  -0.89135  -0.87792
  Beta  occ. eigenvalues --   -0.83845  -0.81543  -0.78744  -0.76264  -0.75625
  Beta  occ. eigenvalues --   -0.75180  -0.74376  -0.73361  -0.72227  -0.70740
  Beta  occ. eigenvalues --   -0.69761  -0.69382  -0.67460  -0.64934  -0.63871
  Beta  occ. eigenvalues --   -0.63078  -0.62463  -0.59736  -0.58579  -0.56586
  Beta  occ. eigenvalues --   -0.55640  -0.55361  -0.54894  -0.54007  -0.52778
  Beta  occ. eigenvalues --   -0.51653  -0.49250  -0.48824  -0.48020  -0.47770
  Beta  occ. eigenvalues --   -0.47684  -0.47591  -0.47415  -0.47246  -0.46878
  Beta  occ. eigenvalues --   -0.46511  -0.45210  -0.45079  -0.44535  -0.44458
  Beta  occ. eigenvalues --   -0.43633  -0.43002  -0.42824  -0.42348  -0.41816
  Beta  occ. eigenvalues --   -0.41357  -0.41023  -0.40798  -0.40132  -0.39926
  Beta  occ. eigenvalues --   -0.39868  -0.39430  -0.39149  -0.38815  -0.38523
  Beta  occ. eigenvalues --   -0.37956  -0.37429  -0.36825  -0.36742  -0.35593
  Beta  occ. eigenvalues --   -0.34806  -0.34351  -0.33481  -0.33235  -0.32994
  Beta  occ. eigenvalues --   -0.31828  -0.29224  -0.28934  -0.28648  -0.27908
  Beta  occ. eigenvalues --   -0.27473  -0.27014  -0.26721  -0.26159  -0.25753
  Beta  occ. eigenvalues --   -0.24413  -0.23935  -0.22710  -0.18692
  Beta virt. eigenvalues --   -0.11114  -0.05851  -0.04386  -0.02527  -0.02255
  Beta virt. eigenvalues --   -0.00298   0.00340   0.00454   0.00656   0.00849
  Beta virt. eigenvalues --    0.01447   0.01817   0.02354   0.02550   0.02917

 Mulliken charges and spin densities:
               1          2
     1  C    0.383951   0.027412
     2  C   -0.102941   0.115420
     3  C    0.118936  -0.038871
     4  C    0.221251   0.102258
     5  C    0.243092   0.025599
     6  C   -0.095558   0.045354
     7  C    0.135234  -0.031447
     8  C    0.195120   0.118832
     9  C    0.255623   0.078333
    10  C   -0.537472   0.022943
    11  C    0.346371   0.026737
    12  C    0.036653   0.100673
    13  C   -0.503098   0.058204
    14  C   -0.571134   0.062100
    15  H    0.144179  -0.004312
    16  H    0.144428  -0.004083
    17  H    0.146069  -0.002397
    18  N   -0.002889  -0.021854
    19  N   -0.136553  -0.022723
    20  O   -0.430885   0.072610
    21  O   -0.416588   0.069387
    22  O   -0.430886   0.066369
    23  O   -0.367143   0.072816
    24  C   -0.199617   0.001451
    25  H    0.174345  -0.000561
    26  H    0.178050  -0.001189
    27  H    0.174345  -0.000428
    28  C   -0.204041   0.001291
    29  H    0.170330  -0.000899
    30  H    0.173938  -0.001009
    31  H    0.174076  -0.000330
    32  C    0.106182  -0.016320
    33  C   -0.656967   0.040772
    34  S   -0.707237   0.009005
    35  C   -0.172660  -0.019872
    36  H    0.156627  -0.001915
    37  C    0.660950   0.031606
    38  O   -0.168716  -0.001228
    39  C    0.838550  -0.012089
    40  C   -0.237316   0.000208
    41  C    0.003403   0.019320
    42  S   -0.224990  -0.000550
    43  H    0.174918   0.000000
    44  H    0.162576  -0.000174
    45  H    0.160848  -0.000203
    46  C   -0.609552  -0.008362
    47  O   -0.164080   0.002863
    48  C   -0.325291   0.019828
    49  H    0.159398   0.000364
    50  C   -0.251868  -0.000254
    51  H    0.187077  -0.001188
    52  H    0.159526   0.000222
    53  H    0.172972  -0.000009
    54  H    0.158462   0.000287
 Sum of Mulliken charges =  -1.00000   1.00000

 Dipole moment (field-independent basis, Debye):
    X=             14.8163    Y=             -2.0722    Z=              1.4118  Tot=             15.0269
 Quadrupole moment (field-independent basis, Debye-Ang):
   XX=           -290.1965   YY=           -252.9930   ZZ=           -226.0266
   XY=             13.0839   XZ=             20.2364   YZ=             19.4473

 Normal termination of Gaussian 16 at Thu Oct 28 04:57:02 2021.
