 Gaussian 16, Revision C.01,
 Gaussian 16:  ES64L-G16RevC.01  3-Jul-2019

 ---------------------------------------------------------------
 # opt=modredundant b3lyp/6-311+g(d,p) scrf=(pcm, solvent=water)
 ---------------------------------------------------------------

 ----------
 NDI_15.pdb
 ----------
 Symbolic Z-matrix:
 Charge = -1 Multiplicity = 2

 SCF Done:  E(UB3LYP) =  -2359.47728947     A.U. after   21 cycles
 SCF Done:  E(UB3LYP) =  -2359.47755704     A.U. after   22 cycles
 SCF Done:  E(UB3LYP) =  -2359.49107669     A.U. after   15 cycles
 SCF Done:  E(UB3LYP) =  -2359.49533143     A.U. after   17 cycles
 SCF Done:  E(UB3LYP) =  -2359.49582587     A.U. after   18 cycles
 SCF Done:  E(UB3LYP) =  -2359.49622692     A.U. after   17 cycles
 SCF Done:  E(UB3LYP) =  -2359.49634219     A.U. after   15 cycles
 SCF Done:  E(UB3LYP) =  -2359.49667407     A.U. after   21 cycles
 SCF Done:  E(UB3LYP) =  -2359.49694334     A.U. after   19 cycles
 SCF Done:  E(UB3LYP) =  -2359.49749161     A.U. after   18 cycles
 SCF Done:  E(UB3LYP) =  -2359.50091025     A.U. after   14 cycles
 SCF Done:  E(UB3LYP) =  -2359.50091281     A.U. after   14 cycles
 SCF Done:  E(UB3LYP) =  -2359.50091488     A.U. after   13 cycles
 SCF Done:  E(UB3LYP) =  -2359.50091565     A.U. after   12 cycles
 SCF Done:  E(UB3LYP) =  -2359.50091809     A.U. after   14 cycles
 SCF Done:  E(UB3LYP) =  -2359.50091863     A.U. after   14 cycles
 SCF Done:  E(UB3LYP) =  -2359.50091976     A.U. after   13 cycles
 SCF Done:  E(UB3LYP) =  -2359.50092007     A.U. after   13 cycles
 SCF Done:  E(UB3LYP) =  -2359.50092020     A.U. after   10 cycles
 SCF Done:  E(UB3LYP) =  -2359.50092022     A.U. after    8 cycles
 Optimization completed.
    -- Stationary point found.

                         Standard orientation:
 ---------------------------------------------------------------------
 Center     Atomic      Atomic             Coordinates (Angstroms)
 Number     Number       Type             X           Y           Z
 ---------------------------------------------------------------------
      1          6           0       -2.640602   -3.016720    0.109802
      2          6           0       -2.304738   -1.602437   -0.001845
      3          6           0       -3.321939   -0.621833    0.064222
      4          6           0       -4.671856   -0.990327    0.249267
      5          6           0       -5.038427   -2.398981    0.372144
      6          6           0       -0.968401   -1.211890   -0.090673
      7          6           0       -2.955636    0.757117   -0.073041
      8          6           0       -1.593198    1.128776   -0.273607
      9          6           0       -0.561799    0.123058   -0.196243
     10          6           0       -1.341243    2.495414   -0.723301
     11          6           0       -3.690037    3.137680   -0.193954
     12          6           0       -3.993022    1.724276   -0.024143
     13          6           0       -5.331225    1.331184    0.178685
     14          6           0       -5.670563    0.000891    0.312928
     15          1           0       -6.699732   -0.299379    0.460140
     16          1           0       -6.090468    2.101596    0.218245
     17          1           0       -0.227137   -1.996448   -0.010174
     18          7           0       -2.369277    3.441082   -0.524710
     19          7           0       -3.993529   -3.334253    0.284904
     20          8           0       -1.804345   -3.926684    0.059579
     21          8           0       -6.202746   -2.778223    0.541056
     22          8           0       -4.536551    4.036400   -0.090837
     23          8           0       -0.308264    2.876192   -1.284402
     24          6           0       -2.044304    4.837550   -0.837097
     25          1           0       -1.036585    5.055327   -0.491726
     26          1           0       -2.090242    5.016776   -1.914249
     27          1           0       -2.768095    5.473550   -0.337044
     28          6           0       -4.316930   -4.761841    0.394665
     29          1           0       -3.962718   -5.290567   -0.490326
     30          1           0       -3.830457   -5.189755    1.272315
     31          1           0       -5.393733   -4.857421    0.483535
     32          6           0        0.864452    0.393259    0.005195
     33          6           0        1.507205    1.535670    0.428370
     34         16           0        2.049956   -0.861861   -0.351493
     35          6           0        2.912475    1.400180    0.513462
     36          1           0        0.984949    2.440557    0.687464
     37          6           0        3.400882    0.158072    0.122478
     38          8           0        3.785024    2.358011    0.932507
     39          6           0        4.767433   -0.293429    0.091254
     40          6           0        3.251860    3.622200    1.340538
     41          6           0        5.255260   -1.533893   -0.305392
     42         16           0        6.118988    0.727789    0.582958
     43          1           0        4.109138    4.226659    1.629810
     44          1           0        2.722425    4.108012    0.516517
     45          1           0        2.580511    3.505760    2.195716
     46          6           0        6.671384   -1.662067   -0.216918
     47          8           0        4.388536   -2.492794   -0.730862
     48          6           0        7.265252   -0.522081    0.245754
     49          1           0        7.221630   -2.552796   -0.482948
     50          6           0        4.929393   -3.754822   -1.136018
     51          1           0        8.316578   -0.340699    0.409004
     52          1           0        5.453617   -4.239826   -0.308084
     53          1           0        4.076724   -4.362073   -1.432613
     54          1           0        5.606837   -3.635166   -1.985916
 ---------------------------------------------------------------------

 The electronic state is 2-A.
 Alpha  occ. eigenvalues --  -88.88090 -88.87658 -19.16476 -19.16361 -19.10030
 Alpha  occ. eigenvalues --  -19.09978 -19.09562 -19.09412 -14.36783 -14.36336
 Alpha  occ. eigenvalues --  -10.28472 -10.28263 -10.28037 -10.27917 -10.24239
 Alpha  occ. eigenvalues --  -10.24028 -10.22550 -10.22482 -10.21491 -10.21436
 Alpha  occ. eigenvalues --  -10.21240 -10.20789 -10.20434 -10.20377 -10.20077
 Alpha  occ. eigenvalues --  -10.19773 -10.19636 -10.19291 -10.18966 -10.18897
 Alpha  occ. eigenvalues --  -10.18741 -10.18601 -10.18388 -10.18144 -10.18044
 Alpha  occ. eigenvalues --  -10.17787  -7.96651  -7.96234  -5.92960  -5.92575
 Alpha  occ. eigenvalues --   -5.92553  -5.92220  -5.92170  -5.91785  -1.07827
 Alpha  occ. eigenvalues --   -1.07675  -1.05952  -1.05609  -1.03908  -1.03491
 Alpha  occ. eigenvalues --   -0.94000  -0.93568  -0.89989  -0.89248  -0.87877
 Alpha  occ. eigenvalues --   -0.84147  -0.81813  -0.78877  -0.76642  -0.75832
 Alpha  occ. eigenvalues --   -0.75381  -0.74452  -0.73421  -0.72348  -0.70732
 Alpha  occ. eigenvalues --   -0.70380  -0.69365  -0.67543  -0.65142  -0.63997
 Alpha  occ. eigenvalues --   -0.63314  -0.62546  -0.59905  -0.58708  -0.56651
 Alpha  occ. eigenvalues --   -0.55735  -0.55428  -0.55049  -0.54078  -0.53180
 Alpha  occ. eigenvalues --   -0.51599  -0.49546  -0.48969  -0.48243  -0.47882
 Alpha  occ. eigenvalues --   -0.47841  -0.47718  -0.47484  -0.47226  -0.47073
 Alpha  occ. eigenvalues --   -0.46556  -0.45285  -0.45137  -0.44681  -0.44366
 Alpha  occ. eigenvalues --   -0.43896  -0.43092  -0.42926  -0.42307  -0.41944
 Alpha  occ. eigenvalues --   -0.41495  -0.41246  -0.41072  -0.40568  -0.40295
 Alpha  occ. eigenvalues --   -0.40181  -0.39886  -0.39399  -0.39102  -0.38867
 Alpha  occ. eigenvalues --   -0.38132  -0.37686  -0.37108  -0.36688  -0.35785
 Alpha  occ. eigenvalues --   -0.35041  -0.34789  -0.33650  -0.33422  -0.32830
 Alpha  occ. eigenvalues --   -0.32389  -0.30148  -0.29418  -0.28973  -0.28162
 Alpha  occ. eigenvalues --   -0.28004  -0.27226  -0.26957  -0.26374  -0.26136
 Alpha  occ. eigenvalues --   -0.24715  -0.24331  -0.23763  -0.19131  -0.15341
 Alpha virt. eigenvalues --   -0.06829  -0.05366  -0.03247  -0.02433  -0.00304
 Alpha virt. eigenvalues --    0.00409   0.00495   0.00589   0.00903   0.01430
 Alpha virt. eigenvalues --    0.01788   0.02211   0.02360   0.02634   0.02820

  Beta  occ. eigenvalues --  -88.88089 -88.87646 -19.16457 -19.16367 -19.09849
  Beta  occ. eigenvalues --  -19.09787 -19.09388 -19.09227 -14.36834 -14.36388
  Beta  occ. eigenvalues --  -10.28414 -10.28206 -10.27977 -10.27863 -10.24202
  Beta  occ. eigenvalues --  -10.24052 -10.22551 -10.22481 -10.21473 -10.21396
  Beta  occ. eigenvalues --  -10.21292 -10.20663 -10.20480 -10.20341 -10.20133
  Beta  occ. eigenvalues --  -10.19772 -10.19635 -10.19139 -10.18823 -10.18734
  Beta  occ. eigenvalues --  -10.18595 -10.18549 -10.18401 -10.18068 -10.17965
  Beta  occ. eigenvalues --  -10.17731  -7.96650  -7.96224  -5.92959  -5.92575
  Beta  occ. eigenvalues --   -5.92547  -5.92217  -5.92164  -5.91747  -1.07793
  Beta  occ. eigenvalues --   -1.07681  -1.05714  -1.05380  -1.03587  -1.03180
  Beta  occ. eigenvalues --   -0.93889  -0.93462  -0.89891  -0.89151  -0.87824
  Beta  occ. eigenvalues --   -0.83839  -0.81528  -0.78734  -0.76522  -0.75526
  Beta  occ. eigenvalues --   -0.75217  -0.74407  -0.73355  -0.72282  -0.70685
  Beta  occ. eigenvalues --   -0.70109  -0.69215  -0.67424  -0.64987  -0.63811
  Beta  occ. eigenvalues --   -0.63222  -0.62360  -0.59852  -0.58647  -0.56566
  Beta  occ. eigenvalues --   -0.55635  -0.55386  -0.54943  -0.54051  -0.53031
  Beta  occ. eigenvalues --   -0.51498  -0.49410  -0.48849  -0.47987  -0.47812
  Beta  occ. eigenvalues --   -0.47752  -0.47564  -0.47465  -0.47159  -0.46954
  Beta  occ. eigenvalues --   -0.46503  -0.45228  -0.45049  -0.44593  -0.44242
  Beta  occ. eigenvalues --   -0.43810  -0.42918  -0.42754  -0.42046  -0.41867
  Beta  occ. eigenvalues --   -0.41378  -0.41137  -0.40959  -0.40314  -0.39908
  Beta  occ. eigenvalues --   -0.39857  -0.39523  -0.39110  -0.38708  -0.38555
  Beta  occ. eigenvalues --   -0.38017  -0.37543  -0.36821  -0.36631  -0.35754
  Beta  occ. eigenvalues --   -0.34915  -0.34535  -0.33510  -0.33406  -0.32775
  Beta  occ. eigenvalues --   -0.31898  -0.29492  -0.28939  -0.28604  -0.27894
  Beta  occ. eigenvalues --   -0.27520  -0.26930  -0.26755  -0.26131  -0.25762
  Beta  occ. eigenvalues --   -0.24350  -0.24122  -0.22655  -0.18657
  Beta virt. eigenvalues --   -0.11155  -0.06237  -0.04432  -0.02375  -0.02210
  Beta virt. eigenvalues --   -0.00287   0.00421   0.00595   0.00653   0.01020
  Beta virt. eigenvalues --    0.01447   0.01800   0.02281   0.02673   0.02851

 Mulliken charges and spin densities:
               1          2
     1  C    0.301283   0.026416
     2  C   -0.086565   0.116116
     3  C    0.216669  -0.036680
     4  C    0.193816   0.098162
     5  C    0.243560   0.025838
     6  C    0.071763   0.036577
     7  C    0.250077  -0.026179
     8  C    0.508705   0.111587
     9  C    0.098578   0.081047
    10  C   -0.899215   0.018920
    11  C    0.259042   0.025139
    12  C    0.104050   0.094638
    13  C   -0.499570   0.056970
    14  C   -0.601130   0.061605
    15  H    0.143891  -0.004139
    16  H    0.144555  -0.003982
    17  H    0.145862  -0.001572
    18  N    0.004234  -0.021845
    19  N   -0.131013  -0.022036
    20  O   -0.434071   0.070985
    21  O   -0.413909   0.067054
    22  O   -0.434663   0.064814
    23  O   -0.368240   0.069528
    24  C   -0.183655   0.001558
    25  H    0.171889  -0.000522
    26  H    0.177019  -0.001187
    27  H    0.172583  -0.000460
    28  C   -0.209223   0.001130
    29  H    0.170754  -0.000874
    30  H    0.173926  -0.000967
    31  H    0.173577  -0.000319
    32  C   -0.262803  -0.033006
    33  C   -0.349173   0.050952
    34  S   -0.650482   0.017430
    35  C   -0.318800  -0.014137
    36  H    0.162633  -0.003060
    37  C    0.689748   0.047963
    38  O   -0.159733  -0.000519
    39  C    0.877798  -0.014800
    40  C   -0.241798   0.000080
    41  C    0.047544   0.024626
    42  S   -0.211250  -0.000544
    43  H    0.175767  -0.000001
    44  H    0.162339  -0.000267
    45  H    0.160944  -0.000156
    46  C   -0.628643  -0.010128
    47  O   -0.163187   0.003813
    48  C   -0.343933   0.025106
    49  H    0.160147   0.000460
    50  C   -0.251175  -0.000321
    51  H    0.188013  -0.001506
    52  H    0.159273   0.000360
    53  H    0.173455  -0.000014
    54  H    0.158737   0.000343
 Sum of Mulliken charges =  -1.00000   1.00000

 Dipole moment (field-independent basis, Debye):
    X=             15.6913    Y=             -0.6132    Z=              1.3745  Tot=             15.7633
 Quadrupole moment (field-independent basis, Debye-Ang):
   XX=           -292.8362   YY=           -246.7600   ZZ=           -229.5085
   XY=             -8.9177   XZ=              3.4849   YZ=             14.7253

 Normal termination of Gaussian 16 at Thu Oct 28 11:01:23 2021.
