 Gaussian 16, Revision C.01,
 Gaussian 16:  ES64L-G16RevC.01  3-Jul-2019

 ---------------------------------------------------------------
 # opt=modredundant b3lyp/6-311+g(d,p) scrf=(pcm, solvent=water)
 ---------------------------------------------------------------

 -----------
 NDI_-55.pdb
 -----------
 Symbolic Z-matrix:
 Charge = -1 Multiplicity = 2

 SCF Done:  E(UB3LYP) =  -2359.49786746     A.U. after   22 cycles
 SCF Done:  E(UB3LYP) =  -2359.50262862     A.U. after   18 cycles
 SCF Done:  E(UB3LYP) =  -2359.50332014     A.U. after   17 cycles
 SCF Done:  E(UB3LYP) =  -2359.50357959     A.U. after   16 cycles
 SCF Done:  E(UB3LYP) =  -2359.50374882     A.U. after   16 cycles
 SCF Done:  E(UB3LYP) =  -2359.50381766     A.U. after   14 cycles
 SCF Done:  E(UB3LYP) =  -2359.50383737     A.U. after   15 cycles
 SCF Done:  E(UB3LYP) =  -2359.50384766     A.U. after   11 cycles
 SCF Done:  E(UB3LYP) =  -2359.50386196     A.U. after   14 cycles
 SCF Done:  E(UB3LYP) =  -2359.50387362     A.U. after   14 cycles
 SCF Done:  E(UB3LYP) =  -2359.50389469     A.U. after   13 cycles
 SCF Done:  E(UB3LYP) =  -2359.50390336     A.U. after   11 cycles
 SCF Done:  E(UB3LYP) =  -2359.50390482     A.U. after   13 cycles
 SCF Done:  E(UB3LYP) =  -2359.50390559     A.U. after   10 cycles
 SCF Done:  E(UB3LYP) =  -2359.50390660     A.U. after   13 cycles
 SCF Done:  E(UB3LYP) =  -2359.50390650     A.U. after   12 cycles
 SCF Done:  E(UB3LYP) =  -2359.50390755     A.U. after    9 cycles
 SCF Done:  E(UB3LYP) =  -2359.50390794     A.U. after   11 cycles
 SCF Done:  E(UB3LYP) =  -2359.50390808     A.U. after   10 cycles
 SCF Done:  E(UB3LYP) =  -2359.50390812     A.U. after   10 cycles
 Optimization completed.
    -- Stationary point found.

                         Standard orientation:
 ---------------------------------------------------------------------
 Center     Atomic      Atomic             Coordinates (Angstroms)
 Number     Number       Type             X           Y           Z
 ---------------------------------------------------------------------
      1          6           0        2.880533   -2.916912    0.503558
      2          6           0        2.432662   -1.550749    0.267579
      3          6           0        3.377025   -0.518395    0.064549
      4          6           0        4.764533   -0.789646    0.091947
      5          6           0        5.243109   -2.147224    0.330968
      6          6           0        1.065018   -1.249308    0.290193
      7          6           0        2.907900    0.814463   -0.180309
      8          6           0        1.510276    1.087062   -0.219032
      9          6           0        0.581987    0.041034    0.084436
     10          6           0        1.079406    2.410725   -0.668622
     11          6           0        3.446791    3.201139   -0.664442
     12          6           0        3.869593    1.834390   -0.393630
     13          6           0        5.246680    1.537357   -0.352137
     14          6           0        5.689354    0.252183   -0.114811
     15          1           0        6.747097    0.025037   -0.088434
     16          1           0        5.950925    2.342848   -0.515321
     17          1           0        0.371982   -2.046131    0.526906
     18          7           0        2.069013    3.408517   -0.773059
     19          7           0        4.264016   -3.137036    0.520292
     20          8           0        2.111965   -3.869411    0.686000
     21          8           0        6.443971   -2.441281    0.368676
     22          8           0        4.239515    4.140661   -0.813987
     23          8           0       -0.077996    2.707545   -0.977641
     24          6           0        1.596967    4.751969   -1.128295
     25          1           0        1.285930    4.786376   -2.174726
     26          1           0        0.743458    5.012331   -0.505163
     27          1           0        2.413182    5.448702   -0.968176
     28          6           0        4.699012   -4.518203    0.759986
     29          1           0        4.333532   -4.861554    1.728450
     30          1           0        4.298792   -5.174204   -0.013727
     31          1           0        5.783423   -4.537157    0.742100
     32          6           0       -0.862316    0.257027    0.285724
     33          6           0       -1.489459    1.108193    1.158148
     34         16           0       -2.023733   -0.735817   -0.560172
     35          6           0       -2.902479    0.971987    1.151108
     36          1           0       -0.950095    1.805307    1.782096
     37          6           0       -3.385675    0.012398    0.270174
     38          8           0       -3.779110    1.676684    1.920586
     39          6           0       -4.755590   -0.362245    0.018019
     40          6           0       -3.250565    2.682516    2.790576
     41          6           0       -5.234976   -1.328996   -0.856570
     42         16           0       -6.117956    0.405555    0.832174
     43          1           0       -4.110031    3.126615    3.288784
     44          1           0       -2.582571    2.243593    3.536870
     45          1           0       -2.718702    3.451080    2.223078
     46          6           0       -6.654938   -1.452302   -0.874096
     47          8           0       -4.356749   -2.056064   -1.602746
     48          6           0       -7.259939   -0.580142   -0.014504
     49          1           0       -7.199662   -2.151535   -1.491716
     50          6           0       -4.888438   -3.046733   -2.487898
     51          1           0       -8.315365   -0.457918    0.174884
     52          1           0       -5.537549   -2.591555   -3.241139
     53          1           0       -4.028922   -3.501775   -2.975938
     54          1           0       -5.441201   -3.810848   -1.934308
 ---------------------------------------------------------------------

 The electronic state is 2-A.
 Alpha  occ. eigenvalues --  -88.87968 -88.87706 -19.16311 -19.16261 -19.09922
 Alpha  occ. eigenvalues --  -19.09895 -19.09666 -19.09507 -14.36731 -14.36432
 Alpha  occ. eigenvalues --  -10.28367 -10.28179 -10.28122 -10.28058 -10.23995
 Alpha  occ. eigenvalues --  -10.23917 -10.22487 -10.22449 -10.21302 -10.21107
 Alpha  occ. eigenvalues --  -10.21038 -10.20542 -10.20457 -10.20208 -10.20193
 Alpha  occ. eigenvalues --  -10.19741 -10.19618 -10.19473 -10.18937 -10.18906
 Alpha  occ. eigenvalues --  -10.18841 -10.18497 -10.18286 -10.18197 -10.18134
 Alpha  occ. eigenvalues --  -10.17719  -7.96530  -7.96270  -5.92839  -5.92586
 Alpha  occ. eigenvalues --   -5.92455  -5.92202  -5.92100  -5.91822  -1.07639
 Alpha  occ. eigenvalues --   -1.07540  -1.05852  -1.05692  -1.03796  -1.03603
 Alpha  occ. eigenvalues --   -0.93933  -0.93627  -0.89965  -0.89198  -0.87817
 Alpha  occ. eigenvalues --   -0.84167  -0.81860  -0.78769  -0.76463  -0.75844
 Alpha  occ. eigenvalues --   -0.75329  -0.74380  -0.73429  -0.72226  -0.70734
 Alpha  occ. eigenvalues --   -0.70287  -0.69328  -0.67511  -0.65120  -0.64029
 Alpha  occ. eigenvalues --   -0.63210  -0.62593  -0.59807  -0.58584  -0.56645
 Alpha  occ. eigenvalues --   -0.55657  -0.55324  -0.55018  -0.53945  -0.53120
 Alpha  occ. eigenvalues --   -0.51549  -0.49517  -0.48995  -0.48229  -0.47880
 Alpha  occ. eigenvalues --   -0.47755  -0.47725  -0.47394  -0.47222  -0.47001
 Alpha  occ. eigenvalues --   -0.46557  -0.45187  -0.45037  -0.44677  -0.44422
 Alpha  occ. eigenvalues --   -0.43962  -0.43187  -0.42874  -0.42412  -0.42111
 Alpha  occ. eigenvalues --   -0.41349  -0.41032  -0.40876  -0.40457  -0.40355
 Alpha  occ. eigenvalues --   -0.40196  -0.39864  -0.39529  -0.39112  -0.38585
 Alpha  occ. eigenvalues --   -0.38115  -0.37625  -0.37187  -0.36839  -0.35670
 Alpha  occ. eigenvalues --   -0.34891  -0.34154  -0.33540  -0.33273  -0.32988
 Alpha  occ. eigenvalues --   -0.32639  -0.30075  -0.29321  -0.28802  -0.28127
 Alpha  occ. eigenvalues --   -0.27927  -0.27355  -0.26858  -0.26421  -0.26173
 Alpha  occ. eigenvalues --   -0.24522  -0.24240  -0.24016  -0.18924  -0.15498
 Alpha virt. eigenvalues --   -0.06071  -0.05086  -0.03422  -0.02749  -0.00282
 Alpha virt. eigenvalues --    0.00060   0.00373   0.00755   0.00873   0.01219
 Alpha virt. eigenvalues --    0.01663   0.02307   0.02388   0.02436   0.02620

  Beta  occ. eigenvalues --  -88.87967 -88.87702 -19.16304 -19.16265 -19.09729
  Beta  occ. eigenvalues --  -19.09695 -19.09482 -19.09308 -14.36786 -14.36485
  Beta  occ. eigenvalues --  -10.28306 -10.28119 -10.28067 -10.28002 -10.23980
  Beta  occ. eigenvalues --  -10.23931 -10.22487 -10.22448 -10.21312 -10.21071
  Beta  occ. eigenvalues --  -10.21066 -10.20511 -10.20440 -10.20263 -10.20178
  Beta  occ. eigenvalues --  -10.19740 -10.19617 -10.19304 -10.18784 -10.18738
  Beta  occ. eigenvalues --  -10.18683 -10.18429 -10.18292 -10.18114 -10.18050
  Beta  occ. eigenvalues --  -10.17686  -7.96530  -7.96265  -5.92838  -5.92582
  Beta  occ. eigenvalues --   -5.92454  -5.92199  -5.92099  -5.91813  -1.07629
  Beta  occ. eigenvalues --   -1.07542  -1.05602  -1.05449  -1.03456  -1.03273
  Beta  occ. eigenvalues --   -0.93814  -0.93516  -0.89863  -0.89119  -0.87777
  Beta  occ. eigenvalues --   -0.83851  -0.81558  -0.78634  -0.76352  -0.75489
  Beta  occ. eigenvalues --   -0.75189  -0.74355  -0.73359  -0.72178  -0.70690
  Beta  occ. eigenvalues --   -0.69985  -0.69186  -0.67404  -0.64966  -0.63831
  Beta  occ. eigenvalues --   -0.63127  -0.62396  -0.59766  -0.58529  -0.56560
  Beta  occ. eigenvalues --   -0.55534  -0.55308  -0.54909  -0.53933  -0.52969
  Beta  occ. eigenvalues --   -0.51435  -0.49367  -0.48907  -0.47957  -0.47739
  Beta  occ. eigenvalues --   -0.47697  -0.47593  -0.47385  -0.47157  -0.46879
  Beta  occ. eigenvalues --   -0.46514  -0.45136  -0.44933  -0.44606  -0.44297
  Beta  occ. eigenvalues --   -0.43870  -0.43008  -0.42701  -0.42246  -0.41891
  Beta  occ. eigenvalues --   -0.41280  -0.40969  -0.40792  -0.40204  -0.39928
  Beta  occ. eigenvalues --   -0.39820  -0.39444  -0.39072  -0.38667  -0.38443
  Beta  occ. eigenvalues --   -0.38071  -0.37452  -0.36872  -0.36797  -0.35655
  Beta  occ. eigenvalues --   -0.34797  -0.33942  -0.33412  -0.33216  -0.32971
  Beta  occ. eigenvalues --   -0.32076  -0.29279  -0.28926  -0.28550  -0.27748
  Beta  occ. eigenvalues --   -0.27501  -0.27038  -0.26643  -0.26030  -0.25854
  Beta  occ. eigenvalues --   -0.24345  -0.24060  -0.22721  -0.18721
  Beta virt. eigenvalues --   -0.11071  -0.05389  -0.04354  -0.02687  -0.02252
  Beta virt. eigenvalues --   -0.00266   0.00169   0.00386   0.00760   0.00892
  Beta virt. eigenvalues --    0.01263   0.01676   0.02410   0.02460   0.02765

 Mulliken charges and spin densities:
               1          2
     1  C    0.426923   0.026896
     2  C   -0.158538   0.118623
     3  C    0.101150  -0.036756
     4  C    0.192623   0.105223
     5  C    0.271807   0.026390
     6  C   -0.513765   0.057971
     7  C    0.195353  -0.032334
     8  C    0.186462   0.121037
     9  C    0.480604   0.068136
    10  C   -0.435270   0.028547
    11  C    0.252488   0.025407
    12  C    0.107659   0.104953
    13  C   -0.494680   0.061870
    14  C   -0.618269   0.065099
    15  H    0.144132  -0.004471
    16  H    0.144375  -0.004257
    17  H    0.151919  -0.003162
    18  N   -0.089806  -0.022234
    19  N   -0.136545  -0.023324
    20  O   -0.432181   0.074431
    21  O   -0.417962   0.071714
    22  O   -0.426783   0.068441
    23  O   -0.303116   0.074299
    24  C   -0.200535   0.001296
    25  H    0.176564  -0.001162
    26  H    0.171421  -0.000645
    27  H    0.173872  -0.000390
    28  C   -0.207876   0.001241
    29  H    0.172452  -0.000992
    30  H    0.171449  -0.000975
    31  H    0.174001  -0.000339
    32  C    0.093159  -0.028648
    33  C   -0.457011   0.021679
    34  S   -0.487729   0.009463
    35  C   -0.236580  -0.007515
    36  H    0.148273  -0.001627
    37  C    0.631125   0.026541
    38  O   -0.169683  -0.000570
    39  C    0.710781  -0.007780
    40  C   -0.235236   0.000244
    41  C   -0.003417   0.010148
    42  S   -0.242121   0.000057
    43  H    0.173999  -0.000008
    44  H    0.160189  -0.000080
    45  H    0.162534  -0.000131
    46  C   -0.585468  -0.004456
    47  O   -0.167858   0.001910
    48  C   -0.338074   0.010399
    49  H    0.158970   0.000193
    50  C   -0.250824  -0.000002
    51  H    0.186052  -0.000618
    52  H    0.158477   0.000132
    53  H    0.172193   0.000005
    54  H    0.158321   0.000128
 Sum of Mulliken charges =  -1.00000   1.00000

 Dipole moment (field-independent basis, Debye):
    X=            -14.6585    Y=             -0.5592    Z=              1.1716  Tot=             14.7159
 Quadrupole moment (field-independent basis, Debye-Ang):
   XX=           -298.2040   YY=           -256.9833   ZZ=           -217.3499
   XY=              7.9119   XZ=              7.5082   YZ=             25.7770

 Normal termination of Gaussian 16 at Thu Oct 28 06:00:58 2021.
