 Gaussian 16, Revision C.01,
 Gaussian 16:  ES64L-G16RevC.01  3-Jul-2019

 ---------------------------------------------------------------
 # opt=modredundant b3lyp/6-311+g(d,p) scrf=(pcm, solvent=water)
 ---------------------------------------------------------------

 ------------
 NDI_-160.pdb
 ------------
 Symbolic Z-matrix:
 Charge = -1 Multiplicity = 2

 SCF Done:  E(UB3LYP) =  -2359.46295464     A.U. after   21 cycles
 SCF Done:  E(UB3LYP) =  -2359.48500506     A.U. after   22 cycles
 SCF Done:  E(UB3LYP) =  -2359.49462575     A.U. after   20 cycles
 SCF Done:  E(UB3LYP) =  -2359.49715192     A.U. after   17 cycles
 SCF Done:  E(UB3LYP) =  -2359.49802501     A.U. after   19 cycles
 SCF Done:  E(UB3LYP) =  -2359.49831908     A.U. after   20 cycles
 SCF Done:  E(UB3LYP) =  -2359.49866304     A.U. after   16 cycles
 SCF Done:  E(UB3LYP) =  -2359.49900581     A.U. after   16 cycles
 SCF Done:  E(UB3LYP) =  -2359.49995669     A.U. after   20 cycles
 SCF Done:  E(UB3LYP) =  -2359.50032416     A.U. after   20 cycles
 SCF Done:  E(UB3LYP) =  -2359.50156898     A.U. after    9 cycles
 SCF Done:  E(UB3LYP) =  -2359.50156919     A.U. after    8 cycles
 SCF Done:  E(UB3LYP) =  -2359.50156930     A.U. after   10 cycles
 SCF Done:  E(UB3LYP) =  -2359.50156938     A.U. after    9 cycles
 SCF Done:  E(UB3LYP) =  -2359.50156943     A.U. after   11 cycles
 SCF Done:  E(UB3LYP) =  -2359.50156947     A.U. after    9 cycles
 SCF Done:  E(UB3LYP) =  -2359.50156949     A.U. after    9 cycles
 SCF Done:  E(UB3LYP) =  -2359.50156952     A.U. after    8 cycles
 SCF Done:  E(UB3LYP) =  -2359.50156953     A.U. after    8 cycles
 SCF Done:  E(UB3LYP) =  -2359.50156954     A.U. after    9 cycles
 Optimization completed.
    -- Stationary point found.

                         Standard orientation:
 ---------------------------------------------------------------------
 Center     Atomic      Atomic             Coordinates (Angstroms)
 Number     Number       Type             X           Y           Z
 ---------------------------------------------------------------------
      1          6           0       -3.536133   -2.669029    0.255683
      2          6           0       -2.786050   -1.448665   -0.014618
      3          6           0       -3.413170   -0.187096    0.114513
      4          6           0       -4.764190   -0.084231    0.512744
      5          6           0       -5.538853   -1.289059    0.795624
      6          6           0       -1.425180   -1.522377   -0.325806
      7          6           0       -2.653168    0.992333   -0.176003
      8          6           0       -1.293243    0.888237   -0.586056
      9          6           0       -0.645653   -0.393392   -0.590568
     10          6           0       -0.669887    2.081058   -1.151694
     11          6           0       -2.585994    3.476364   -0.384125
     12          6           0       -3.300481    2.249050   -0.062112
     13          6           0       -4.645720    2.324418    0.351747
     14          6           0       -5.367445    1.182996    0.635407
     15          1           0       -6.402344    1.242629    0.946166
     16          1           0       -5.102890    3.302079    0.434526
     17          1           0       -0.958824   -2.497258   -0.291054
     18          7           0       -1.300390    3.317041   -0.906984
     19          7           0       -4.876974   -2.517867    0.633173
     20          8           0       -3.054585   -3.805206    0.167856
     21          8           0       -6.720824   -1.260307    1.157439
     22          8           0       -3.073045    4.606304   -0.243460
     23          8           0        0.352609    2.073735   -1.845358
     24          6           0       -0.589520    4.515844   -1.366532
     25          1           0        0.467014    4.420329   -1.126549
     26          1           0       -0.691664    4.636926   -2.447772
     27          1           0       -1.020031    5.377168   -0.865903
     28          6           0       -5.622759   -3.755367    0.891605
     29          1           0       -5.549067   -4.415721    0.028050
     30          1           0       -5.208382   -4.271431    1.759357
     31          1           0       -6.658213   -3.491771    1.078483
     32          6           0        0.806661   -0.612572   -0.657582
     33          6           0        1.439561   -1.777475   -1.045036
     34         16           0        1.947322    0.453796    0.133386
     35          6           0        2.823090   -1.799891   -0.749376
     36          1           0        0.923560   -2.582499   -1.547436
     37          6           0        3.285208   -0.667487   -0.088473
     38          8           0        3.694982   -2.801153   -1.056709
     39          6           0        4.629146   -0.371945    0.339400
     40          6           0        3.181112   -3.956736   -1.726030
     41          6           0        5.089104    0.749128    1.020860
     42         16           0        5.983011   -1.463436    0.044734
     43          1           0        4.032033   -4.618985   -1.872317
     44          1           0        2.426797   -4.460303   -1.115022
     45          1           0        2.754420   -3.689791   -2.696851
     46          6           0        6.487241    0.735072    1.296121
     47          8           0        4.214727    1.734392    1.364034
     48          6           0        7.094553   -0.395481    0.828180
     49          1           0        7.015507    1.521120    1.815765
     50          6           0        4.729144    2.878065    2.054071
     51          1           0        8.136365   -0.667938    0.900347
     52          1           0        5.472585    3.400609    1.445899
     53          1           0        3.875526    3.530586    2.225532
     54          1           0        5.168670    2.591596    3.013465
 ---------------------------------------------------------------------

 The electronic state is 2-A.
 Alpha  occ. eigenvalues --  -88.88039 -88.87467 -19.16410 -19.16295 -19.09986
 Alpha  occ. eigenvalues --  -19.09941 -19.09632 -19.09524 -14.36753 -14.36401
 Alpha  occ. eigenvalues --  -10.28424 -10.28231 -10.28062 -10.28010 -10.24165
 Alpha  occ. eigenvalues --  -10.23915 -10.22524 -10.22476 -10.21379 -10.21307
 Alpha  occ. eigenvalues --  -10.21276 -10.20652 -10.20405 -10.20319 -10.20111
 Alpha  occ. eigenvalues --  -10.19756 -10.19651 -10.19245 -10.18954 -10.18896
 Alpha  occ. eigenvalues --  -10.18788 -10.18548 -10.18347 -10.18175 -10.18092
 Alpha  occ. eigenvalues --  -10.18003  -7.96602  -7.96033  -5.92910  -5.92525
 Alpha  occ. eigenvalues --   -5.92356  -5.92172  -5.91967  -5.91573  -1.07753
 Alpha  occ. eigenvalues --   -1.07590  -1.05904  -1.05664  -1.03857  -1.03568
 Alpha  occ. eigenvalues --   -0.93961  -0.93635  -0.89971  -0.89228  -0.87851
 Alpha  occ. eigenvalues --   -0.84153  -0.81828  -0.78900  -0.76379  -0.75942
 Alpha  occ. eigenvalues --   -0.75354  -0.74436  -0.73429  -0.72315  -0.70783
 Alpha  occ. eigenvalues --   -0.70030  -0.69546  -0.67582  -0.65085  -0.64058
 Alpha  occ. eigenvalues --   -0.63198  -0.62613  -0.59804  -0.58658  -0.56664
 Alpha  occ. eigenvalues --   -0.55782  -0.55399  -0.55015  -0.54047  -0.52902
 Alpha  occ. eigenvalues --   -0.51787  -0.49413  -0.48869  -0.48299  -0.47904
 Alpha  occ. eigenvalues --   -0.47817  -0.47666  -0.47437  -0.47333  -0.47000
 Alpha  occ. eigenvalues --   -0.46561  -0.45309  -0.45155  -0.44674  -0.44522
 Alpha  occ. eigenvalues --   -0.43716  -0.43155  -0.43030  -0.42482  -0.42030
 Alpha  occ. eigenvalues --   -0.41430  -0.41124  -0.40886  -0.40529  -0.40313
 Alpha  occ. eigenvalues --   -0.40073  -0.39870  -0.39596  -0.39204  -0.38712
 Alpha  occ. eigenvalues --   -0.38082  -0.37644  -0.37058  -0.36776  -0.35613
 Alpha  occ. eigenvalues --   -0.34935  -0.34683  -0.33605  -0.33296  -0.32981
 Alpha  occ. eigenvalues --   -0.32349  -0.29986  -0.29366  -0.29006  -0.28194
 Alpha  occ. eigenvalues --   -0.27943  -0.27283  -0.26937  -0.26374  -0.26228
 Alpha  occ. eigenvalues --   -0.24624  -0.24313  -0.23777  -0.19038  -0.15385
 Alpha virt. eigenvalues --   -0.06571  -0.05286  -0.03241  -0.02638  -0.00321
 Alpha virt. eigenvalues --    0.00252   0.00426   0.00622   0.00800   0.01455
 Alpha virt. eigenvalues --    0.01828   0.02307   0.02355   0.02525   0.02635

  Beta  occ. eigenvalues --  -88.88039 -88.87463 -19.16394 -19.16304 -19.09801
  Beta  occ. eigenvalues --  -19.09748 -19.09456 -19.09333 -14.36806 -14.36454
  Beta  occ. eigenvalues --  -10.28364 -10.28173 -10.28005 -10.27956 -10.24131
  Beta  occ. eigenvalues --  -10.23945 -10.22525 -10.22475 -10.21397 -10.21323
  Beta  occ. eigenvalues --  -10.21238 -10.20533 -10.20454 -10.20287 -10.20167
  Beta  occ. eigenvalues --  -10.19755 -10.19650 -10.19089 -10.18808 -10.18732
  Beta  occ. eigenvalues --  -10.18638 -10.18490 -10.18359 -10.18097 -10.18011
  Beta  occ. eigenvalues --  -10.17939  -7.96601  -7.96030  -5.92909  -5.92525
  Beta  occ. eigenvalues --   -5.92352  -5.92169  -5.91963  -5.91566  -1.07724
  Beta  occ. eigenvalues --   -1.07604  -1.05662  -1.05429  -1.03530  -1.03250
  Beta  occ. eigenvalues --   -0.93847  -0.93528  -0.89870  -0.89139  -0.87801
  Beta  occ. eigenvalues --   -0.83842  -0.81538  -0.78756  -0.76272  -0.75637
  Beta  occ. eigenvalues --   -0.75184  -0.74389  -0.73361  -0.72236  -0.70741
  Beta  occ. eigenvalues --   -0.69763  -0.69396  -0.67467  -0.64933  -0.63872
  Beta  occ. eigenvalues --   -0.63081  -0.62463  -0.59737  -0.58596  -0.56587
  Beta  occ. eigenvalues --   -0.55657  -0.55372  -0.54900  -0.54027  -0.52773
  Beta  occ. eigenvalues --   -0.51675  -0.49248  -0.48806  -0.48026  -0.47783
  Beta  occ. eigenvalues --   -0.47686  -0.47588  -0.47426  -0.47252  -0.46883
  Beta  occ. eigenvalues --   -0.46509  -0.45244  -0.45089  -0.44545  -0.44442
  Beta  occ. eigenvalues --   -0.43611  -0.42991  -0.42833  -0.42340  -0.41811
  Beta  occ. eigenvalues --   -0.41374  -0.41042  -0.40812  -0.40121  -0.39924
  Beta  occ. eigenvalues --   -0.39881  -0.39435  -0.39154  -0.38829  -0.38550
  Beta  occ. eigenvalues --   -0.37958  -0.37450  -0.36794  -0.36733  -0.35593
  Beta  occ. eigenvalues --   -0.34803  -0.34427  -0.33491  -0.33255  -0.32964
  Beta  occ. eigenvalues --   -0.31827  -0.29240  -0.28940  -0.28657  -0.27938
  Beta  occ. eigenvalues --   -0.27469  -0.27000  -0.26736  -0.26172  -0.25746
  Beta  occ. eigenvalues --   -0.24393  -0.23938  -0.22702  -0.18679
  Beta virt. eigenvalues --   -0.11121  -0.05958  -0.04379  -0.02515  -0.02254
  Beta virt. eigenvalues --   -0.00305   0.00364   0.00510   0.00634   0.00852
  Beta virt. eigenvalues --    0.01464   0.01848   0.02363   0.02537   0.02925

 Mulliken charges and spin densities:
               1          2
     1  C    0.377417   0.027272
     2  C   -0.094444   0.114794
     3  C    0.118508  -0.038813
     4  C    0.223568   0.101253
     5  C    0.239497   0.025631
     6  C   -0.026343   0.042873
     7  C    0.119975  -0.030659
     8  C    0.251056   0.116229
     9  C    0.244701   0.080814
    10  C   -0.588732   0.022868
    11  C    0.352313   0.026961
    12  C    0.037201   0.099114
    13  C   -0.505868   0.057499
    14  C   -0.569744   0.061786
    15  H    0.144185  -0.004263
    16  H    0.144438  -0.004041
    17  H    0.145484  -0.002180
    18  N    0.009972  -0.021766
    19  N   -0.136973  -0.022531
    20  O   -0.430862   0.072070
    21  O   -0.416625   0.068705
    22  O   -0.431488   0.065929
    23  O   -0.367331   0.072375
    24  C   -0.202042   0.001489
    25  H    0.174598  -0.000565
    26  H    0.177975  -0.001188
    27  H    0.174256  -0.000432
    28  C   -0.205489   0.001285
    29  H    0.169530  -0.000851
    30  H    0.175179  -0.001035
    31  H    0.173810  -0.000328
    32  C    0.065361  -0.018052
    33  C   -0.646565   0.045991
    34  S   -0.713345   0.007937
    35  C   -0.233426  -0.023147
    36  H    0.155238  -0.002165
    37  C    0.685065   0.037576
    38  O   -0.167457  -0.001399
    39  C    0.846459  -0.013868
    40  C   -0.237805   0.000220
    41  C   -0.009933   0.021906
    42  S   -0.220040  -0.000689
    43  H    0.175170   0.000000
    44  H    0.162349  -0.000201
    45  H    0.160555  -0.000232
    46  C   -0.598086  -0.009556
    47  O   -0.162666   0.003341
    48  C   -0.324661   0.022703
    49  H    0.159464   0.000417
    50  C   -0.251968  -0.000280
    51  H    0.187260  -0.001361
    52  H    0.159564   0.000256
    53  H    0.173117  -0.000010
    54  H    0.158627   0.000321
 Sum of Mulliken charges =  -1.00000   1.00000

 Dipole moment (field-independent basis, Debye):
    X=             14.8917    Y=             -2.1760    Z=              1.4327  Tot=             15.1179
 Quadrupole moment (field-independent basis, Debye-Ang):
   XX=           -289.0355   YY=           -251.6003   ZZ=           -228.0595
   XY=             13.6470   XZ=             20.4793   YZ=             17.7809

 Normal termination of Gaussian 16 at Thu Oct 28 11:10:13 2021.
