 Gaussian 16, Revision C.01,
 Gaussian 16:  ES64L-G16RevC.01  3-Jul-2019

 ---------------------------------------------------------------
 # opt=modredundant b3lyp/6-311+g(d,p) scrf=(pcm, solvent=water)
 ---------------------------------------------------------------

 -----------
 NDI_145.pdb
 -----------
 Symbolic Z-matrix:
 Charge = -1 Multiplicity = 2

 SCF Done:  E(UB3LYP) =  -2359.47940588     A.U. after   21 cycles
 SCF Done:  E(UB3LYP) =  -2359.48763606     A.U. after   23 cycles
 SCF Done:  E(UB3LYP) =  -2359.49366916     A.U. after   21 cycles
 SCF Done:  E(UB3LYP) =  -2359.49894192     A.U. after   23 cycles
 SCF Done:  E(UB3LYP) =  -2359.50167186     A.U. after   21 cycles
 SCF Done:  E(UB3LYP) =  -2359.50240933     A.U. after   21 cycles
 SCF Done:  E(UB3LYP) =  -2359.50291032     A.U. after   17 cycles
 SCF Done:  E(UB3LYP) =  -2359.50303071     A.U. after   18 cycles
 SCF Done:  E(UB3LYP) =  -2359.50314751     A.U. after   16 cycles
 SCF Done:  E(UB3LYP) =  -2359.50317193     A.U. after   15 cycles
 SCF Done:  E(UB3LYP) =  -2359.50328285     A.U. after   13 cycles
 SCF Done:  E(UB3LYP) =  -2359.50328322     A.U. after   13 cycles
 SCF Done:  E(UB3LYP) =  -2359.50328329     A.U. after   10 cycles
 SCF Done:  E(UB3LYP) =  -2359.50328355     A.U. after    9 cycles
 SCF Done:  E(UB3LYP) =  -2359.50328368     A.U. after    8 cycles
 SCF Done:  E(UB3LYP) =  -2359.50328381     A.U. after    8 cycles
 SCF Done:  E(UB3LYP) =  -2359.50328405     A.U. after   11 cycles
 SCF Done:  E(UB3LYP) =  -2359.50328418     A.U. after    9 cycles
 SCF Done:  E(UB3LYP) =  -2359.50328417     A.U. after   10 cycles
 SCF Done:  E(UB3LYP) =  -2359.50328420     A.U. after    8 cycles
 Optimization completed.
    -- Stationary point found.

                         Standard orientation:
 ---------------------------------------------------------------------
 Center     Atomic      Atomic             Coordinates (Angstroms)
 Number     Number       Type             X           Y           Z
 ---------------------------------------------------------------------
      1          6           0        3.490932   -2.690339    0.372863
      2          6           0        2.761799   -1.466616    0.065595
      3          6           0        3.418701   -0.215262    0.125743
      4          6           0        4.781750   -0.126719    0.488344
      5          6           0        5.535600   -1.334861    0.808352
      6          6           0        1.393461   -1.522553   -0.225122
      7          6           0        2.681380    0.970147   -0.199366
      8          6           0        1.310595    0.881080   -0.573479
      9          6           0        0.642723   -0.384674   -0.519829
     10          6           0        0.682386    2.069960   -1.144385
     11          6           0        2.661487    3.444878   -0.505833
     12          6           0        3.358032    2.215234   -0.153451
     13          6           0        4.714819    2.275850    0.223188
     14          6           0        5.416304    1.129999    0.538601
     15          1           0        6.459899    1.178154    0.820942
     16          1           0        5.196797    3.244562    0.253130
     17          1           0        0.899082   -2.482584   -0.159372
     18          7           0        1.353501    3.296718   -0.976075
     19          7           0        4.840666   -2.553198    0.723226
     20          8           0        2.984207   -3.818692    0.339669
     21          8           0        6.727480   -1.317793    1.137803
     22          8           0        3.180165    4.566657   -0.429458
     23          8           0       -0.377994    2.065877   -1.777428
     24          6           0        0.648958    4.493051   -1.451588
     25          1           0        0.660624    4.539903   -2.543031
     26          1           0       -0.386089    4.458440   -1.117599
     27          1           0        1.152645    5.364598   -1.046489
     28          6           0        5.561066   -3.794811    1.029483
     29          1           0        5.108540   -4.287251    1.891282
     30          1           0        5.510270   -4.472564    0.177142
     31          1           0        6.593009   -3.540387    1.246193
     32          6           0       -0.814087   -0.572583   -0.609659
     33          6           0       -1.472546   -1.621804   -1.208730
     34         16           0       -1.925992    0.387985    0.337796
     35          6           0       -2.867115   -1.635675   -0.946441
     36          1           0       -0.968081   -2.344769   -1.833396
     37          6           0       -3.302523   -0.616031   -0.110115
     38          8           0       -3.767212   -2.533343   -1.437540
     39          6           0       -4.643486   -0.349880    0.349113
     40          6           0       -3.280233   -3.574129   -2.290358
     41          6           0       -5.077280    0.659270    1.200079
     42         16           0       -6.025593   -1.335682   -0.128212
     43          1           0       -4.150761   -4.167551   -2.562570
     44          1           0       -2.823813   -3.159148   -3.193267
     45          1           0       -2.557432   -4.204942   -1.765524
     46          6           0       -6.478545    0.644928    1.460441
     47          8           0       -4.177284    1.548241    1.704725
     48          6           0       -7.114296   -0.374735    0.811066
     49          1           0       -6.988741    1.353004    2.097108
     50          6           0       -4.664522    2.576746    2.572403
     51          1           0       -8.164836   -0.621319    0.829484
     52          1           0       -5.120672    2.148840    3.469396
     53          1           0       -3.794056    3.166218    2.853033
     54          1           0       -5.387267    3.214891    2.056475
 ---------------------------------------------------------------------

 The electronic state is 2-A.
 Alpha  occ. eigenvalues --  -88.88003 -88.87445 -19.16351 -19.16280 -19.09950
 Alpha  occ. eigenvalues --  -19.09914 -19.09674 -19.09562 -14.36739 -14.36436
 Alpha  occ. eigenvalues --  -10.28394 -10.28201 -10.28101 -10.28067 -10.24078
 Alpha  occ. eigenvalues --  -10.23904 -10.22503 -10.22464 -10.21332 -10.21205
 Alpha  occ. eigenvalues --  -10.21186 -10.20532 -10.20427 -10.20253 -10.20175
 Alpha  occ. eigenvalues --  -10.19745 -10.19647 -10.19337 -10.18952 -10.18907
 Alpha  occ. eigenvalues --  -10.18833 -10.18523 -10.18313 -10.18201 -10.18131
 Alpha  occ. eigenvalues --  -10.17930  -7.96566  -7.96015  -5.92874  -5.92489
 Alpha  occ. eigenvalues --   -5.92339  -5.92136  -5.91953  -5.91553  -1.07688
 Alpha  occ. eigenvalues --   -1.07563  -1.05872  -1.05701  -1.03821  -1.03614
 Alpha  occ. eigenvalues --   -0.93942  -0.93659  -0.89959  -0.89211  -0.87819
 Alpha  occ. eigenvalues --   -0.84166  -0.81853  -0.78858  -0.76356  -0.75933
 Alpha  occ. eigenvalues --   -0.75338  -0.74390  -0.73433  -0.72280  -0.70781
 Alpha  occ. eigenvalues --   -0.70053  -0.69498  -0.67560  -0.65092  -0.64062
 Alpha  occ. eigenvalues --   -0.63183  -0.62623  -0.59793  -0.58614  -0.56665
 Alpha  occ. eigenvalues --   -0.55746  -0.55361  -0.55003  -0.53992  -0.52925
 Alpha  occ. eigenvalues --   -0.51731  -0.49433  -0.48921  -0.48283  -0.47901
 Alpha  occ. eigenvalues --   -0.47791  -0.47685  -0.47411  -0.47318  -0.46992
 Alpha  occ. eigenvalues --   -0.46566  -0.45216  -0.45130  -0.44662  -0.44551
 Alpha  occ. eigenvalues --   -0.43788  -0.43196  -0.43008  -0.42499  -0.42064
 Alpha  occ. eigenvalues --   -0.41378  -0.41040  -0.40851  -0.40492  -0.40345
 Alpha  occ. eigenvalues --   -0.40122  -0.39882  -0.39588  -0.39186  -0.38605
 Alpha  occ. eigenvalues --   -0.38064  -0.37581  -0.37129  -0.36855  -0.35608
 Alpha  occ. eigenvalues --   -0.34909  -0.34488  -0.33566  -0.33235  -0.33030
 Alpha  occ. eigenvalues --   -0.32403  -0.30008  -0.29304  -0.28915  -0.28145
 Alpha  occ. eigenvalues --   -0.27944  -0.27336  -0.26899  -0.26362  -0.26275
 Alpha  occ. eigenvalues --   -0.24609  -0.24284  -0.23885  -0.18979  -0.15457
 Alpha virt. eigenvalues --   -0.06265  -0.05235  -0.03304  -0.02676  -0.00307
 Alpha virt. eigenvalues --    0.00079   0.00380   0.00679   0.00814   0.01407
 Alpha virt. eigenvalues --    0.01712   0.02315   0.02378   0.02537   0.02566

  Beta  occ. eigenvalues --  -88.88003 -88.87440 -19.16340 -19.16286 -19.09760
  Beta  occ. eigenvalues --  -19.09717 -19.09494 -19.09366 -14.36793 -14.36489
  Beta  occ. eigenvalues --  -10.28333 -10.28142 -10.28045 -10.28011 -10.24056
  Beta  occ. eigenvalues --  -10.23923 -10.22503 -10.22464 -10.21345 -10.21221
  Beta  occ. eigenvalues --  -10.21159 -10.20479 -10.20422 -10.20232 -10.20231
  Beta  occ. eigenvalues --  -10.19745 -10.19646 -10.19173 -10.18802 -10.18740
  Beta  occ. eigenvalues --  -10.18678 -10.18459 -10.18321 -10.18120 -10.18048
  Beta  occ. eigenvalues --  -10.17886  -7.96565  -7.96010  -5.92873  -5.92489
  Beta  occ. eigenvalues --   -5.92332  -5.92134  -5.91947  -5.91544  -1.07670
  Beta  occ. eigenvalues --   -1.07570  -1.05625  -1.05462  -1.03486  -1.03289
  Beta  occ. eigenvalues --   -0.93825  -0.93550  -0.89856  -0.89130  -0.87775
  Beta  occ. eigenvalues --   -0.83852  -0.81555  -0.78719  -0.76253  -0.75607
  Beta  occ. eigenvalues --   -0.75176  -0.74351  -0.73364  -0.72212  -0.70738
  Beta  occ. eigenvalues --   -0.69765  -0.69359  -0.67451  -0.64939  -0.63871
  Beta  occ. eigenvalues --   -0.63073  -0.62463  -0.59735  -0.58554  -0.56588
  Beta  occ. eigenvalues --   -0.55615  -0.55343  -0.54887  -0.53977  -0.52793
  Beta  occ. eigenvalues --   -0.51614  -0.49261  -0.48862  -0.48009  -0.47756
  Beta  occ. eigenvalues --   -0.47687  -0.47600  -0.47402  -0.47237  -0.46874
  Beta  occ. eigenvalues --   -0.46519  -0.45152  -0.45060  -0.44522  -0.44487
  Beta  occ. eigenvalues --   -0.43682  -0.43030  -0.42810  -0.42362  -0.41825
  Beta  occ. eigenvalues --   -0.41326  -0.40981  -0.40783  -0.40149  -0.39934
  Beta  occ. eigenvalues --   -0.39853  -0.39432  -0.39127  -0.38797  -0.38467
  Beta  occ. eigenvalues --   -0.37954  -0.37382  -0.36906  -0.36763  -0.35594
  Beta  occ. eigenvalues --   -0.34803  -0.34205  -0.33462  -0.33196  -0.33018
  Beta  occ. eigenvalues --   -0.31850  -0.29193  -0.28938  -0.28619  -0.27857
  Beta  occ. eigenvalues --   -0.27476  -0.27043  -0.26694  -0.26130  -0.25776
  Beta  occ. eigenvalues --   -0.24449  -0.23947  -0.22726  -0.18714
  Beta virt. eigenvalues --   -0.11098  -0.05639  -0.04401  -0.02545  -0.02257
  Beta virt. eigenvalues --   -0.00291   0.00219   0.00396   0.00690   0.00853
  Beta virt. eigenvalues --    0.01417   0.01736   0.02352   0.02571   0.02895

 Mulliken charges and spin densities:
               1          2
     1  C    0.391246   0.027260
     2  C   -0.117491   0.117327
     3  C    0.123876  -0.038703
     4  C    0.204671   0.103520
     5  C    0.256271   0.025608
     6  C   -0.232028   0.049875
     7  C    0.160102  -0.032404
     8  C    0.119225   0.122684
     9  C    0.280402   0.072731
    10  C   -0.476416   0.023611
    11  C    0.328903   0.026155
    12  C    0.044719   0.103459
    13  C   -0.497004   0.059670
    14  C   -0.573398   0.062894
    15  H    0.144176  -0.004398
    16  H    0.144444  -0.004155
    17  H    0.145381  -0.002761
    18  N   -0.024105  -0.022034
    19  N   -0.135939  -0.023004
    20  O   -0.430770   0.073546
    21  O   -0.417836   0.070449
    22  O   -0.429374   0.067268
    23  O   -0.363131   0.073988
    24  C   -0.192654   0.001402
    25  H    0.177723  -0.001176
    26  H    0.173794  -0.000594
    27  H    0.174727  -0.000405
    28  C   -0.205095   0.001289
    29  H    0.173590  -0.001012
    30  H    0.170642  -0.000925
    31  H    0.174309  -0.000334
    32  C    0.151976  -0.014905
    33  C   -0.620499   0.032641
    34  S   -0.645929   0.010377
    35  C   -0.088519  -0.012995
    36  H    0.156398  -0.001497
    37  C    0.580257   0.021353
    38  O   -0.169216  -0.000892
    39  C    0.829535  -0.009699
    40  C   -0.235762   0.000140
    41  C    0.011337   0.014925
    42  S   -0.234223  -0.000356
    43  H    0.174564   0.000001
    44  H    0.161074  -0.000143
    45  H    0.163037  -0.000126
    46  C   -0.616017  -0.005995
    47  O   -0.166563   0.001958
    48  C   -0.329008   0.014796
    49  H    0.159179   0.000272
    50  C   -0.251234  -0.000171
    51  H    0.186633  -0.000886
    52  H    0.158287   0.000225
    53  H    0.172861  -0.000008
    54  H    0.158872   0.000157
 Sum of Mulliken charges =  -1.00000   1.00000

 Dipole moment (field-independent basis, Debye):
    X=            -14.6461    Y=             -1.9006    Z=              1.2412  Tot=             14.8209
 Quadrupole moment (field-independent basis, Debye-Ang):
   XX=           -292.0161   YY=           -255.7518   ZZ=           -222.2917
   XY=            -11.9724   XZ=            -20.1947   YZ=             21.5813

 Normal termination of Gaussian 16 at Thu Oct 28 10:04:56 2021.
