 Gaussian 16, Revision C.01,
 Gaussian 16:  ES64L-G16RevC.01  3-Jul-2019

 ---------------------------------------------------------------
 # opt=modredundant b3lyp/6-311+g(d,p) scrf=(pcm, solvent=water)
 ---------------------------------------------------------------

 -----------
 NDI_175.pdb
 -----------
 Symbolic Z-matrix:
 Charge = -1 Multiplicity = 2

 SCF Done:  E(UB3LYP) =  -2359.44869002     A.U. after   21 cycles
 SCF Done:  E(UB3LYP) =  -2359.48141574     A.U. after   22 cycles
 SCF Done:  E(UB3LYP) =  -2359.49150110     A.U. after   20 cycles
 SCF Done:  E(UB3LYP) =  -2359.49480890     A.U. after   18 cycles
 SCF Done:  E(UB3LYP) =  -2359.49578974     A.U. after   20 cycles
 SCF Done:  E(UB3LYP) =  -2359.49630848     A.U. after   21 cycles
 SCF Done:  E(UB3LYP) =  -2359.49725642     A.U. after   16 cycles
 SCF Done:  E(UB3LYP) =  -2359.49808117     A.U. after   17 cycles
 SCF Done:  E(UB3LYP) =  -2359.49824116     A.U. after   20 cycles
 SCF Done:  E(UB3LYP) =  -2359.49867615     A.U. after   19 cycles
 SCF Done:  E(UB3LYP) =  -2359.49886357     A.U. after   13 cycles
 SCF Done:  E(UB3LYP) =  -2359.49886864     A.U. after   13 cycles
 SCF Done:  E(UB3LYP) =  -2359.49887131     A.U. after   13 cycles
 SCF Done:  E(UB3LYP) =  -2359.49887191     A.U. after    9 cycles
 SCF Done:  E(UB3LYP) =  -2359.49887248     A.U. after   10 cycles
 SCF Done:  E(UB3LYP) =  -2359.49887279     A.U. after    8 cycles
 SCF Done:  E(UB3LYP) =  -2359.49887312     A.U. after    9 cycles
 SCF Done:  E(UB3LYP) =  -2359.49887338     A.U. after   10 cycles
 SCF Done:  E(UB3LYP) =  -2359.49887349     A.U. after   11 cycles
 SCF Done:  E(UB3LYP) =  -2359.49887349     A.U. after    8 cycles
 Optimization completed.
    -- Stationary point found.

                         Standard orientation:
 ---------------------------------------------------------------------
 Center     Atomic      Atomic             Coordinates (Angstroms)
 Number     Number       Type             X           Y           Z
 ---------------------------------------------------------------------
      1          6           0       -3.608089   -2.631494   -0.085217
      2          6           0       -2.828239   -1.414985    0.112903
      3          6           0       -3.423295   -0.148909   -0.096307
      4          6           0       -4.768534   -0.036815   -0.507436
      5          6           0       -5.572645   -1.237260   -0.719697
      6          6           0       -1.471953   -1.505247    0.427826
      7          6           0       -2.631568    1.022873    0.128978
      8          6           0       -1.275590    0.908109    0.552525
      9          6           0       -0.650952   -0.388365    0.626024
     10          6           0       -0.640313    2.115881    1.065056
     11          6           0       -2.507006    3.513313    0.193110
     12          6           0       -3.247459    2.286729   -0.063381
     13          6           0       -4.587884    2.371626   -0.491593
     14          6           0       -5.338770    1.235318   -0.711203
     15          1           0       -6.370062    1.302769   -1.032106
     16          1           0       -5.017997    3.354410   -0.636044
     17          1           0       -1.046978   -2.498115    0.448340
     18          7           0       -1.234314    3.352000    0.743891
     19          7           0       -4.941860   -2.470461   -0.482300
     20          8           0       -3.156658   -3.771454    0.077719
     21          8           0       -6.752949   -1.200590   -1.085286
     22          8           0       -2.962565    4.645140   -0.021226
     23          8           0        0.367645    2.122581    1.781600
     24          6           0       -0.501479    4.556245    1.151843
     25          1           0       -0.622792    4.740295    2.222176
     26          1           0        0.556829    4.420814    0.941043
     27          1           0       -0.898973    5.398677    0.594835
     28          6           0       -5.716190   -3.702805   -0.672715
     29          1           0       -5.293957   -4.289687   -1.489941
     30          1           0       -5.684561   -4.302232    0.236855
     31          1           0       -6.738481   -3.425445   -0.906141
     32          6           0        0.796198   -0.653585    0.670458
     33          6           0        1.386491   -1.897514    0.839517
     34         16           0        1.995664    0.484265    0.087049
     35          6           0        2.762583   -1.931007    0.532141
     36          1           0        0.846120   -2.762924    1.191384
     37          6           0        3.274768   -0.721511    0.073594
     38          8           0        3.588355   -3.008841    0.650564
     39          6           0        4.630345   -0.416172   -0.303632
     40          6           0        3.026456   -4.236912    1.122772
     41          6           0        5.140876    0.783143   -0.789409
     42         16           0        5.934885   -1.600074   -0.205372
     43          1           0        3.847628   -4.950481    1.146230
     44          1           0        2.615907   -4.118500    2.129469
     45          1           0        2.247933   -4.597903    0.444840
     46          6           0        6.536988    0.754003   -1.072004
     47          8           0        4.312308    1.849493   -0.955443
     48          6           0        7.092875   -0.465063   -0.805189
     49          1           0        7.100147    1.592392   -1.455224
     50          6           0        4.875570    3.065727   -1.458301
     51          1           0        8.121583   -0.766883   -0.929803
     52          1           0        5.299704    2.917797   -2.455212
     53          1           0        4.051333    3.773683   -1.514875
     54          1           0        5.642837    3.450944   -0.781186
 ---------------------------------------------------------------------

 The electronic state is 2-A.
 Alpha  occ. eigenvalues --  -88.88061 -88.87447 -19.16453 -19.16285 -19.10028
 Alpha  occ. eigenvalues --  -19.09980 -19.09578 -19.09490 -14.36776 -14.36380
 Alpha  occ. eigenvalues --  -10.28463 -10.28270 -10.27994 -10.27948 -10.24237
 Alpha  occ. eigenvalues --  -10.23872 -10.22536 -10.22476 -10.21406 -10.21403
 Alpha  occ. eigenvalues --  -10.21320 -10.20847 -10.20387 -10.20374 -10.20031
 Alpha  occ. eigenvalues --  -10.19767 -10.19645 -10.19189 -10.18950 -10.18881
 Alpha  occ. eigenvalues --  -10.18743 -10.18565 -10.18370 -10.18142 -10.18054
 Alpha  occ. eigenvalues --  -10.18043  -7.96623  -7.96001  -5.92931  -5.92547
 Alpha  occ. eigenvalues --   -5.92323  -5.92194  -5.91927  -5.91545  -1.07805
 Alpha  occ. eigenvalues --   -1.07587  -1.05945  -1.05639  -1.03904  -1.03527
 Alpha  occ. eigenvalues --   -0.93989  -0.93622  -0.89948  -0.89232  -0.87847
 Alpha  occ. eigenvalues --   -0.84133  -0.81801  -0.78913  -0.76387  -0.75944
 Alpha  occ. eigenvalues --   -0.75364  -0.74459  -0.73430  -0.72317  -0.70783
 Alpha  occ. eigenvalues --   -0.70021  -0.69576  -0.67590  -0.65084  -0.64061
 Alpha  occ. eigenvalues --   -0.63219  -0.62606  -0.59795  -0.58694  -0.56659
 Alpha  occ. eigenvalues --   -0.55829  -0.55419  -0.55019  -0.54092  -0.52889
 Alpha  occ. eigenvalues --   -0.51838  -0.49402  -0.48797  -0.48323  -0.47914
 Alpha  occ. eigenvalues --   -0.47834  -0.47627  -0.47449  -0.47339  -0.47008
 Alpha  occ. eigenvalues --   -0.46559  -0.45414  -0.45168  -0.44692  -0.44479
 Alpha  occ. eigenvalues --   -0.43656  -0.43148  -0.43011  -0.42454  -0.41994
 Alpha  occ. eigenvalues --   -0.41483  -0.41195  -0.40925  -0.40534  -0.40295
 Alpha  occ. eigenvalues --   -0.39999  -0.39879  -0.39639  -0.39223  -0.38822
 Alpha  occ. eigenvalues --   -0.38065  -0.37714  -0.37002  -0.36650  -0.35567
 Alpha  occ. eigenvalues --   -0.34991  -0.34757  -0.33648  -0.33343  -0.32814
 Alpha  occ. eigenvalues --   -0.32316  -0.29969  -0.29407  -0.29083  -0.28216
 Alpha  occ. eigenvalues --   -0.27950  -0.27232  -0.26978  -0.26413  -0.26171
 Alpha  occ. eigenvalues --   -0.24637  -0.24301  -0.23687  -0.19077  -0.15305
 Alpha virt. eigenvalues --   -0.06897  -0.05281  -0.03182  -0.02621  -0.00333
 Alpha virt. eigenvalues --    0.00365   0.00572   0.00601   0.00809   0.01508
 Alpha virt. eigenvalues --    0.01849   0.02318   0.02490   0.02499   0.02769

  Beta  occ. eigenvalues --  -88.88060 -88.87447 -19.16431 -19.16297 -19.09848
  Beta  occ. eigenvalues --  -19.09792 -19.09403 -19.09300 -14.36827 -14.36432
  Beta  occ. eigenvalues --  -10.28405 -10.28213 -10.27934 -10.27893 -10.24190
  Beta  occ. eigenvalues --  -10.23914 -10.22537 -10.22475 -10.21463 -10.21432
  Beta  occ. eigenvalues --  -10.21223 -10.20716 -10.20433 -10.20330 -10.20088
  Beta  occ. eigenvalues --  -10.19767 -10.19644 -10.19045 -10.18807 -10.18722
  Beta  occ. eigenvalues --  -10.18596 -10.18513 -10.18387 -10.18067 -10.17967
  Beta  occ. eigenvalues --  -10.17964  -7.96622  -7.96000  -5.92931  -5.92547
  Beta  occ. eigenvalues --   -5.92323  -5.92190  -5.91926  -5.91542  -1.07763
  Beta  occ. eigenvalues --   -1.07609  -1.05709  -1.05407  -1.03585  -1.03213
  Beta  occ. eigenvalues --   -0.93878  -0.93517  -0.89845  -0.89137  -0.87790
  Beta  occ. eigenvalues --   -0.83826  -0.81520  -0.78761  -0.76274  -0.75658
  Beta  occ. eigenvalues --   -0.75188  -0.74408  -0.73364  -0.72226  -0.70741
  Beta  occ. eigenvalues --   -0.69770  -0.69419  -0.67470  -0.64931  -0.63882
  Beta  occ. eigenvalues --   -0.63095  -0.62468  -0.59718  -0.58631  -0.56582
  Beta  occ. eigenvalues --   -0.55714  -0.55382  -0.54907  -0.54068  -0.52763
  Beta  occ. eigenvalues --   -0.51730  -0.49244  -0.48726  -0.48051  -0.47792
  Beta  occ. eigenvalues --   -0.47692  -0.47556  -0.47437  -0.47258  -0.46895
  Beta  occ. eigenvalues --   -0.46504  -0.45348  -0.45103  -0.44572  -0.44389
  Beta  occ. eigenvalues --   -0.43548  -0.42980  -0.42831  -0.42292  -0.41804
  Beta  occ. eigenvalues --   -0.41418  -0.41088  -0.40838  -0.40037  -0.39926
  Beta  occ. eigenvalues --   -0.39878  -0.39491  -0.39204  -0.38879  -0.38626
  Beta  occ. eigenvalues --   -0.37946  -0.37513  -0.36732  -0.36624  -0.35541
  Beta  occ. eigenvalues --   -0.34788  -0.34571  -0.33515  -0.33306  -0.32774
  Beta  occ. eigenvalues --   -0.31832  -0.29277  -0.28948  -0.28675  -0.27994
  Beta  occ. eigenvalues --   -0.27480  -0.26945  -0.26783  -0.26212  -0.25730
  Beta  occ. eigenvalues --   -0.24330  -0.23898  -0.22692  -0.18636
  Beta virt. eigenvalues --   -0.11121  -0.06252  -0.04344  -0.02506  -0.02236
  Beta virt. eigenvalues --   -0.00318   0.00400   0.00587   0.00750   0.00913
  Beta virt. eigenvalues --    0.01515   0.01860   0.02476   0.02512   0.02969

 Mulliken charges and spin densities:
               1          2
     1  C    0.361216   0.026340
     2  C   -0.114494   0.113868
     3  C    0.136620  -0.037969
     4  C    0.212855   0.098623
     5  C    0.222479   0.025486
     6  C    0.129679   0.036419
     7  C    0.074808  -0.027624
     8  C    0.363102   0.106986
     9  C    0.272481   0.086795
    10  C   -0.697859   0.021215
    11  C    0.330580   0.026985
    12  C    0.056478   0.094511
    13  C   -0.495228   0.055585
    14  C   -0.570829   0.061555
    15  H    0.143697  -0.004110
    16  H    0.144472  -0.003923
    17  H    0.145330  -0.001542
    18  N    0.029298  -0.021681
    19  N   -0.138810  -0.021972
    20  O   -0.428225   0.069971
    21  O   -0.413705   0.066963
    22  O   -0.433111   0.065108
    23  O   -0.360871   0.071636
    24  C   -0.198164   0.001567
    25  H    0.177309  -0.001191
    26  H    0.174823  -0.000600
    27  H    0.173765  -0.000433
    28  C   -0.204879   0.001244
    29  H    0.174401  -0.000986
    30  H    0.169962  -0.000844
    31  H    0.173208  -0.000318
    32  C   -0.020651  -0.028123
    33  C   -0.396680   0.065841
    34  S   -0.721902   0.005067
    35  C   -0.534112  -0.033349
    36  H    0.149571  -0.003113
    37  C    0.629627   0.057113
    38  O   -0.165053  -0.001852
    39  C    0.843884  -0.020154
    40  C   -0.240137   0.000283
    41  C    0.005266   0.029798
    42  S   -0.221912  -0.001059
    43  H    0.175652  -0.000000
    44  H    0.161296  -0.000322
    45  H    0.160424  -0.000270
    46  C   -0.538216  -0.013099
    47  O   -0.156867   0.004846
    48  C   -0.328091   0.031580
    49  H    0.159585   0.000577
    50  C   -0.251925  -0.000309
    51  H    0.187447  -0.001891
    52  H    0.158752   0.000408
    53  H    0.173382  -0.000015
    54  H    0.160271   0.000379
 Sum of Mulliken charges =  -1.00000   1.00000

 Dipole moment (field-independent basis, Debye):
    X=             15.1214    Y=             -2.5029    Z=             -1.5360  Tot=             15.4039
 Quadrupole moment (field-independent basis, Debye-Ang):
   XX=           -286.9541   YY=           -248.6977   ZZ=           -232.2531
   XY=             15.3150   XZ=            -19.5945   YZ=            -11.3369

 Normal termination of Gaussian 16 at Thu Oct 28 11:21:21 2021.
