 Gaussian 16, Revision C.01,
 Gaussian 16:  ES64L-G16RevC.01  3-Jul-2019

 ---------------------------------------------------------------
 # opt=modredundant b3lyp/6-311+g(d,p) scrf=(pcm, solvent=water)
 ---------------------------------------------------------------

 -----------
 NDI_110.pdb
 -----------
 Symbolic Z-matrix:
 Charge = -1 Multiplicity = 2

 SCF Done:  E(UB3LYP) =  -2359.49568764     A.U. after   23 cycles
 SCF Done:  E(UB3LYP) =  -2359.50240365     A.U. after   20 cycles
 SCF Done:  E(UB3LYP) =  -2359.50341223     A.U. after   18 cycles
 SCF Done:  E(UB3LYP) =  -2359.50325905     A.U. after   16 cycles
 SCF Done:  E(UB3LYP) =  -2359.50364779     A.U. after   16 cycles
 SCF Done:  E(UB3LYP) =  -2359.50367013     A.U. after   13 cycles
 SCF Done:  E(UB3LYP) =  -2359.50369039     A.U. after   14 cycles
 SCF Done:  E(UB3LYP) =  -2359.50370119     A.U. after   14 cycles
 SCF Done:  E(UB3LYP) =  -2359.50370824     A.U. after   11 cycles
 SCF Done:  E(UB3LYP) =  -2359.50371699     A.U. after   11 cycles
 SCF Done:  E(UB3LYP) =  -2359.50377917     A.U. after    8 cycles
 SCF Done:  E(UB3LYP) =  -2359.50377922     A.U. after   10 cycles
 SCF Done:  E(UB3LYP) =  -2359.50377933     A.U. after   10 cycles
 SCF Done:  E(UB3LYP) =  -2359.50377951     A.U. after   10 cycles
 SCF Done:  E(UB3LYP) =  -2359.50377964     A.U. after    9 cycles
 SCF Done:  E(UB3LYP) =  -2359.50377976     A.U. after    9 cycles
 SCF Done:  E(UB3LYP) =  -2359.50377986     A.U. after   11 cycles
 SCF Done:  E(UB3LYP) =  -2359.50377991     A.U. after    9 cycles
 SCF Done:  E(UB3LYP) =  -2359.50377996     A.U. after    9 cycles
 SCF Done:  E(UB3LYP) =  -2359.50377998     A.U. after    9 cycles
 Optimization completed.
    -- Stationary point found.

                         Standard orientation:
 ---------------------------------------------------------------------
 Center     Atomic      Atomic             Coordinates (Angstroms)
 Number     Number       Type             X           Y           Z
 ---------------------------------------------------------------------
      1          6           0        3.360718   -2.776933    0.276205
      2          6           0        2.696121   -1.498904    0.060401
      3          6           0        3.435408   -0.295690    0.111248
      4          6           0        4.825572   -0.309475    0.374874
      5          6           0        5.518000   -1.573765    0.598376
      6          6           0        1.314413   -1.457742   -0.176279
      7          6           0        2.758392    0.948279   -0.114498
      8          6           0        1.360537    0.963724   -0.386146
      9          6           0        0.632345   -0.264814   -0.386998
     10          6           0        0.728112    2.240565   -0.714705
     11          6           0        2.880998    3.433551   -0.298473
     12          6           0        3.517707    2.144714   -0.066591
     13          6           0        4.900394    2.101509    0.202611
     14          6           0        5.544490    0.900587    0.419800
     15          1           0        6.606916    0.870264    0.623802
     16          1           0        5.447183    3.035010    0.232650
     17          1           0        0.763549   -2.389267   -0.173174
     18          7           0        1.516780    3.401088   -0.603931
     19          7           0        4.738295   -2.740600    0.528526
     20          8           0        2.777135   -3.867931    0.246860
     21          8           0        6.729682   -1.645964    0.837265
     22          8           0        3.490211    4.510052   -0.244750
     23          8           0       -0.441889    2.366667   -1.087586
     24          6           0        0.837009    4.669663   -0.892323
     25          1           0        0.549452    4.715405   -1.944235
     26          1           0       -0.063224    4.750499   -0.284348
     27          1           0        1.523297    5.477642   -0.662105
     28          6           0        5.394466   -4.036399    0.738836
     29          1           0        4.977804   -4.529062    1.618401
     30          1           0        5.232456   -4.678277   -0.127277
     31          1           0        6.454867   -3.857391    0.880471
     32          6           0       -0.833939   -0.372533   -0.573852
     33          6           0       -1.504204   -0.880057   -1.652979
     34         16           0       -1.934752    0.027711    0.718803
     35          6           0       -2.916018   -0.919619   -1.463713
     36          1           0       -1.001947   -1.194331   -2.556543
     37          6           0       -3.341720   -0.462022   -0.226541
     38          8           0       -3.832370   -1.360055   -2.371981
     39          6           0       -4.690592   -0.383862    0.283321
     40          6           0       -3.353516   -1.821371   -3.639087
     41          6           0       -5.115642    0.063534    1.526839
     42         16           0       -6.094042   -0.874727   -0.663853
     43          1           0       -4.236856   -2.118140   -4.201039
     44          1           0       -2.830516   -1.024125   -4.174456
     45          1           0       -2.691136   -2.682990   -3.518009
     46          6           0       -6.528082    0.016747    1.716294
     47          8           0       -4.198180    0.494036    2.438600
     48          6           0       -7.181047   -0.466867    0.618656
     49          1           0       -7.033376    0.325366    2.619924
     50          6           0       -4.679250    0.968448    3.699717
     51          1           0       -8.242449   -0.609946    0.485732
     52          1           0       -5.209522    0.178918    4.239529
     53          1           0       -3.796456    1.263878    4.263171
     54          1           0       -5.335612    1.833352    3.568943
 ---------------------------------------------------------------------

 The electronic state is 2-A.
 Alpha  occ. eigenvalues --  -88.87921 -88.87416 -19.16229 -19.16221 -19.09904
 Alpha  occ. eigenvalues --  -19.09888 -19.09715 -19.09599 -14.36728 -14.36512
 Alpha  occ. eigenvalues --  -10.28353 -10.28173 -10.28153 -10.28125 -10.23907
 Alpha  occ. eigenvalues --  -10.23815 -10.22453 -10.22431 -10.21234 -10.21065
 Alpha  occ. eigenvalues --  -10.20932 -10.20496 -10.20444 -10.20282 -10.20125
 Alpha  occ. eigenvalues --  -10.19737 -10.19617 -10.19611 -10.18950 -10.18914
 Alpha  occ. eigenvalues --  -10.18908 -10.18465 -10.18244 -10.18242 -10.18180
 Alpha  occ. eigenvalues --  -10.17736  -7.96484  -7.95983  -5.92791  -5.92408
 Alpha  occ. eigenvalues --   -5.92307  -5.92054  -5.91921  -5.91523  -1.07557
 Alpha  occ. eigenvalues --   -1.07470  -1.05840  -1.05762  -1.03778  -1.03680
 Alpha  occ. eigenvalues --   -0.93933  -0.93690  -0.89910  -0.89161  -0.87725
 Alpha  occ. eigenvalues --   -0.84178  -0.81896  -0.78732  -0.76315  -0.75904
 Alpha  occ. eigenvalues --   -0.75302  -0.74283  -0.73452  -0.72169  -0.70770
 Alpha  occ. eigenvalues --   -0.70136  -0.69376  -0.67497  -0.65124  -0.64082
 Alpha  occ. eigenvalues --   -0.63143  -0.62648  -0.59747  -0.58529  -0.56671
 Alpha  occ. eigenvalues --   -0.55691  -0.55267  -0.54977  -0.53887  -0.52994
 Alpha  occ. eigenvalues --   -0.51623  -0.49489  -0.48972  -0.48266  -0.47912
 Alpha  occ. eigenvalues --   -0.47778  -0.47663  -0.47346  -0.47260  -0.46977
 Alpha  occ. eigenvalues --   -0.46573  -0.45114  -0.45021  -0.44728  -0.44514
 Alpha  occ. eigenvalues --   -0.43933  -0.43242  -0.42929  -0.42517  -0.42130
 Alpha  occ. eigenvalues --   -0.41273  -0.40890  -0.40790  -0.40421  -0.40397
 Alpha  occ. eigenvalues --   -0.40233  -0.39840  -0.39677  -0.39150  -0.38373
 Alpha  occ. eigenvalues --   -0.37997  -0.37447  -0.37338  -0.36888  -0.35541
 Alpha  occ. eigenvalues --   -0.34837  -0.33957  -0.33527  -0.33118  -0.32992
 Alpha  occ. eigenvalues --   -0.32594  -0.30071  -0.29213  -0.28703  -0.28184
 Alpha  occ. eigenvalues --   -0.27796  -0.27438  -0.26818  -0.26563  -0.26159
 Alpha  occ. eigenvalues --   -0.24507  -0.24301  -0.24047  -0.18810  -0.15614
 Alpha virt. eigenvalues --   -0.05850  -0.04835  -0.03585  -0.02889  -0.00315
 Alpha virt. eigenvalues --   -0.00107   0.00335   0.00781   0.00903   0.01229
 Alpha virt. eigenvalues --    0.01477   0.02316   0.02373   0.02461   0.02569

  Beta  occ. eigenvalues --  -88.87921 -88.87410 -19.16227 -19.16221 -19.09708
  Beta  occ. eigenvalues --  -19.09685 -19.09527 -19.09383 -14.36784 -14.36567
  Beta  occ. eigenvalues --  -10.28291 -10.28113 -10.28100 -10.28067 -10.23905
  Beta  occ. eigenvalues --  -10.23816 -10.22453 -10.22431 -10.21235 -10.21076
  Beta  occ. eigenvalues --  -10.20926 -10.20552 -10.20342 -10.20336 -10.20123
  Beta  occ. eigenvalues --  -10.19737 -10.19616 -10.19435 -10.18794 -10.18746
  Beta  occ. eigenvalues --  -10.18744 -10.18396 -10.18243 -10.18157 -10.18096
  Beta  occ. eigenvalues --  -10.17724  -7.96483  -7.95978  -5.92791  -5.92407
  Beta  occ. eigenvalues --   -5.92298  -5.92053  -5.91914  -5.91517  -1.07554
  Beta  occ. eigenvalues --   -1.07469  -1.05586  -1.05507  -1.03433  -1.03334
  Beta  occ. eigenvalues --   -0.93811  -0.93574  -0.89796  -0.89100  -0.87689
  Beta  occ. eigenvalues --   -0.83855  -0.81586  -0.78600  -0.76212  -0.75537
  Beta  occ. eigenvalues --   -0.75161  -0.74260  -0.73380  -0.72124  -0.70728
  Beta  occ. eigenvalues --   -0.69806  -0.69257  -0.67399  -0.64970  -0.63880
  Beta  occ. eigenvalues --   -0.63047  -0.62468  -0.59706  -0.58474  -0.56589
  Beta  occ. eigenvalues --   -0.55554  -0.55261  -0.54863  -0.53881  -0.52851
  Beta  occ. eigenvalues --   -0.51499  -0.49314  -0.48912  -0.47985  -0.47713
  Beta  occ. eigenvalues --   -0.47679  -0.47619  -0.47341  -0.47186  -0.46858
  Beta  occ. eigenvalues --   -0.46534  -0.45050  -0.44912  -0.44666  -0.44414
  Beta  occ. eigenvalues --   -0.43823  -0.43072  -0.42740  -0.42374  -0.41867
  Beta  occ. eigenvalues --   -0.41227  -0.40874  -0.40716  -0.40143  -0.39953
  Beta  occ. eigenvalues --   -0.39818  -0.39469  -0.39099  -0.38788  -0.38256
  Beta  occ. eigenvalues --   -0.37936  -0.37212  -0.37125  -0.36787  -0.35533
  Beta  occ. eigenvalues --   -0.34752  -0.33735  -0.33393  -0.33081  -0.32944
  Beta  occ. eigenvalues --   -0.31994  -0.29081  -0.28984  -0.28536  -0.27675
  Beta  occ. eigenvalues --   -0.27510  -0.27114  -0.26617  -0.25983  -0.25894
  Beta  occ. eigenvalues --   -0.24457  -0.24012  -0.22767  -0.18761
  Beta virt. eigenvalues --   -0.11029  -0.04894  -0.04499  -0.02825  -0.02258
  Beta virt. eigenvalues --   -0.00298  -0.00081   0.00343   0.00791   0.00917
  Beta virt. eigenvalues --    0.01239   0.01487   0.02357   0.02551   0.02872

 Mulliken charges and spin densities:
               1          2
     1  C    0.435993   0.025857
     2  C   -0.039370   0.125460
     3  C    0.127938  -0.040721
     4  C    0.218839   0.111301
     5  C    0.275066   0.025240
     6  C   -0.701478   0.053219
     7  C    0.187970  -0.035759
     8  C   -0.068351   0.133468
     9  C    0.416401   0.071307
    10  C   -0.185050   0.023692
    11  C    0.330447   0.026646
    12  C    0.201389   0.113358
    13  C   -0.568520   0.059340
    14  C   -0.663025   0.065012
    15  H    0.144533  -0.004627
    16  H    0.145220  -0.004312
    17  H    0.139586  -0.003540
    18  N   -0.120240  -0.022559
    19  N   -0.136180  -0.023497
    20  O   -0.428174   0.075483
    21  O   -0.420108   0.072983
    22  O   -0.423266   0.070288
    23  O   -0.306029   0.080738
    24  C   -0.208542   0.001237
    25  H    0.175643  -0.001125
    26  H    0.172998  -0.000828
    27  H    0.174991  -0.000356
    28  C   -0.209952   0.001347
    29  H    0.173365  -0.001051
    30  H    0.170848  -0.000952
    31  H    0.174636  -0.000347
    32  C    0.321262  -0.034090
    33  C   -0.750826   0.027097
    34  S   -0.321030   0.013396
    35  C   -0.213276  -0.005284
    36  H    0.142090  -0.000122
    37  C    0.362023  -0.006422
    38  O   -0.157219  -0.000038
    39  C    0.868044   0.004031
    40  C   -0.255975   0.000604
    41  C    0.018878   0.002759
    42  S   -0.228401   0.000033
    43  H    0.174138  -0.000007
    44  H    0.162677   0.000020
    45  H    0.162561  -0.000005
    46  C   -0.529106   0.000222
    47  O   -0.176244  -0.000069
    48  C   -0.351329   0.001588
    49  H    0.158666   0.000028
    50  C   -0.247604   0.000001
    51  H    0.185746  -0.000091
    52  H    0.157253   0.000036
    53  H    0.171802   0.000000
    54  H    0.158290   0.000013
 Sum of Mulliken charges =  -1.00000   1.00000

 Dipole moment (field-independent basis, Debye):
    X=            -14.0790    Y=             -1.4559    Z=              0.2586  Tot=             14.1564
 Quadrupole moment (field-independent basis, Debye-Ang):
   XX=           -297.9926   YY=           -271.9858   ZZ=           -202.9698
   XY=             -5.8170   XZ=            -19.2349   YZ=             15.0132

 Normal termination of Gaussian 16 at Thu Oct 28 08:48:47 2021.
