 Gaussian 16, Revision C.01,
 Gaussian 16:  ES64L-G16RevC.01  3-Jul-2019

 ---------------------------------------------------------------
 # opt=modredundant b3lyp/6-311+g(d,p) scrf=(pcm, solvent=water)
 ---------------------------------------------------------------

 ----------
 NDI_20.pdb
 ----------
 Symbolic Z-matrix:
 Charge = -1 Multiplicity = 2

 SCF Done:  E(UB3LYP) =  -2359.48048287     A.U. after   21 cycles
 SCF Done:  E(UB3LYP) =  -2359.47921348     A.U. after   22 cycles
 SCF Done:  E(UB3LYP) =  -2359.49361940     A.U. after   17 cycles
 SCF Done:  E(UB3LYP) =  -2359.49644653     A.U. after   16 cycles
 SCF Done:  E(UB3LYP) =  -2359.49639659     A.U. after   19 cycles
 SCF Done:  E(UB3LYP) =  -2359.49743911     A.U. after   18 cycles
 SCF Done:  E(UB3LYP) =  -2359.49829857     A.U. after   22 cycles
 SCF Done:  E(UB3LYP) =  -2359.49896117     A.U. after   22 cycles
 SCF Done:  E(UB3LYP) =  -2359.50001221     A.U. after   18 cycles
 SCF Done:  E(UB3LYP) =  -2359.50081381     A.U. after   21 cycles
 SCF Done:  E(UB3LYP) =  -2359.50164666     A.U. after   13 cycles
 SCF Done:  E(UB3LYP) =  -2359.50166729     A.U. after   15 cycles
 SCF Done:  E(UB3LYP) =  -2359.50168370     A.U. after   15 cycles
 SCF Done:  E(UB3LYP) =  -2359.50168955     A.U. after   14 cycles
 SCF Done:  E(UB3LYP) =  -2359.50169178     A.U. after   13 cycles
 SCF Done:  E(UB3LYP) =  -2359.50169382     A.U. after   14 cycles
 SCF Done:  E(UB3LYP) =  -2359.50169398     A.U. after    9 cycles
 SCF Done:  E(UB3LYP) =  -2359.50169402     A.U. after   12 cycles
 SCF Done:  E(UB3LYP) =  -2359.50169404     A.U. after    7 cycles
 SCF Done:  E(UB3LYP) =  -2359.50169405     A.U. after    8 cycles
 Optimization completed.
    -- Stationary point found.

                         Standard orientation:
 ---------------------------------------------------------------------
 Center     Atomic      Atomic             Coordinates (Angstroms)
 Number     Number       Type             X           Y           Z
 ---------------------------------------------------------------------
      1          6           0       -2.667852   -3.008998    0.174194
      2          6           0       -2.319092   -1.599890    0.040618
      3          6           0       -3.329769   -0.610764    0.067558
      4          6           0       -4.686117   -0.965933    0.233235
      5          6           0       -5.065840   -2.369108    0.375368
      6          6           0       -0.977857   -1.220935   -0.033962
      7          6           0       -2.951413    0.763160   -0.087963
      8          6           0       -1.582823    1.121160   -0.269084
      9          6           0       -0.562959    0.109054   -0.158922
     10          6           0       -1.307364    2.480994   -0.726949
     11          6           0       -3.664681    3.146594   -0.265686
     12          6           0       -3.981857    1.738583   -0.076856
     13          6           0       -5.326678    1.358853    0.106724
     14          6           0       -5.678168    0.033615    0.259018
     15          1           0       -6.712204   -0.256510    0.391937
     16          1           0       -6.080875    2.135138    0.117451
     17          1           0       -0.241007   -2.006410    0.073207
     18          7           0       -2.333994    3.435796   -0.569324
     19          7           0       -4.026768   -3.313521    0.325100
     20          8           0       -1.837351   -3.925590    0.161007
     21          8           0       -6.236083   -2.736663    0.529362
     22          8           0       -4.507333    4.052251   -0.198833
     23          8           0       -0.255493    2.848081   -1.260585
     24          6           0       -1.990221    4.825027   -0.893666
     25          1           0       -0.996748    5.046115   -0.510745
     26          1           0       -1.990323    4.983839   -1.974909
     27          1           0       -2.731416    5.472567   -0.435834
     28          6           0       -4.363736   -4.736480    0.452888
     29          1           0       -3.973181   -5.286217   -0.403302
     30          1           0       -3.920190   -5.147799    1.360951
     31          1           0       -5.443983   -4.824470    0.495996
     32          6           0        0.864538    0.375176    0.039749
     33          6           0        1.501557    1.498139    0.517500
     34         16           0        2.050315   -0.857365   -0.378047
     35          6           0        2.907994    1.364553    0.591034
     36          1           0        0.973812    2.385817    0.823140
     37          6           0        3.399422    0.143911    0.140252
     38          8           0        3.778779    2.304430    1.052567
     39          6           0        4.767894   -0.299755    0.081245
     40          6           0        3.243197    3.549211    1.513492
     41          6           0        5.258011   -1.520109   -0.370532
     42         16           0        6.118513    0.705854    0.606216
     43          1           0        4.099386    4.143283    1.826554
     44          1           0        2.711422    4.067476    0.711023
     45          1           0        2.573352    3.395914    2.364047
     46          6           0        6.675272   -1.645791   -0.297027
     47          8           0        4.392052   -2.463834   -0.830687
     48          6           0        7.267750   -0.523630    0.208935
     49          1           0        7.227266   -2.522219   -0.603812
     50          6           0        4.934174   -3.709198   -1.282757
     51          1           0        8.319385   -0.344727    0.372882
     52          1           0        5.462254   -4.222438   -0.474505
     53          1           0        4.081805   -4.307331   -1.598203
     54          1           0        5.608473   -3.557819   -2.130105
 ---------------------------------------------------------------------

 The electronic state is 2-A.
 Alpha  occ. eigenvalues --  -88.88075 -88.87671 -19.16457 -19.16349 -19.10014
 Alpha  occ. eigenvalues --  -19.09964 -19.09569 -19.09402 -14.36775 -14.36338
 Alpha  occ. eigenvalues --  -10.28455 -10.28248 -10.28036 -10.27930 -10.24210
 Alpha  occ. eigenvalues --  -10.24020 -10.22542 -10.22477 -10.21458 -10.21415
 Alpha  occ. eigenvalues --  -10.21188 -10.20748 -10.20433 -10.20355 -10.20088
 Alpha  occ. eigenvalues --  -10.19770 -10.19628 -10.19298 -10.18959 -10.18893
 Alpha  occ. eigenvalues --  -10.18747 -10.18576 -10.18376 -10.18145 -10.18051
 Alpha  occ. eigenvalues --  -10.17796  -7.96636  -7.96246  -5.92945  -5.92563
 Alpha  occ. eigenvalues --   -5.92560  -5.92206  -5.92181  -5.91797  -1.07805
 Alpha  occ. eigenvalues --   -1.07660  -1.05936  -1.05609  -1.03891  -1.03496
 Alpha  occ. eigenvalues --   -0.93988  -0.93565  -0.89987  -0.89240  -0.87872
 Alpha  occ. eigenvalues --   -0.84145  -0.81813  -0.78864  -0.76622  -0.75828
 Alpha  occ. eigenvalues --   -0.75374  -0.74448  -0.73418  -0.72334  -0.70728
 Alpha  occ. eigenvalues --   -0.70368  -0.69358  -0.67538  -0.65132  -0.63995
 Alpha  occ. eigenvalues --   -0.63300  -0.62547  -0.59891  -0.58693  -0.56643
 Alpha  occ. eigenvalues --   -0.55720  -0.55417  -0.55044  -0.54061  -0.53168
 Alpha  occ. eigenvalues --   -0.51589  -0.49540  -0.48966  -0.48236  -0.47878
 Alpha  occ. eigenvalues --   -0.47826  -0.47715  -0.47474  -0.47225  -0.47059
 Alpha  occ. eigenvalues --   -0.46552  -0.45272  -0.45121  -0.44675  -0.44365
 Alpha  occ. eigenvalues --   -0.43895  -0.43100  -0.42915  -0.42296  -0.41979
 Alpha  occ. eigenvalues --   -0.41488  -0.41217  -0.41042  -0.40561  -0.40297
 Alpha  occ. eigenvalues --   -0.40177  -0.39872  -0.39400  -0.39087  -0.38857
 Alpha  occ. eigenvalues --   -0.38140  -0.37673  -0.37112  -0.36712  -0.35778
 Alpha  occ. eigenvalues --   -0.35004  -0.34732  -0.33632  -0.33410  -0.32877
 Alpha  occ. eigenvalues --   -0.32411  -0.30136  -0.29409  -0.28951  -0.28161
 Alpha  occ. eigenvalues --   -0.27989  -0.27240  -0.26943  -0.26367  -0.26140
 Alpha  occ. eigenvalues --   -0.24681  -0.24319  -0.23773  -0.19108  -0.15352
 Alpha virt. eigenvalues --   -0.06734  -0.05354  -0.03250  -0.02457  -0.00299
 Alpha virt. eigenvalues --    0.00403   0.00449   0.00602   0.00895   0.01419
 Alpha virt. eigenvalues --    0.01781   0.02223   0.02361   0.02613   0.02823

  Beta  occ. eigenvalues --  -88.88074 -88.87661 -19.16439 -19.16354 -19.09832
  Beta  occ. eigenvalues --  -19.09771 -19.09395 -19.09217 -14.36827 -14.36390
  Beta  occ. eigenvalues --  -10.28397 -10.28191 -10.27977 -10.27876 -10.24175
  Beta  occ. eigenvalues --  -10.24044 -10.22543 -10.22477 -10.21454 -10.21363
  Beta  occ. eigenvalues --  -10.21238 -10.20627 -10.20480 -10.20321 -10.20145
  Beta  occ. eigenvalues --  -10.19769 -10.19627 -10.19145 -10.18815 -10.18728
  Beta  occ. eigenvalues --  -10.18600 -10.18522 -10.18388 -10.18068 -10.17971
  Beta  occ. eigenvalues --  -10.17741  -7.96636  -7.96236  -5.92945  -5.92560
  Beta  occ. eigenvalues --   -5.92558  -5.92203  -5.92175  -5.91763  -1.07774
  Beta  occ. eigenvalues --   -1.07666  -1.05696  -1.05380  -1.03567  -1.03184
  Beta  occ. eigenvalues --   -0.93876  -0.93459  -0.89889  -0.89144  -0.87821
  Beta  occ. eigenvalues --   -0.83836  -0.81527  -0.78722  -0.76503  -0.75516
  Beta  occ. eigenvalues --   -0.75212  -0.74406  -0.73352  -0.72270  -0.70681
  Beta  occ. eigenvalues --   -0.70095  -0.69208  -0.67419  -0.64977  -0.63808
  Beta  occ. eigenvalues --   -0.63209  -0.62359  -0.59840  -0.58632  -0.56559
  Beta  occ. eigenvalues --   -0.55618  -0.55378  -0.54937  -0.54036  -0.53019
  Beta  occ. eigenvalues --   -0.51488  -0.49403  -0.48849  -0.47979  -0.47803
  Beta  occ. eigenvalues --   -0.47743  -0.47559  -0.47455  -0.47158  -0.46939
  Beta  occ. eigenvalues --   -0.46499  -0.45217  -0.45033  -0.44587  -0.44240
  Beta  occ. eigenvalues --   -0.43810  -0.42924  -0.42743  -0.42032  -0.41903
  Beta  occ. eigenvalues --   -0.41374  -0.41111  -0.40935  -0.40298  -0.39903
  Beta  occ. eigenvalues --   -0.39857  -0.39500  -0.39095  -0.38682  -0.38554
  Beta  occ. eigenvalues --   -0.38044  -0.37528  -0.36821  -0.36658  -0.35749
  Beta  occ. eigenvalues --   -0.34893  -0.34468  -0.33490  -0.33394  -0.32831
  Beta  occ. eigenvalues --   -0.31913  -0.29472  -0.28931  -0.28594  -0.27877
  Beta  occ. eigenvalues --   -0.27512  -0.26943  -0.26739  -0.26118  -0.25765
  Beta  occ. eigenvalues --   -0.24336  -0.24098  -0.22658  -0.18659
  Beta virt. eigenvalues --   -0.11146  -0.06145  -0.04423  -0.02385  -0.02220
  Beta virt. eigenvalues --   -0.00283   0.00419   0.00608   0.00616   0.00987
  Beta virt. eigenvalues --    0.01439   0.01794   0.02290   0.02658   0.02822

 Mulliken charges and spin densities:
               1          2
     1  C    0.308885   0.026525
     2  C   -0.110966   0.116077
     3  C    0.193268  -0.036550
     4  C    0.192874   0.098790
     5  C    0.247017   0.025913
     6  C    0.010970   0.040365
     7  C    0.242674  -0.027274
     8  C    0.523922   0.113508
     9  C    0.153604   0.081663
    10  C   -0.843551   0.020086
    11  C    0.266323   0.025158
    12  C    0.092080   0.096018
    13  C   -0.499332   0.057290
    14  C   -0.606074   0.061718
    15  H    0.143981  -0.004167
    16  H    0.144525  -0.004023
    17  H    0.147193  -0.001824
    18  N   -0.005122  -0.021825
    19  N   -0.131659  -0.022235
    20  O   -0.434336   0.071506
    21  O   -0.414689   0.067698
    22  O   -0.433695   0.065116
    23  O   -0.360724   0.069432
    24  C   -0.185531   0.001492
    25  H    0.171764  -0.000530
    26  H    0.176988  -0.001182
    27  H    0.172670  -0.000449
    28  C   -0.210409   0.001154
    29  H    0.170227  -0.000863
    30  H    0.174525  -0.000995
    31  H    0.173578  -0.000323
    32  C   -0.180801  -0.034659
    33  C   -0.436382   0.045116
    34  S   -0.649613   0.017423
    35  C   -0.296183  -0.013448
    36  H    0.161268  -0.002935
    37  C    0.697849   0.046403
    38  O   -0.160661  -0.000557
    39  C    0.854763  -0.014280
    40  C   -0.241179   0.000078
    41  C    0.042337   0.023292
    42  S   -0.217786  -0.000445
    43  H    0.175544  -0.000001
    44  H    0.162404  -0.000257
    45  H    0.161156  -0.000149
    46  C   -0.629710  -0.009593
    47  O   -0.163176   0.003616
    48  C   -0.338665   0.023737
    49  H    0.160015   0.000435
    50  C   -0.251161  -0.000270
    51  H    0.187755  -0.001421
    52  H    0.159368   0.000339
    53  H    0.173312  -0.000012
    54  H    0.158568   0.000320
 Sum of Mulliken charges =  -1.00000   1.00000

 Dipole moment (field-independent basis, Debye):
    X=             15.5960    Y=             -0.5930    Z=              1.3594  Tot=             15.6663
 Quadrupole moment (field-independent basis, Debye-Ang):
   XX=           -293.5901   YY=           -247.5691   ZZ=           -228.4051
   XY=             -8.9257   XZ=              2.1645   YZ=             16.6261

 Normal termination of Gaussian 16 at Thu Oct 28 09:06:30 2021.
