 Gaussian 16, Revision C.01,
 Gaussian 16:  ES64L-G16RevC.01  3-Jul-2019

 ---------------------------------------------------------------
 # opt=modredundant b3lyp/6-311+g(d,p) scrf=(pcm, solvent=water)
 ---------------------------------------------------------------

 -----------
 NDI_-80.pdb
 -----------
 Symbolic Z-matrix:
 Charge = -1 Multiplicity = 2

 SCF Done:  E(UB3LYP) =  -2359.49612660     A.U. after   21 cycles
 SCF Done:  E(UB3LYP) =  -2359.50248449     A.U. after   19 cycles
 SCF Done:  E(UB3LYP) =  -2359.50324984     A.U. after   16 cycles
 SCF Done:  E(UB3LYP) =  -2359.50316325     A.U. after   15 cycles
 SCF Done:  E(UB3LYP) =  -2359.50338874     A.U. after   13 cycles
 SCF Done:  E(UB3LYP) =  -2359.50339552     A.U. after   12 cycles
 SCF Done:  E(UB3LYP) =  -2359.50340251     A.U. after   13 cycles
 SCF Done:  E(UB3LYP) =  -2359.50340570     A.U. after   13 cycles
 SCF Done:  E(UB3LYP) =  -2359.50340882     A.U. after   11 cycles
 SCF Done:  E(UB3LYP) =  -2359.50341462     A.U. after   11 cycles
 SCF Done:  E(UB3LYP) =  -2359.50342105     A.U. after   11 cycles
 SCF Done:  E(UB3LYP) =  -2359.50342213     A.U. after   10 cycles
 SCF Done:  E(UB3LYP) =  -2359.50342292     A.U. after   10 cycles
 SCF Done:  E(UB3LYP) =  -2359.50342329     A.U. after   10 cycles
 SCF Done:  E(UB3LYP) =  -2359.50342342     A.U. after    9 cycles
 SCF Done:  E(UB3LYP) =  -2359.50342371     A.U. after    9 cycles
 SCF Done:  E(UB3LYP) =  -2359.50342395     A.U. after    9 cycles
 SCF Done:  E(UB3LYP) =  -2359.50342419     A.U. after    9 cycles
 SCF Done:  E(UB3LYP) =  -2359.50342439     A.U. after    9 cycles
 SCF Done:  E(UB3LYP) =  -2359.50342445     A.U. after    8 cycles
 Optimization completed.
    -- Stationary point found.

                         Standard orientation:
 ---------------------------------------------------------------------
 Center     Atomic      Atomic             Coordinates (Angstroms)
 Number     Number       Type             X           Y           Z
 ---------------------------------------------------------------------
      1          6           0        3.109699   -2.850880    0.450811
      2          6           0        2.559921   -1.512334    0.284481
      3          6           0        3.415258   -0.421458    0.010212
      4          6           0        4.813469   -0.607394   -0.103336
      5          6           0        5.393527   -1.935527    0.061498
      6          6           0        1.179974   -1.299092    0.416426
      7          6           0        2.847525    0.884945   -0.156924
      8          6           0        1.440004    1.072499   -0.049253
      9          6           0        0.606983   -0.041051    0.273471
     10          6           0        0.890172    2.401805   -0.314249
     11          6           0        3.195411    3.313127   -0.613403
     12          6           0        3.721088    1.967189   -0.433390
     13          6           0        5.110193    1.753072   -0.538386
     14          6           0        5.648682    0.492698   -0.377810
     15          1           0        6.715551    0.330878   -0.461111
     16          1           0        5.746853    2.602334   -0.750072
     17          1           0        0.549787   -2.144709    0.659975
     18          7           0        1.805737    3.447983   -0.534168
     19          7           0        4.498961   -2.985175    0.330922
     20          8           0        2.421138   -3.851478    0.688392
     21          8           0        6.607490   -2.156852   -0.026813
     22          8           0        3.913082    4.297850   -0.833079
     23          8           0       -0.314653    2.664684   -0.365452
     24          6           0        1.221153    4.777287   -0.747518
     25          1           0        0.651345    4.796001   -1.678146
     26          1           0        0.548020    5.018742    0.074310
     27          1           0        2.032088    5.496053   -0.796703
     28          6           0        5.037268   -4.339731    0.502587
     29          1           0        4.765746   -4.725540    1.485499
     30          1           0        4.624455   -5.004743   -0.256990
     31          1           0        6.116308   -4.287707    0.405469
     32          6           0       -0.854230    0.056988    0.509462
     33          6           0       -1.504011    0.462451    1.642019
     34         16           0       -1.980265   -0.514153   -0.692182
     35          6           0       -2.919716    0.342926    1.543657
     36          1           0       -0.983785    0.843234    2.508989
     37          6           0       -3.371156   -0.170994    0.337334
     38          8           0       -3.819145    0.671988    2.513924
     39          6           0       -4.731875   -0.415714   -0.079916
     40          6           0       -3.319605    1.246542    3.725497
     41          6           0       -5.180162   -0.955923   -1.277522
     42         16           0       -6.121052   -0.028796    0.934029
     43          1           0       -4.193454    1.447521    4.342082
     44          1           0       -2.658062    0.549185    4.246850
     45          1           0       -2.789341    2.181839    3.526101
     46          6           0       -6.598615   -1.056941   -1.381751
     47          8           0       -4.277146   -1.333813   -2.226453
     48          6           0       -7.233260   -0.593967   -0.264632
     49          1           0       -7.121062   -1.453031   -2.240410
     50          6           0       -4.779386   -1.887227   -3.446402
     51          1           0       -8.294177   -0.553934   -0.070826
     52          1           0       -5.411406   -1.166822   -3.973179
     53          1           0       -3.904766   -2.114628   -4.052563
     54          1           0       -5.341917   -2.805958   -3.258027
 ---------------------------------------------------------------------

 The electronic state is 2-A.
 Alpha  occ. eigenvalues --  -88.87911 -88.87566 -19.16223 -19.16209 -19.09898
 Alpha  occ. eigenvalues --  -19.09887 -19.09714 -19.09582 -14.36727 -14.36503
 Alpha  occ. eigenvalues --  -10.28348 -10.28172 -10.28152 -10.28123 -10.23889
 Alpha  occ. eigenvalues --  -10.23823 -10.22451 -10.22426 -10.21231 -10.21033
 Alpha  occ. eigenvalues --  -10.20905 -10.20495 -10.20457 -10.20287 -10.20112
 Alpha  occ. eigenvalues --  -10.19736 -10.19625 -10.19610 -10.18944 -10.18924
 Alpha  occ. eigenvalues --  -10.18911 -10.18485 -10.18243 -10.18236 -10.18180
 Alpha  occ. eigenvalues --  -10.17651  -7.96474  -7.96128  -5.92782  -5.92448
 Alpha  occ. eigenvalues --   -5.92398  -5.92062  -5.92044  -5.91675  -1.07547
 Alpha  occ. eigenvalues --   -1.07462  -1.05837  -1.05755  -1.03775  -1.03671
 Alpha  occ. eigenvalues --   -0.93930  -0.93680  -0.89922  -0.89162  -0.87739
 Alpha  occ. eigenvalues --   -0.84181  -0.81896  -0.78703  -0.76359  -0.75877
 Alpha  occ. eigenvalues --   -0.75301  -0.74293  -0.73450  -0.72153  -0.70753
 Alpha  occ. eigenvalues --   -0.70220  -0.69323  -0.67487  -0.65135  -0.64069
 Alpha  occ. eigenvalues --   -0.63151  -0.62640  -0.59755  -0.58523  -0.56666
 Alpha  occ. eigenvalues --   -0.55658  -0.55259  -0.54987  -0.53879  -0.53072
 Alpha  occ. eigenvalues --   -0.51565  -0.49513  -0.48990  -0.48253  -0.47905
 Alpha  occ. eigenvalues --   -0.47779  -0.47666  -0.47345  -0.47223  -0.46983
 Alpha  occ. eigenvalues --   -0.46567  -0.45125  -0.45005  -0.44727  -0.44466
 Alpha  occ. eigenvalues --   -0.43994  -0.43230  -0.42866  -0.42503  -0.42141
 Alpha  occ. eigenvalues --   -0.41265  -0.40910  -0.40801  -0.40410  -0.40397
 Alpha  occ. eigenvalues --   -0.40249  -0.39854  -0.39645  -0.39136  -0.38315
 Alpha  occ. eigenvalues --   -0.38092  -0.37572  -0.37268  -0.36861  -0.35560
 Alpha  occ. eigenvalues --   -0.34844  -0.33790  -0.33588  -0.33152  -0.32868
 Alpha  occ. eigenvalues --   -0.32783  -0.30080  -0.29225  -0.28691  -0.28190
 Alpha  occ. eigenvalues --   -0.27810  -0.27429  -0.26817  -0.26577  -0.26122
 Alpha  occ. eigenvalues --   -0.24420  -0.24289  -0.24136  -0.18795  -0.15617
 Alpha virt. eigenvalues --   -0.05842  -0.04640  -0.03765  -0.02932  -0.00293
 Alpha virt. eigenvalues --   -0.00082   0.00329   0.00817   0.00971   0.01073
 Alpha virt. eigenvalues --    0.01542   0.02263   0.02402   0.02455   0.02569

  Beta  occ. eigenvalues --  -88.87911 -88.87562 -19.16221 -19.16209 -19.09701
  Beta  occ. eigenvalues --  -19.09685 -19.09525 -19.09366 -14.36783 -14.36559
  Beta  occ. eigenvalues --  -10.28286 -10.28112 -10.28098 -10.28065 -10.23886
  Beta  occ. eigenvalues --  -10.23826 -10.22451 -10.22426 -10.21233 -10.21043
  Beta  occ. eigenvalues --  -10.20898 -10.20551 -10.20356 -10.20341 -10.20109
  Beta  occ. eigenvalues --  -10.19735 -10.19609 -10.19448 -10.18787 -10.18755
  Beta  occ. eigenvalues --  -10.18748 -10.18415 -10.18237 -10.18156 -10.18096
  Beta  occ. eigenvalues --  -10.17638  -7.96474  -7.96124  -5.92782  -5.92442
  Beta  occ. eigenvalues --   -5.92398  -5.92057  -5.92044  -5.91672  -1.07545
  Beta  occ. eigenvalues --   -1.07461  -1.05582  -1.05499  -1.03429  -1.03324
  Beta  occ. eigenvalues --   -0.93808  -0.93563  -0.89809  -0.89100  -0.87703
  Beta  occ. eigenvalues --   -0.83858  -0.81586  -0.78572  -0.76251  -0.75502
  Beta  occ. eigenvalues --   -0.75169  -0.74275  -0.73378  -0.72114  -0.70711
  Beta  occ. eigenvalues --   -0.69890  -0.69197  -0.67388  -0.64980  -0.63866
  Beta  occ. eigenvalues --   -0.63066  -0.62446  -0.59718  -0.58470  -0.56581
  Beta  occ. eigenvalues --   -0.55526  -0.55253  -0.54877  -0.53874  -0.52922
  Beta  occ. eigenvalues --   -0.51443  -0.49348  -0.48920  -0.47973  -0.47721
  Beta  occ. eigenvalues --   -0.47659  -0.47627  -0.47340  -0.47155  -0.46863
  Beta  occ. eigenvalues --   -0.46529  -0.45070  -0.44862  -0.44695  -0.44352
  Beta  occ. eigenvalues --   -0.43890  -0.43055  -0.42690  -0.42344  -0.41885
  Beta  occ. eigenvalues --   -0.41214  -0.40882  -0.40722  -0.40165  -0.39949
  Beta  occ. eigenvalues --   -0.39808  -0.39475  -0.39092  -0.38754  -0.38174
  Beta  occ. eigenvalues --   -0.38069  -0.37371  -0.36982  -0.36793  -0.35551
  Beta  occ. eigenvalues --   -0.34757  -0.33672  -0.33410  -0.33096  -0.32858
  Beta  occ. eigenvalues --   -0.32127  -0.29111  -0.28975  -0.28527  -0.27664
  Beta  occ. eigenvalues --   -0.27520  -0.27099  -0.26610  -0.25957  -0.25929
  Beta  occ. eigenvalues --   -0.24346  -0.24107  -0.22762  -0.18760
  Beta virt. eigenvalues --   -0.11020  -0.04856  -0.04392  -0.02982  -0.02263
  Beta virt. eigenvalues --   -0.00276  -0.00064   0.00340   0.00824   0.00981
  Beta virt. eigenvalues --    0.01094   0.01550   0.02362   0.02501   0.02827

 Mulliken charges and spin densities:
               1          2
     1  C    0.449111   0.026004
     2  C   -0.042427   0.122003
     3  C    0.180936  -0.038969
     4  C    0.173030   0.109826
     5  C    0.277456   0.026730
     6  C   -0.572522   0.059381
     7  C    0.197936  -0.035968
     8  C    0.026016   0.131328
     9  C    0.541240   0.070222
    10  C   -0.414316   0.026379
    11  C    0.234743   0.025961
    12  C    0.167649   0.111536
    13  C   -0.543503   0.060195
    14  C   -0.648198   0.066620
    15  H    0.144297  -0.004661
    16  H    0.144707  -0.004324
    17  H    0.140590  -0.003590
    18  N   -0.142868  -0.022850
    19  N   -0.139231  -0.023547
    20  O   -0.429256   0.075335
    21  O   -0.419423   0.073163
    22  O   -0.422491   0.070800
    23  O   -0.269176   0.080579
    24  C   -0.221830   0.001348
    25  H    0.175289  -0.001113
    26  H    0.171557  -0.000851
    27  H    0.174671  -0.000356
    28  C   -0.208396   0.001387
    29  H    0.171565  -0.000984
    30  H    0.172153  -0.001018
    31  H    0.173935  -0.000347
    32  C    0.123855  -0.027319
    33  C   -0.555369   0.009395
    34  S   -0.201157   0.006377
    35  C   -0.167816  -0.000036
    36  H    0.141409  -0.000544
    37  C    0.328489   0.011607
    38  O   -0.174744  -0.000114
    39  C    0.731125  -0.001673
    40  C   -0.234487   0.000385
    41  C    0.020475   0.000614
    42  S   -0.254092   0.000195
    43  H    0.173659  -0.000012
    44  H    0.159754  -0.000024
    45  H    0.163803   0.000004
    46  C   -0.539128  -0.001398
    47  O   -0.175849   0.000689
    48  C   -0.366892   0.001558
    49  H    0.158465   0.000031
    50  C   -0.247534   0.000091
    51  H    0.185353  -0.000092
    52  H    0.158394   0.000024
    53  H    0.171806   0.000011
    54  H    0.157236   0.000011
 Sum of Mulliken charges =  -1.00000   1.00000

 Dipole moment (field-independent basis, Debye):
    X=            -14.0844    Y=             -0.8981    Z=              0.7955  Tot=             14.1354
 Quadrupole moment (field-independent basis, Debye-Ang):
   XX=           -300.0099   YY=           -269.8274   ZZ=           -203.8683
   XY=              4.3084   XZ=             14.3053   YZ=             20.2465

 Normal termination of Gaussian 16 at Thu Oct 28 07:21:16 2021.
