 Gaussian 16, Revision C.01,
 Gaussian 16:  ES64L-G16RevC.01  3-Jul-2019

 ---------------------------------------------------------------
 # opt=modredundant b3lyp/6-311+g(d,p) scrf=(pcm, solvent=water)
 ---------------------------------------------------------------

 ----------
 NDI_40.pdb
 ----------
 Symbolic Z-matrix:
 Charge = -1 Multiplicity = 2

 SCF Done:  E(UB3LYP) =  -2359.49213942     A.U. after   22 cycles
 SCF Done:  E(UB3LYP) =  -2359.49392896     A.U. after   21 cycles
 SCF Done:  E(UB3LYP) =  -2359.49911147     A.U. after   18 cycles
 SCF Done:  E(UB3LYP) =  -2359.50009326     A.U. after   18 cycles
 SCF Done:  E(UB3LYP) =  -2359.50149179     A.U. after   20 cycles
 SCF Done:  E(UB3LYP) =  -2359.50256726     A.U. after   21 cycles
 SCF Done:  E(UB3LYP) =  -2359.50316762     A.U. after   20 cycles
 SCF Done:  E(UB3LYP) =  -2359.50321600     A.U. after   21 cycles
 SCF Done:  E(UB3LYP) =  -2359.50353197     A.U. after   17 cycles
 SCF Done:  E(UB3LYP) =  -2359.50357213     A.U. after   16 cycles
 SCF Done:  E(UB3LYP) =  -2359.50366511     A.U. after   12 cycles
 SCF Done:  E(UB3LYP) =  -2359.50366559     A.U. after   13 cycles
 SCF Done:  E(UB3LYP) =  -2359.50366583     A.U. after   11 cycles
 SCF Done:  E(UB3LYP) =  -2359.50366587     A.U. after   10 cycles
 SCF Done:  E(UB3LYP) =  -2359.50366594     A.U. after   10 cycles
 SCF Done:  E(UB3LYP) =  -2359.50366599     A.U. after    8 cycles
 SCF Done:  E(UB3LYP) =  -2359.50366613     A.U. after   10 cycles
 SCF Done:  E(UB3LYP) =  -2359.50366620     A.U. after    8 cycles
 SCF Done:  E(UB3LYP) =  -2359.50366628     A.U. after    8 cycles
 SCF Done:  E(UB3LYP) =  -2359.50366632     A.U. after    8 cycles
 Optimization completed.
    -- Stationary point found.

                         Standard orientation:
 ---------------------------------------------------------------------
 Center     Atomic      Atomic             Coordinates (Angstroms)
 Number     Number       Type             X           Y           Z
 ---------------------------------------------------------------------
      1          6           0       -2.788936   -2.961990    0.393946
      2          6           0       -2.382951   -1.577938    0.186292
      3          6           0       -3.358325   -0.560319    0.071710
      4          6           0       -4.735642   -0.863288    0.163018
      5          6           0       -5.172399   -2.239920    0.375066
      6          6           0       -1.024444   -1.245704    0.163708
      7          6           0       -2.928058    0.789775   -0.148353
      8          6           0       -1.539877    1.094899   -0.252925
      9          6           0       -0.571978    0.061397   -0.021450
     10          6           0       -1.170945    2.428666   -0.726479
     11          6           0       -3.542422    3.176403   -0.527923
     12          6           0       -3.921669    1.793637   -0.276003
     13          6           0       -5.288150    1.465656   -0.168889
     14          6           0       -5.692011    0.164135    0.046806
     15          1           0       -6.741886   -0.086877    0.123322
     16          1           0       -6.015758    2.261156   -0.265369
     17          1           0       -0.310551   -2.035796    0.356918
     18          7           0       -2.180006    3.414106   -0.720316
     19          7           0       -4.164956   -3.214918    0.466424
     20          8           0       -1.991837   -3.901668    0.506058
     21          8           0       -6.362746   -2.561571    0.470010
     22          8           0       -4.358787    4.105172   -0.598344
     23          8           0       -0.054146    2.744255   -1.147173
     24          6           0       -1.765976    4.776877   -1.074157
     25          1           0       -0.807921    4.991602   -0.606885
     26          1           0       -1.657346    4.881832   -2.156576
     27          1           0       -2.528260    5.464881   -0.722289
     28          6           0       -4.558716   -4.614423    0.667841
     29          1           0       -4.123895   -5.236065   -0.114626
     30          1           0       -4.198776   -4.970978    1.634205
     31          1           0       -5.641536   -4.667995    0.633446
     32          6           0        0.863140    0.305266    0.174056
     33          6           0        1.486276    1.306133    0.877913
     34         16           0        2.041121   -0.813479   -0.480499
     35          6           0        2.896703    1.173736    0.911082
     36          1           0        0.944502    2.104015    1.361928
     37          6           0        3.391135    0.073862    0.218623
     38          8           0        3.764820    2.006164    1.551011
     39          6           0        4.763417   -0.333941    0.051515
     40          6           0        3.225897    3.145389    2.229271
     41          6           0        5.255189   -1.434269   -0.640351
     42         16           0        6.114847    0.565167    0.740642
     43          1           0        4.079777    3.672566    2.650006
     44          1           0        2.697105    3.801605    1.532664
     45          1           0        2.552435    2.839195    3.034519
     46          6           0        6.675049   -1.554431   -0.618225
     47          8           0        4.388248   -2.279366   -1.264112
     48          6           0        7.267812   -0.547073    0.088655
     49          1           0        7.228388   -2.346472   -1.101484
     50          6           0        4.932571   -3.407957   -1.955718
     51          1           0        8.320664   -0.391104    0.267348
     52          1           0        5.476687   -4.062692   -1.269434
     53          1           0        4.080144   -3.942645   -2.369718
     54          1           0        5.592919   -3.088901   -2.766814
 ---------------------------------------------------------------------

 The electronic state is 2-A.
 Alpha  occ. eigenvalues --  -88.88014 -88.87718 -19.16378 -19.16303 -19.09954
 Alpha  occ. eigenvalues --  -19.09916 -19.09621 -19.09456 -14.36743 -14.36384
 Alpha  occ. eigenvalues --  -10.28395 -10.28200 -10.28102 -10.27986 -10.24088
 Alpha  occ. eigenvalues --  -10.23975 -10.22513 -10.22465 -10.21362 -10.21265
 Alpha  occ. eigenvalues --  -10.21065 -10.20610 -10.20441 -10.20262 -10.20154
 Alpha  occ. eigenvalues --  -10.19750 -10.19631 -10.19380 -10.18943 -10.18896
 Alpha  occ. eigenvalues --  -10.18791 -10.18515 -10.18325 -10.18171 -10.18097
 Alpha  occ. eigenvalues --  -10.17778  -7.96576  -7.96285  -5.92885  -5.92601
 Alpha  occ. eigenvalues --   -5.92500  -5.92219  -5.92146  -5.91838  -1.07713
 Alpha  occ. eigenvalues --   -1.07598  -1.05878  -1.05647  -1.03825  -1.03550
 Alpha  occ. eigenvalues --   -0.93949  -0.93592  -0.89981  -0.89216  -0.87852
 Alpha  occ. eigenvalues --   -0.84155  -0.81835  -0.78814  -0.76534  -0.75831
 Alpha  occ. eigenvalues --   -0.75347  -0.74422  -0.73420  -0.72278  -0.70731
 Alpha  occ. eigenvalues --   -0.70322  -0.69342  -0.67528  -0.65116  -0.64011
 Alpha  occ. eigenvalues --   -0.63251  -0.62566  -0.59843  -0.58631  -0.56635
 Alpha  occ. eigenvalues --   -0.55676  -0.55370  -0.55032  -0.54001  -0.53137
 Alpha  occ. eigenvalues --   -0.51561  -0.49522  -0.48984  -0.48225  -0.47879
 Alpha  occ. eigenvalues --   -0.47772  -0.47731  -0.47434  -0.47228  -0.47020
 Alpha  occ. eigenvalues --   -0.46548  -0.45226  -0.45067  -0.44665  -0.44392
 Alpha  occ. eigenvalues --   -0.43928  -0.43154  -0.42892  -0.42336  -0.42082
 Alpha  occ. eigenvalues --   -0.41419  -0.41111  -0.40939  -0.40507  -0.40306
 Alpha  occ. eigenvalues --   -0.40180  -0.39869  -0.39467  -0.39090  -0.38739
 Alpha  occ. eigenvalues --   -0.38137  -0.37650  -0.37142  -0.36802  -0.35730
 Alpha  occ. eigenvalues --   -0.34926  -0.34419  -0.33565  -0.33349  -0.32995
 Alpha  occ. eigenvalues --   -0.32534  -0.30095  -0.29378  -0.28861  -0.28135
 Alpha  occ. eigenvalues --   -0.27973  -0.27288  -0.26890  -0.26368  -0.26176
 Alpha  occ. eigenvalues --   -0.24582  -0.24277  -0.23885  -0.19012  -0.15427
 Alpha virt. eigenvalues --   -0.06330  -0.05258  -0.03311  -0.02603  -0.00286
 Alpha virt. eigenvalues --    0.00212   0.00396   0.00675   0.00871   0.01317
 Alpha virt. eigenvalues --    0.01724   0.02282   0.02376   0.02481   0.02697

  Beta  occ. eigenvalues --  -88.88013 -88.87712 -19.16366 -19.16307 -19.09765
  Beta  occ. eigenvalues --  -19.09719 -19.09442 -19.09266 -14.36797 -14.36437
  Beta  occ. eigenvalues --  -10.28335 -10.28141 -10.28045 -10.27931 -10.24064
  Beta  occ. eigenvalues --  -10.23995 -10.22513 -10.22465 -10.21376 -10.21211
  Beta  occ. eigenvalues --  -10.21103 -10.20503 -10.20492 -10.20239 -10.20210
  Beta  occ. eigenvalues --  -10.19749 -10.19630 -10.19218 -10.18793 -10.18728
  Beta  occ. eigenvalues --  -10.18639 -10.18451 -10.18334 -10.18091 -10.18015
  Beta  occ. eigenvalues --  -10.17734  -7.96576  -7.96279  -5.92884  -5.92598
  Beta  occ. eigenvalues --   -5.92500  -5.92215  -5.92144  -5.91820  -1.07694
  Beta  occ. eigenvalues --   -1.07602  -1.05632  -1.05412  -1.03491  -1.03231
  Beta  occ. eigenvalues --   -0.93833  -0.93484  -0.89883  -0.89128  -0.87807
  Beta  occ. eigenvalues --   -0.83843  -0.81539  -0.78677  -0.76419  -0.75493
  Beta  occ. eigenvalues --   -0.75198  -0.74390  -0.73352  -0.72223  -0.70685
  Beta  occ. eigenvalues --   -0.70036  -0.69193  -0.67415  -0.64963  -0.63817
  Beta  occ. eigenvalues --   -0.63165  -0.62372  -0.59798  -0.58573  -0.56550
  Beta  occ. eigenvalues --   -0.55562  -0.55344  -0.54924  -0.53983  -0.52987
  Beta  occ. eigenvalues --   -0.51453  -0.49381  -0.48883  -0.47959  -0.47768
  Beta  occ. eigenvalues --   -0.47719  -0.47573  -0.47420  -0.47162  -0.46898
  Beta  occ. eigenvalues --   -0.46499  -0.45175  -0.44974  -0.44581  -0.44265
  Beta  occ. eigenvalues --   -0.43842  -0.42974  -0.42720  -0.42150  -0.41907
  Beta  occ. eigenvalues --   -0.41331  -0.41027  -0.40850  -0.40240  -0.39900
  Beta  occ. eigenvalues --   -0.39857  -0.39430  -0.39088  -0.38591  -0.38575
  Beta  occ. eigenvalues --   -0.38088  -0.37492  -0.36829  -0.36762  -0.35710
  Beta  occ. eigenvalues --   -0.34831  -0.34170  -0.33427  -0.33314  -0.32976
  Beta  occ. eigenvalues --   -0.32005  -0.29379  -0.28923  -0.28563  -0.27817
  Beta  occ. eigenvalues --   -0.27498  -0.26985  -0.26678  -0.26074  -0.25806
  Beta  occ. eigenvalues --   -0.24341  -0.24050  -0.22690  -0.18693
  Beta virt. eigenvalues --   -0.11108  -0.05730  -0.04385  -0.02512  -0.02247
  Beta virt. eigenvalues --   -0.00270   0.00377   0.00407   0.00681   0.00904
  Beta virt. eigenvalues --    0.01357   0.01739   0.02354   0.02552   0.02748

 Mulliken charges and spin densities:
               1          2
     1  C    0.386579   0.027145
     2  C   -0.172758   0.117049
     3  C    0.108558  -0.036402
     4  C    0.199243   0.102182
     5  C    0.267403   0.026122
     6  C   -0.378253   0.052498
     7  C    0.189504  -0.030594
     8  C    0.355670   0.118152
     9  C    0.397684   0.074365
    10  C   -0.542536   0.025734
    11  C    0.262702   0.025528
    12  C    0.090345   0.100734
    13  C   -0.485209   0.060215
    14  C   -0.603575   0.063881
    15  H    0.144223  -0.004331
    16  H    0.144437  -0.004172
    17  H    0.153284  -0.002682
    18  N   -0.048846  -0.021874
    19  N   -0.134060  -0.022922
    20  O   -0.433891   0.073421
    21  O   -0.417081   0.070187
    22  O   -0.430345   0.066769
    23  O   -0.326983   0.070962
    24  C   -0.196731   0.001368
    25  H    0.171752  -0.000508
    26  H    0.177533  -0.001197
    27  H    0.172795  -0.000451
    28  C   -0.210058   0.001202
    29  H    0.170101  -0.000892
    30  H    0.174374  -0.001034
    31  H    0.173900  -0.000334
    32  C    0.095727  -0.033894
    33  C   -0.519511   0.029052
    34  S   -0.580897   0.013863
    35  C   -0.314543  -0.009981
    36  H    0.153775  -0.002230
    37  C    0.686364   0.036844
    38  O   -0.164579  -0.000652
    39  C    0.761217  -0.011210
    40  C   -0.238063   0.000120
    41  C    0.012413   0.016284
    42  S   -0.233284  -0.000063
    43  H    0.174710  -0.000005
    44  H    0.162329  -0.000204
    45  H    0.160831  -0.000117
    46  C   -0.607366  -0.006748
    47  O   -0.165369   0.002664
    48  C   -0.328324   0.016485
    49  H    0.159420   0.000304
    50  C   -0.251444  -0.000081
    51  H    0.186690  -0.000981
    52  H    0.158979   0.000222
    53  H    0.172674  -0.000002
    54  H    0.158486   0.000211
 Sum of Mulliken charges =  -1.00000   1.00000

 Dipole moment (field-independent basis, Debye):
    X=             15.0951    Y=             -0.5174    Z=              1.2751  Tot=             15.1577
 Quadrupole moment (field-independent basis, Debye-Ang):
   XX=           -296.2694   YY=           -252.0320   ZZ=           -223.0567
   XY=             -8.6004   XZ=             -3.4508   YZ=             23.2626

 Normal termination of Gaussian 16 at Thu Oct 28 12:12:06 2021.
