 Gaussian 16, Revision C.01,
 Gaussian 16:  ES64L-G16RevC.01  3-Jul-2019

 ---------------------------------------------------------------
 # opt=modredundant b3lyp/6-311+g(d,p) scrf=(pcm, solvent=water)
 ---------------------------------------------------------------

 -----------
 NDI_130.pdb
 -----------
 Symbolic Z-matrix:
 Charge = -1 Multiplicity = 2

 SCF Done:  E(UB3LYP) =  -2359.49110644     A.U. after   22 cycles
 SCF Done:  E(UB3LYP) =  -2359.49668727     A.U. after   21 cycles
 SCF Done:  E(UB3LYP) =  -2359.50175408     A.U. after   20 cycles
 SCF Done:  E(UB3LYP) =  -2359.50271623     A.U. after   18 cycles
 SCF Done:  E(UB3LYP) =  -2359.50351629     A.U. after   17 cycles
 SCF Done:  E(UB3LYP) =  -2359.50373524     A.U. after   17 cycles
 SCF Done:  E(UB3LYP) =  -2359.50376768     A.U. after   16 cycles
 SCF Done:  E(UB3LYP) =  -2359.50380045     A.U. after   14 cycles
 SCF Done:  E(UB3LYP) =  -2359.50381597     A.U. after   14 cycles
 SCF Done:  E(UB3LYP) =  -2359.50383172     A.U. after   15 cycles
 SCF Done:  E(UB3LYP) =  -2359.50389131     A.U. after   13 cycles
 SCF Done:  E(UB3LYP) =  -2359.50389241     A.U. after   10 cycles
 SCF Done:  E(UB3LYP) =  -2359.50389307     A.U. after   10 cycles
 SCF Done:  E(UB3LYP) =  -2359.50389354     A.U. after   10 cycles
 SCF Done:  E(UB3LYP) =  -2359.50389392     A.U. after   10 cycles
 SCF Done:  E(UB3LYP) =  -2359.50389437     A.U. after    8 cycles
 SCF Done:  E(UB3LYP) =  -2359.50389476     A.U. after    8 cycles
 SCF Done:  E(UB3LYP) =  -2359.50389491     A.U. after    9 cycles
 SCF Done:  E(UB3LYP) =  -2359.50389493     A.U. after   10 cycles
 SCF Done:  E(UB3LYP) =  -2359.50389492     A.U. after    8 cycles
 Optimization completed.
    -- Stationary point found.

                         Standard orientation:
 ---------------------------------------------------------------------
 Center     Atomic      Atomic             Coordinates (Angstroms)
 Number     Number       Type             X           Y           Z
 ---------------------------------------------------------------------
      1          6           0        3.461214   -2.708215    0.421292
      2          6           0        2.747014   -1.476792    0.111360
      3          6           0        3.427930   -0.237552    0.129656
      4          6           0        4.802164   -0.168650    0.455680
      5          6           0        5.541225   -1.384322    0.779591
      6          6           0        1.371577   -1.512261   -0.155530
      7          6           0        2.706355    0.956959   -0.198986
      8          6           0        1.324861    0.888210   -0.535660
      9          6           0        0.641411   -0.364830   -0.453862
     10          6           0        0.686065    2.089029   -1.070591
     11          6           0        2.723153    3.427356   -0.541011
     12          6           0        3.406594    2.189631   -0.191201
     13          6           0        4.773948    2.230168    0.147861
     14          6           0        5.461121    1.076229    0.465464
     15          1           0        6.512456    1.109127    0.719945
     16          1           0        5.275106    3.189533    0.148813
     17          1           0        0.858502   -2.462115   -0.081403
     18          7           0        1.393147    3.300930   -0.953789
     19          7           0        4.821923   -2.590557    0.734416
     20          8           0        2.932954   -3.827337    0.420905
     21          8           0        6.741306   -1.383916    1.079133
     22          8           0        3.268793    4.538176   -0.505356
     23          8           0       -0.415004    2.106783   -1.628923
     24          6           0        0.689604    4.506730   -1.406601
     25          1           0        0.609775    4.518961   -2.495826
     26          1           0       -0.314222    4.519792   -0.985987
     27          1           0        1.254398    5.371126   -1.073491
     28          6           0        5.527704   -3.840039    1.042597
     29          1           0        5.088566   -4.310774    1.923215
     30          1           0        5.443447   -4.529892    0.202709
     31          1           0        6.569220   -3.601019    1.229096
     32          6           0       -0.819903   -0.530779   -0.571282
     33          6           0       -1.492920   -1.413190   -1.377346
     34         16           0       -1.916470    0.268807    0.528465
     35          6           0       -2.896302   -1.424571   -1.145514
     36          1           0       -0.995522   -2.015397   -2.123953
     37          6           0       -3.317343   -0.570205   -0.136729
     38          8           0       -3.812660   -2.178922   -1.815510
     39          6           0       -4.659371   -0.351598    0.347031
     40          6           0       -3.339543   -3.051305   -2.846548
     41          6           0       -5.079864    0.493311    1.365989
     42         16           0       -6.060216   -1.181983   -0.328797
     43          1           0       -4.221720   -3.551664   -3.240913
     44          1           0       -2.852463   -2.485603   -3.645644
     45          1           0       -2.647029   -3.795411   -2.443422
     46          6           0       -6.486412    0.478255    1.597773
     47          8           0       -4.163626    1.240228    2.043703
     48          6           0       -7.139430   -0.378203    0.757924
     49          1           0       -6.987842    1.071169    2.348800
     50          6           0       -4.639322    2.113123    3.072991
     51          1           0       -8.197257   -0.587294    0.712809
     52          1           0       -5.130070    1.548226    3.870483
     53          1           0       -3.757930    2.612109    3.470731
     54          1           0       -5.329210    2.858305    2.667245
 ---------------------------------------------------------------------

 The electronic state is 2-A.
 Alpha  occ. eigenvalues --  -88.87965 -88.87432 -19.16294 -19.16262 -19.09923
 Alpha  occ. eigenvalues --  -19.09898 -19.09702 -19.09607 -14.36730 -14.36472
 Alpha  occ. eigenvalues --  -10.28369 -10.28185 -10.28139 -10.28102 -10.23998
 Alpha  occ. eigenvalues --  -10.23878 -10.22482 -10.22455 -10.21287 -10.21130
 Alpha  occ. eigenvalues --  -10.21085 -10.20466 -10.20453 -10.20229 -10.20192
 Alpha  occ. eigenvalues --  -10.19740 -10.19641 -10.19453 -10.18950 -10.18914
 Alpha  occ. eigenvalues --  -10.18873 -10.18500 -10.18279 -10.18223 -10.18161
 Alpha  occ. eigenvalues --  -10.17855  -7.96527  -7.96002  -5.92835  -5.92451
 Alpha  occ. eigenvalues --   -5.92326  -5.92098  -5.91941  -5.91540  -1.07625
 Alpha  occ. eigenvalues --   -1.07527  -1.05850  -1.05736  -1.03794  -1.03653
 Alpha  occ. eigenvalues --   -0.93932  -0.93681  -0.89940  -0.89191  -0.87780
 Alpha  occ. eigenvalues --   -0.84175  -0.81875  -0.78805  -0.76336  -0.75923
 Alpha  occ. eigenvalues --   -0.75324  -0.74344  -0.73441  -0.72237  -0.70779
 Alpha  occ. eigenvalues --   -0.70085  -0.69446  -0.67537  -0.65104  -0.64071
 Alpha  occ. eigenvalues --   -0.63166  -0.62632  -0.59776  -0.58576  -0.56668
 Alpha  occ. eigenvalues --   -0.55724  -0.55320  -0.54994  -0.53944  -0.52955
 Alpha  occ. eigenvalues --   -0.51682  -0.49457  -0.48958  -0.48273  -0.47906
 Alpha  occ. eigenvalues --   -0.47777  -0.47688  -0.47383  -0.47298  -0.46984
 Alpha  occ. eigenvalues --   -0.46571  -0.45153  -0.45094  -0.44683  -0.44553
 Alpha  occ. eigenvalues --   -0.43859  -0.43229  -0.42989  -0.42507  -0.42094
 Alpha  occ. eigenvalues --   -0.41329  -0.40969  -0.40822  -0.40464  -0.40367
 Alpha  occ. eigenvalues --   -0.40175  -0.39869  -0.39619  -0.39168  -0.38512
 Alpha  occ. eigenvalues --   -0.38031  -0.37519  -0.37219  -0.36892  -0.35585
 Alpha  occ. eigenvalues --   -0.34878  -0.34264  -0.33526  -0.33174  -0.33049
 Alpha  occ. eigenvalues --   -0.32474  -0.30035  -0.29266  -0.28811  -0.28137
 Alpha  occ. eigenvalues --   -0.27904  -0.27377  -0.26864  -0.26430  -0.26248
 Alpha  occ. eigenvalues --   -0.24583  -0.24265  -0.23993  -0.18914  -0.15529
 Alpha virt. eigenvalues --   -0.06029  -0.05107  -0.03398  -0.02758  -0.00301
 Alpha virt. eigenvalues --   -0.00052   0.00356   0.00730   0.00844   0.01351
 Alpha virt. eigenvalues --    0.01584   0.02322   0.02409   0.02469   0.02578

  Beta  occ. eigenvalues --  -88.87964 -88.87426 -19.16287 -19.16265 -19.09730
  Beta  occ. eigenvalues --  -19.09698 -19.09517 -19.09403 -14.36785 -14.36526
  Beta  occ. eigenvalues --  -10.28308 -10.28125 -10.28085 -10.28046 -10.23986
  Beta  occ. eigenvalues --  -10.23887 -10.22482 -10.22454 -10.21294 -10.21153
  Beta  occ. eigenvalues --  -10.21060 -10.20507 -10.20362 -10.20283 -10.20181
  Beta  occ. eigenvalues --  -10.19739 -10.19640 -10.19283 -10.18797 -10.18745
  Beta  occ. eigenvalues --  -10.18714 -10.18433 -10.18284 -10.18140 -10.18077
  Beta  occ. eigenvalues --  -10.17829  -7.96527  -7.95996  -5.92835  -5.92451
  Beta  occ. eigenvalues --   -5.92317  -5.92096  -5.91934  -5.91530  -1.07616
  Beta  occ. eigenvalues --   -1.07529  -1.05599  -1.05490  -1.03454  -1.03320
  Beta  occ. eigenvalues --   -0.93812  -0.93569  -0.89833  -0.89119  -0.87740
  Beta  occ. eigenvalues --   -0.83857  -0.81571  -0.78670  -0.76234  -0.75578
  Beta  occ. eigenvalues --   -0.75169  -0.74312  -0.73371  -0.72180  -0.70737
  Beta  occ. eigenvalues --   -0.69776  -0.69317  -0.67434  -0.64951  -0.63875
  Beta  occ. eigenvalues --   -0.63062  -0.62463  -0.59727  -0.58518  -0.56589
  Beta  occ. eigenvalues --   -0.55588  -0.55308  -0.54877  -0.53933  -0.52819
  Beta  occ. eigenvalues --   -0.51561  -0.49282  -0.48901  -0.47996  -0.47729
  Beta  occ. eigenvalues --   -0.47694  -0.47612  -0.47376  -0.47219  -0.46866
  Beta  occ. eigenvalues --   -0.46528  -0.45088  -0.45016  -0.44574  -0.44468
  Beta  occ. eigenvalues --   -0.43751  -0.43062  -0.42793  -0.42372  -0.41841
  Beta  occ. eigenvalues --   -0.41281  -0.40932  -0.40755  -0.40157  -0.39942
  Beta  occ. eigenvalues --   -0.39843  -0.39438  -0.39109  -0.38785  -0.38388
  Beta  occ. eigenvalues --   -0.37940  -0.37308  -0.37014  -0.36779  -0.35574
  Beta  occ. eigenvalues --   -0.34784  -0.33988  -0.33420  -0.33136  -0.33027
  Beta  occ. eigenvalues --   -0.31898  -0.29150  -0.28952  -0.28575  -0.27778
  Beta  occ. eigenvalues --   -0.27488  -0.27071  -0.26656  -0.26077  -0.25821
  Beta  occ. eigenvalues --   -0.24481  -0.23982  -0.22743  -0.18748
  Beta virt. eigenvalues --   -0.11068  -0.05319  -0.04424  -0.02635  -0.02258
  Beta virt. eigenvalues --   -0.00285   0.00037   0.00367   0.00741   0.00873
  Beta virt. eigenvalues --    0.01360   0.01604   0.02367   0.02580   0.02884

 Mulliken charges and spin densities:
               1          2
     1  C    0.401873   0.026464
     2  C   -0.115260   0.121055
     3  C    0.139347  -0.038356
     4  C    0.176658   0.105783
     5  C    0.271514   0.025276
     6  C   -0.366680   0.054759
     7  C    0.190430  -0.033365
     8  C    0.034944   0.126959
     9  C    0.289282   0.066229
    10  C   -0.414141   0.024816
    11  C    0.311067   0.025563
    12  C    0.068697   0.107651
    13  C   -0.483355   0.061132
    14  C   -0.601620   0.064281
    15  H    0.144210  -0.004525
    16  H    0.144596  -0.004241
    17  H    0.142282  -0.003162
    18  N   -0.053775  -0.022323
    19  N   -0.135206  -0.023303
    20  O   -0.430429   0.074620
    21  O   -0.419436   0.071727
    22  O   -0.427104   0.068719
    23  O   -0.348271   0.076480
    24  C   -0.187664   0.001351
    25  H    0.177165  -0.001170
    26  H    0.173391  -0.000657
    27  H    0.174988  -0.000387
    28  C   -0.207412   0.001291
    29  H    0.173431  -0.001027
    30  H    0.170797  -0.000943
    31  H    0.174622  -0.000340
    32  C    0.231613  -0.015650
    33  C   -0.520787   0.021187
    34  S   -0.517405   0.011816
    35  C   -0.115438  -0.002556
    36  H    0.150613  -0.000854
    37  C    0.439548   0.008750
    38  O   -0.167138  -0.000426
    39  C    0.805733  -0.006474
    40  C   -0.234824  -0.000114
    41  C    0.019884   0.008545
    42  S   -0.244848  -0.000145
    43  H    0.174102   0.000001
    44  H    0.162154  -0.000059
    45  H    0.162576  -0.000064
    46  C   -0.586729  -0.003008
    47  O   -0.170545   0.000827
    48  C   -0.341055   0.008043
    49  H    0.158896   0.000147
    50  C   -0.249955  -0.000052
    51  H    0.185986  -0.000477
    52  H    0.157826   0.000133
    53  H    0.172310  -0.000006
    54  H    0.158543   0.000081
 Sum of Mulliken charges =  -1.00000   1.00000

 Dipole moment (field-independent basis, Debye):
    X=            -14.3837    Y=             -1.6721    Z=              0.9210  Tot=             14.5099
 Quadrupole moment (field-independent basis, Debye-Ang):
   XX=           -294.5903   YY=           -261.3058   ZZ=           -215.4150
   XY=            -10.1601   XZ=            -19.8703   YZ=             22.7080

 Normal termination of Gaussian 16 at Thu Oct 28 08:39:29 2021.
