 Gaussian 16, Revision C.01,
 Gaussian 16:  ES64L-G16RevC.01  3-Jul-2019

 ---------------------------------------------------------------
 # opt=modredundant b3lyp/6-311+g(d,p) scrf=(pcm, solvent=water)
 ---------------------------------------------------------------

 -----------
 NDI_120.pdb
 -----------
 Symbolic Z-matrix:
 Charge = -1 Multiplicity = 2

 SCF Done:  E(UB3LYP) =  -2359.49454332     A.U. after   22 cycles
 SCF Done:  E(UB3LYP) =  -2359.50159692     A.U. after   21 cycles
 SCF Done:  E(UB3LYP) =  -2359.50284170     A.U. after   17 cycles
 SCF Done:  E(UB3LYP) =  -2359.50361382     A.U. after   16 cycles
 SCF Done:  E(UB3LYP) =  -2359.50374078     A.U. after   15 cycles
 SCF Done:  E(UB3LYP) =  -2359.50380859     A.U. after   13 cycles
 SCF Done:  E(UB3LYP) =  -2359.50382639     A.U. after   13 cycles
 SCF Done:  E(UB3LYP) =  -2359.50384256     A.U. after   13 cycles
 SCF Done:  E(UB3LYP) =  -2359.50385469     A.U. after   13 cycles
 SCF Done:  E(UB3LYP) =  -2359.50386580     A.U. after   11 cycles
 SCF Done:  E(UB3LYP) =  -2359.50393497     A.U. after   10 cycles
 SCF Done:  E(UB3LYP) =  -2359.50393505     A.U. after   11 cycles
 SCF Done:  E(UB3LYP) =  -2359.50393521     A.U. after   10 cycles
 SCF Done:  E(UB3LYP) =  -2359.50393543     A.U. after   10 cycles
 SCF Done:  E(UB3LYP) =  -2359.50393554     A.U. after   11 cycles
 SCF Done:  E(UB3LYP) =  -2359.50393571     A.U. after    9 cycles
 SCF Done:  E(UB3LYP) =  -2359.50393591     A.U. after   10 cycles
 SCF Done:  E(UB3LYP) =  -2359.50393622     A.U. after   10 cycles
 SCF Done:  E(UB3LYP) =  -2359.50393663     A.U. after   11 cycles
 SCF Done:  E(UB3LYP) =  -2359.50393674     A.U. after   10 cycles
 Optimization completed.
    -- Stationary point found.

                         Standard orientation:
 ---------------------------------------------------------------------
 Center     Atomic      Atomic             Coordinates (Angstroms)
 Number     Number       Type             X           Y           Z
 ---------------------------------------------------------------------
      1          6           0        3.425101   -2.732917    0.395052
      2          6           0        2.729400   -1.484676    0.112068
      3          6           0        3.434417   -0.259513    0.125942
      4          6           0        4.817642   -0.221646    0.419732
      5          6           0        5.539647   -1.454798    0.713608
      6          6           0        1.349901   -1.491580   -0.138580
      7          6           0        2.729365    0.952998   -0.172444
      8          6           0        1.339034    0.915741   -0.477436
      9          6           0        0.638606   -0.327836   -0.412698
     10          6           0        0.697030    2.145976   -0.937806
     11          6           0        2.787644    3.427981   -0.478053
     12          6           0        3.454257    2.171451   -0.165490
     13          6           0        4.830491    2.180361    0.137976
     14          6           0        5.501826    1.009363    0.425317
     15          1           0        6.559593    1.018508    0.653947
     16          1           0        5.350914    3.129357    0.136943
     17          1           0        0.821267   -2.434182   -0.082565
     18          7           0        1.438767    3.338043   -0.835196
     19          7           0        4.794240   -2.645452    0.679397
     20          8           0        2.874311   -3.841228    0.395856
     21          8           0        6.747253   -1.481697    0.980236
     22          8           0        3.360699    4.525181   -0.452984
     23          8           0       -0.438627    2.205549   -1.418220
     24          6           0        0.741077    4.568839   -1.225792
     25          1           0        0.598600    4.602149   -2.308119
     26          1           0       -0.236139    4.598888   -0.747362
     27          1           0        1.346157    5.412838   -0.911685
     28          6           0        5.481208   -3.911373    0.961707
     29          1           0        5.033624   -4.392860    1.831875
     30          1           0        5.388471   -4.583202    0.107868
     31          1           0        6.526081   -3.691684    1.153062
     32          6           0       -0.825445   -0.474290   -0.560706
     33          6           0       -1.498351   -1.201652   -1.506061
     34         16           0       -1.922897    0.162133    0.638318
     35          6           0       -2.906689   -1.222106   -1.296435
     36          1           0       -0.998978   -1.685625   -2.333027
     37          6           0       -3.329020   -0.529601   -0.171754
     38          8           0       -3.824036   -1.846961   -2.087626
     39          6           0       -4.674901   -0.365361    0.324576
     40          6           0       -3.350067   -2.542410   -3.244966
     41          6           0       -5.096925    0.316636    1.458095
     42         16           0       -6.079128   -1.049719   -0.492934
     43          1           0       -4.233764   -2.958036   -3.725039
     44          1           0       -2.847026   -1.858722   -3.934396
     45          1           0       -2.671322   -3.352783   -2.965023
     46          6           0       -6.507379    0.294479    1.665357
     47          8           0       -4.178768    0.929088    2.257726
     48          6           0       -7.161873   -0.405164    0.692084
     49          1           0       -7.010389    0.772194    2.493521
     50          6           0       -4.656141    1.637160    3.405730
     51          1           0       -8.222425   -0.582526    0.599838
     52          1           0       -5.170811    0.963235    4.096297
     53          1           0       -3.772909    2.048481    3.890272
     54          1           0       -5.325364    2.451380    3.114009
 ---------------------------------------------------------------------

 The electronic state is 2-A.
 Alpha  occ. eigenvalues --  -88.87939 -88.87419 -19.16254 -19.16237 -19.09908
 Alpha  occ. eigenvalues --  -19.09892 -19.09706 -19.09615 -14.36727 -14.36492
 Alpha  occ. eigenvalues --  -10.28357 -10.28178 -10.28157 -10.28107 -10.23948
 Alpha  occ. eigenvalues --  -10.23846 -10.22466 -10.22442 -10.21259 -10.21095
 Alpha  occ. eigenvalues --  -10.21006 -10.20475 -10.20449 -10.20257 -10.20154
 Alpha  occ. eigenvalues --  -10.19737 -10.19632 -10.19540 -10.18948 -10.18913
 Alpha  occ. eigenvalues --  -10.18891 -10.18479 -10.18258 -10.18233 -10.18171
 Alpha  occ. eigenvalues --  -10.17794  -7.96502  -7.95988  -5.92810  -5.92426
 Alpha  occ. eigenvalues --   -5.92312  -5.92072  -5.91927  -5.91526  -1.07586
 Alpha  occ. eigenvalues --   -1.07496  -1.05841  -1.05753  -1.03783  -1.03669
 Alpha  occ. eigenvalues --   -0.93930  -0.93688  -0.89920  -0.89172  -0.87748
 Alpha  occ. eigenvalues --   -0.84175  -0.81885  -0.78765  -0.76320  -0.75911
 Alpha  occ. eigenvalues --   -0.75310  -0.74310  -0.73446  -0.72201  -0.70775
 Alpha  occ. eigenvalues --   -0.70107  -0.69409  -0.67515  -0.65113  -0.64076
 Alpha  occ. eigenvalues --   -0.63153  -0.62639  -0.59759  -0.58548  -0.56667
 Alpha  occ. eigenvalues --   -0.55707  -0.55290  -0.54984  -0.53912  -0.52973
 Alpha  occ. eigenvalues --   -0.51651  -0.49471  -0.48967  -0.48269  -0.47910
 Alpha  occ. eigenvalues --   -0.47774  -0.47676  -0.47363  -0.47278  -0.46977
 Alpha  occ. eigenvalues --   -0.46570  -0.45127  -0.45056  -0.44704  -0.44536
 Alpha  occ. eigenvalues --   -0.43897  -0.43236  -0.42966  -0.42509  -0.42111
 Alpha  occ. eigenvalues --   -0.41299  -0.40923  -0.40801  -0.40442  -0.40376
 Alpha  occ. eigenvalues --   -0.40202  -0.39876  -0.39633  -0.39163  -0.38443
 Alpha  occ. eigenvalues --   -0.38008  -0.37477  -0.37278  -0.36888  -0.35557
 Alpha  occ. eigenvalues --   -0.34854  -0.34102  -0.33521  -0.33142  -0.33029
 Alpha  occ. eigenvalues --   -0.32524  -0.30053  -0.29245  -0.28757  -0.28137
 Alpha  occ. eigenvalues --   -0.27862  -0.27400  -0.26841  -0.26494  -0.26205
 Alpha  occ. eigenvalues --   -0.24549  -0.24271  -0.24028  -0.18860  -0.15574
 Alpha virt. eigenvalues --   -0.05920  -0.04982  -0.03478  -0.02824  -0.00313
 Alpha virt. eigenvalues --   -0.00092   0.00346   0.00760   0.00862   0.01290
 Alpha virt. eigenvalues --    0.01516   0.02313   0.02414   0.02442   0.02570

  Beta  occ. eigenvalues --  -88.87939 -88.87413 -19.16251 -19.16238 -19.09714
  Beta  occ. eigenvalues --  -19.09690 -19.09520 -19.09404 -14.36783 -14.36546
  Beta  occ. eigenvalues --  -10.28296 -10.28118 -10.28103 -10.28050 -10.23942
  Beta  occ. eigenvalues --  -10.23850 -10.22466 -10.22442 -10.21262 -10.21111
  Beta  occ. eigenvalues --  -10.20991 -10.20530 -10.20346 -10.20312 -10.20148
  Beta  occ. eigenvalues --  -10.19736 -10.19631 -10.19366 -10.18793 -10.18743
  Beta  occ. eigenvalues --  -10.18731 -10.18411 -10.18260 -10.18147 -10.18087
  Beta  occ. eigenvalues --  -10.17777  -7.96502  -7.95982  -5.92810  -5.92426
  Beta  occ. eigenvalues --   -5.92303  -5.92072  -5.91920  -5.91518  -1.07581
  Beta  occ. eigenvalues --   -1.07496  -1.05589  -1.05502  -1.03440  -1.03329
  Beta  occ. eigenvalues --   -0.93809  -0.93573  -0.89810  -0.89106  -0.87711
  Beta  occ. eigenvalues --   -0.83854  -0.81577  -0.78632  -0.76218  -0.75555
  Beta  occ. eigenvalues --   -0.75162  -0.74283  -0.73374  -0.72150  -0.70733
  Beta  occ. eigenvalues --   -0.69787  -0.69286  -0.67415  -0.64960  -0.63877
  Beta  occ. eigenvalues --   -0.63053  -0.62464  -0.59714  -0.58491  -0.56587
  Beta  occ. eigenvalues --   -0.55570  -0.55282  -0.54868  -0.53904  -0.52833
  Beta  occ. eigenvalues --   -0.51528  -0.49297  -0.48909  -0.47990  -0.47714
  Beta  occ. eigenvalues --   -0.47690  -0.47617  -0.47356  -0.47201  -0.46859
  Beta  occ. eigenvalues --   -0.46529  -0.45062  -0.44965  -0.44617  -0.44442
  Beta  occ. eigenvalues --   -0.43787  -0.43068  -0.42772  -0.42371  -0.41852
  Beta  occ. eigenvalues --   -0.41252  -0.40898  -0.40732  -0.40150  -0.39943
  Beta  occ. eigenvalues --   -0.39834  -0.39443  -0.39113  -0.38784  -0.38325
  Beta  occ. eigenvalues --   -0.37930  -0.37256  -0.37071  -0.36778  -0.35548
  Beta  occ. eigenvalues --   -0.34766  -0.33840  -0.33406  -0.33105  -0.32999
  Beta  occ. eigenvalues --   -0.31936  -0.29124  -0.28961  -0.28554  -0.27720
  Beta  occ. eigenvalues --   -0.27500  -0.27084  -0.26633  -0.26031  -0.25855
  Beta  occ. eigenvalues --   -0.24476  -0.23994  -0.22754  -0.18757
  Beta virt. eigenvalues --   -0.11045  -0.05107  -0.04449  -0.02721  -0.02256
  Beta virt. eigenvalues --   -0.00297  -0.00037   0.00356   0.00771   0.00882
  Beta virt. eigenvalues --    0.01299   0.01531   0.02359   0.02564   0.02872

 Mulliken charges and spin densities:
               1          2
     1  C    0.431477   0.026366
     2  C   -0.115539   0.122799
     3  C    0.112546  -0.039792
     4  C    0.244385   0.109529
     5  C    0.291724   0.025530
     6  C   -0.567453   0.054794
     7  C    0.160800  -0.035321
     8  C    0.004653   0.131747
     9  C    0.315399   0.066119
    10  C   -0.230897   0.024473
    11  C    0.341248   0.026380
    12  C    0.175192   0.111483
    13  C   -0.518669   0.060769
    14  C   -0.673083   0.064044
    15  H    0.144590  -0.004581
    16  H    0.145218  -0.004275
    17  H    0.141863  -0.003358
    18  N   -0.083267  -0.022374
    19  N   -0.134858  -0.023430
    20  O   -0.429372   0.075145
    21  O   -0.419632   0.072450
    22  O   -0.425967   0.069546
    23  O   -0.328725   0.078563
    24  C   -0.194264   0.001299
    25  H    0.177456  -0.001185
    26  H    0.173015  -0.000698
    27  H    0.174830  -0.000383
    28  C   -0.209050   0.001304
    29  H    0.172519  -0.001011
    30  H    0.171698  -0.000980
    31  H    0.174815  -0.000343
    32  C    0.254818  -0.025200
    33  C   -0.629754   0.023979
    34  S   -0.425209   0.012745
    35  C   -0.225668  -0.005627
    36  H    0.146293  -0.000498
    37  C    0.364690  -0.000351
    38  O   -0.153880  -0.000198
    39  C    0.888806   0.001189
    40  C   -0.257155   0.000325
    41  C    0.002402   0.005450
    42  S   -0.223615  -0.000002
    43  H    0.174307  -0.000004
    44  H    0.162542  -0.000015
    45  H    0.162717  -0.000023
    46  C   -0.533969  -0.000888
    47  O   -0.173048   0.000273
    48  C   -0.340653   0.004337
    49  H    0.158875   0.000079
    50  C   -0.248872  -0.000039
    51  H    0.185921  -0.000256
    52  H    0.157448   0.000079
    53  H    0.172013  -0.000002
    54  H    0.158341   0.000041
 Sum of Mulliken charges =  -1.00000   1.00000

 Dipole moment (field-independent basis, Debye):
    X=            -14.2291    Y=             -1.5483    Z=              0.6600  Tot=             14.3283
 Quadrupole moment (field-independent basis, Debye-Ang):
   XX=           -296.3766   YY=           -266.3745   ZZ=           -209.4721
   XY=             -8.4960   XZ=            -19.3675   YZ=             20.8556

 Normal termination of Gaussian 16 at Thu Oct 28 07:48:31 2021.
