 Gaussian 16, Revision C.01,
 Gaussian 16:  ES64L-G16RevC.01  3-Jul-2019

 ---------------------------------------------------------------
 # opt=modredundant b3lyp/6-311+g(d,p) scrf=(pcm, solvent=water)
 ---------------------------------------------------------------

 -----------
 NDI_105.pdb
 -----------
 Symbolic Z-matrix:
 Charge = -1 Multiplicity = 2

 SCF Done:  E(UB3LYP) =  -2359.49569344     A.U. after   21 cycles
 SCF Done:  E(UB3LYP) =  -2359.50226685     A.U. after   18 cycles
 SCF Done:  E(UB3LYP) =  -2359.50335432     A.U. after   18 cycles
 SCF Done:  E(UB3LYP) =  -2359.50343326     A.U. after   16 cycles
 SCF Done:  E(UB3LYP) =  -2359.50354008     A.U. after   14 cycles
 SCF Done:  E(UB3LYP) =  -2359.50355148     A.U. after   14 cycles
 SCF Done:  E(UB3LYP) =  -2359.50356449     A.U. after   12 cycles
 SCF Done:  E(UB3LYP) =  -2359.50357164     A.U. after   11 cycles
 SCF Done:  E(UB3LYP) =  -2359.50357644     A.U. after   11 cycles
 SCF Done:  E(UB3LYP) =  -2359.50358207     A.U. after   11 cycles
 SCF Done:  E(UB3LYP) =  -2359.50358560     A.U. after   11 cycles
 SCF Done:  E(UB3LYP) =  -2359.50358790     A.U. after   10 cycles
 SCF Done:  E(UB3LYP) =  -2359.50358831     A.U. after   11 cycles
 SCF Done:  E(UB3LYP) =  -2359.50358907     A.U. after   10 cycles
 SCF Done:  E(UB3LYP) =  -2359.50358976     A.U. after    9 cycles
 SCF Done:  E(UB3LYP) =  -2359.50359037     A.U. after    9 cycles
 SCF Done:  E(UB3LYP) =  -2359.50359068     A.U. after    9 cycles
 SCF Done:  E(UB3LYP) =  -2359.50359073     A.U. after    9 cycles
 SCF Done:  E(UB3LYP) =  -2359.50359068     A.U. after    8 cycles
 Optimization completed.
    -- Stationary point found.

                         Standard orientation:
 ---------------------------------------------------------------------
 Center     Atomic      Atomic             Coordinates (Angstroms)
 Number     Number       Type             X           Y           Z
 ---------------------------------------------------------------------
      1          6           0        3.325923   -2.801476    0.144621
      2          6           0        2.677633   -1.505805   -0.004729
      3          6           0        3.434308   -0.316683    0.094255
      4          6           0        4.827021   -0.362049    0.341149
      5          6           0        5.503363   -1.644775    0.499513
      6          6           0        1.295580   -1.434916   -0.233126
      7          6           0        2.772678    0.945806   -0.064719
      8          6           0        1.372013    0.993278   -0.317324
      9          6           0        0.629276   -0.224421   -0.382093
     10          6           0        0.747324    2.295123   -0.548703
     11          6           0        2.928638    3.435289   -0.130544
     12          6           0        3.549397    2.128118    0.030817
     13          6           0        4.934461    2.053193    0.280129
     14          6           0        5.563737    0.834588    0.432670
     15          1           0        6.627958    0.780108    0.621556
     16          1           0        5.494682    2.976749    0.347594
     17          1           0        0.733375   -2.358533   -0.279358
     18          7           0        1.557741    3.436997   -0.406923
     19          7           0        4.705272   -2.796025    0.389370
     20          8           0        2.727158   -3.881777    0.067155
     21          8           0        6.716716   -1.744795    0.719317
     22          8           0        3.555876    4.498915   -0.040512
     23          8           0       -0.435260    2.457843   -0.863032
     24          6           0        0.888506    4.727531   -0.610115
     25          1           0        0.532313    4.810415   -1.638097
     26          1           0        0.032619    4.809272    0.059431
     27          1           0        1.606506    5.513568   -0.402006
     28          6           0        5.342960   -4.109510    0.537869
     29          1           0        4.889624   -4.651761    1.368259
     30          1           0        5.207605   -4.694314   -0.372644
     31          1           0        6.399300   -3.951264    0.726620
     32          6           0       -0.837831   -0.302106   -0.586037
     33          6           0       -1.507573   -0.659114   -1.723341
     34         16           0       -1.939144   -0.067272    0.745781
     35          6           0       -2.920527   -0.711896   -1.544135
     36          1           0       -1.004384   -0.855822   -2.659036
     37          6           0       -3.347080   -0.417582   -0.258727
     38          8           0       -3.837077   -1.024238   -2.503869
     39          6           0       -4.697369   -0.394954    0.253414
     40          6           0       -3.360595   -1.292914   -3.826127
     41          6           0       -5.122316   -0.126761    1.547429
     42         16           0       -6.102910   -0.721278   -0.759471
     43          1           0       -4.245199   -1.502149   -4.424370
     44          1           0       -2.837432   -0.425531   -4.238136
     45          1           0       -2.699483   -2.163919   -3.835726
     46          6           0       -6.536305   -0.179427    1.723796
     47          8           0       -4.203179    0.153124    2.514643
     48          6           0       -7.190598   -0.487922    0.565449
     49          1           0       -7.042064    0.001185    2.661189
     50          6           0       -4.682052    0.433359    3.833347
     51          1           0       -8.253238   -0.594844    0.410288
     52          1           0       -5.222391   -0.423718    4.245036
     53          1           0       -3.797312    0.628315    4.436135
     54          1           0       -5.328013    1.315821    3.837121
 ---------------------------------------------------------------------

 The electronic state is 2-A.
 Alpha  occ. eigenvalues --  -88.87912 -88.87428 -19.16218 -19.16210 -19.09901
 Alpha  occ. eigenvalues --  -19.09884 -19.09718 -19.09594 -14.36726 -14.36519
 Alpha  occ. eigenvalues --  -10.28353 -10.28168 -10.28152 -10.28130 -10.23893
 Alpha  occ. eigenvalues --  -10.23805 -10.22452 -10.22431 -10.21226 -10.21048
 Alpha  occ. eigenvalues --  -10.20903 -10.20500 -10.20439 -10.20290 -10.20112
 Alpha  occ. eigenvalues --  -10.19735 -10.19632 -10.19614 -10.18951 -10.18915
 Alpha  occ. eigenvalues --  -10.18913 -10.18465 -10.18248 -10.18236 -10.18182
 Alpha  occ. eigenvalues --  -10.17704  -7.96475  -7.95994  -5.92782  -5.92399
 Alpha  occ. eigenvalues --   -5.92317  -5.92045  -5.91932  -5.91535  -1.07543
 Alpha  occ. eigenvalues --   -1.07459  -1.05838  -1.05765  -1.03776  -1.03683
 Alpha  occ. eigenvalues --   -0.93932  -0.93692  -0.89906  -0.89155  -0.87716
 Alpha  occ. eigenvalues --   -0.84179  -0.81900  -0.78717  -0.76315  -0.75900
 Alpha  occ. eigenvalues --   -0.75300  -0.74276  -0.73453  -0.72155  -0.70767
 Alpha  occ. eigenvalues --   -0.70147  -0.69361  -0.67490  -0.65127  -0.64082
 Alpha  occ. eigenvalues --   -0.63140  -0.62650  -0.59743  -0.58521  -0.56671
 Alpha  occ. eigenvalues --   -0.55684  -0.55257  -0.54976  -0.53873  -0.53004
 Alpha  occ. eigenvalues --   -0.51610  -0.49496  -0.48974  -0.48264  -0.47912
 Alpha  occ. eigenvalues --   -0.47777  -0.47659  -0.47343  -0.47249  -0.46976
 Alpha  occ. eigenvalues --   -0.46573  -0.45110  -0.45011  -0.44736  -0.44504
 Alpha  occ. eigenvalues --   -0.43948  -0.43242  -0.42910  -0.42523  -0.42135
 Alpha  occ. eigenvalues --   -0.41264  -0.40879  -0.40784  -0.40408  -0.40402
 Alpha  occ. eigenvalues --   -0.40244  -0.39844  -0.39679  -0.39149  -0.38336
 Alpha  occ. eigenvalues --   -0.38008  -0.37448  -0.37348  -0.36877  -0.35533
 Alpha  occ. eigenvalues --   -0.34833  -0.33869  -0.33562  -0.33115  -0.32962
 Alpha  occ. eigenvalues --   -0.32628  -0.30078  -0.29201  -0.28687  -0.28192
 Alpha  occ. eigenvalues --   -0.27776  -0.27450  -0.26806  -0.26591  -0.26138
 Alpha  occ. eigenvalues --   -0.24477  -0.24317  -0.24060  -0.18789  -0.15628
 Alpha virt. eigenvalues --   -0.05828  -0.04754  -0.03652  -0.02916  -0.00307
 Alpha virt. eigenvalues --   -0.00107   0.00328   0.00791   0.00945   0.01185
 Alpha virt. eigenvalues --    0.01488   0.02323   0.02365   0.02472   0.02569

  Beta  occ. eigenvalues --  -88.87912 -88.87422 -19.16217 -19.16210 -19.09704
  Beta  occ. eigenvalues --  -19.09681 -19.09529 -19.09376 -14.36783 -14.36574
  Beta  occ. eigenvalues --  -10.28291 -10.28108 -10.28099 -10.28072 -10.23893
  Beta  occ. eigenvalues --  -10.23804 -10.22452 -10.22431 -10.21225 -10.21057
  Beta  occ. eigenvalues --  -10.20901 -10.20556 -10.20345 -10.20336 -10.20111
  Beta  occ. eigenvalues --  -10.19735 -10.19613 -10.19455 -10.18794 -10.18750
  Beta  occ. eigenvalues --  -10.18745 -10.18396 -10.18236 -10.18160 -10.18098
  Beta  occ. eigenvalues --  -10.17695  -7.96474  -7.95989  -5.92782  -5.92398
  Beta  occ. eigenvalues --   -5.92308  -5.92045  -5.91924  -5.91529  -1.07542
  Beta  occ. eigenvalues --   -1.07458  -1.05584  -1.05508  -1.03430  -1.03335
  Beta  occ. eigenvalues --   -0.93809  -0.93575  -0.89791  -0.89095  -0.87680
  Beta  occ. eigenvalues --   -0.83856  -0.81589  -0.78585  -0.76212  -0.75530
  Beta  occ. eigenvalues --   -0.75161  -0.74254  -0.73381  -0.72113  -0.70725
  Beta  occ. eigenvalues --   -0.69814  -0.69242  -0.67393  -0.64973  -0.63880
  Beta  occ. eigenvalues --   -0.63046  -0.62467  -0.59703  -0.58467  -0.56588
  Beta  occ. eigenvalues --   -0.55548  -0.55252  -0.54862  -0.53868  -0.52860
  Beta  occ. eigenvalues --   -0.51485  -0.49323  -0.48913  -0.47983  -0.47716
  Beta  occ. eigenvalues --   -0.47671  -0.47618  -0.47338  -0.47177  -0.46857
  Beta  occ. eigenvalues --   -0.46535  -0.45047  -0.44889  -0.44687  -0.44402
  Beta  occ. eigenvalues --   -0.43838  -0.43072  -0.42724  -0.42374  -0.41871
  Beta  occ. eigenvalues --   -0.41218  -0.40866  -0.40709  -0.40143  -0.39955
  Beta  occ. eigenvalues --   -0.39807  -0.39478  -0.39105  -0.38783  -0.38219
  Beta  occ. eigenvalues --   -0.37954  -0.37225  -0.37112  -0.36784  -0.35525
  Beta  occ. eigenvalues --   -0.34749  -0.33672  -0.33410  -0.33073  -0.32920
  Beta  occ. eigenvalues --   -0.32020  -0.29065  -0.28995  -0.28530  -0.27652
  Beta  occ. eigenvalues --   -0.27517  -0.27123  -0.26609  -0.25963  -0.25910
  Beta  occ. eigenvalues --   -0.24437  -0.24030  -0.22770  -0.18761
  Beta virt. eigenvalues --   -0.11022  -0.04787  -0.04533  -0.02883  -0.02259
  Beta virt. eigenvalues --   -0.00289  -0.00091   0.00336   0.00800   0.00958
  Beta virt. eigenvalues --    0.01195   0.01497   0.02372   0.02540   0.02871

 Mulliken charges and spin densities:
               1          2
     1  C    0.432310   0.025385
     2  C    0.018115   0.126317
     3  C    0.213196  -0.039508
     4  C    0.170036   0.110370
     5  C    0.292749   0.026341
     6  C   -0.525120   0.052814
     7  C    0.210934  -0.035224
     8  C   -0.127537   0.131492
     9  C    0.344507   0.071883
    10  C   -0.316733   0.024324
    11  C    0.243655   0.025981
    12  C    0.166982   0.112541
    13  C   -0.530116   0.059636
    14  C   -0.652973   0.065750
    15  H    0.144414  -0.004655
    16  H    0.144823  -0.004333
    17  H    0.138521  -0.003595
    18  N   -0.137631  -0.022761
    19  N   -0.136758  -0.023504
    20  O   -0.428475   0.075550
    21  O   -0.419867   0.073152
    22  O   -0.421790   0.070635
    23  O   -0.296636   0.081445
    24  C   -0.217364   0.001289
    25  H    0.173783  -0.001065
    26  H    0.172996  -0.000896
    27  H    0.174791  -0.000349
    28  C   -0.209012   0.001382
    29  H    0.171847  -0.000999
    30  H    0.172005  -0.001007
    31  H    0.174145  -0.000348
    32  C    0.122130  -0.022106
    33  C   -0.358058   0.007477
    34  S   -0.263099   0.011142
    35  C   -0.141971   0.005955
    36  H    0.140128   0.000068
    37  C    0.233946  -0.000680
    38  O   -0.168887   0.000009
    39  C    0.746626  -0.001062
    40  C   -0.236078  -0.000182
    41  C    0.031768   0.000791
    42  S   -0.253598   0.000098
    43  H    0.173770  -0.000004
    44  H    0.163355   0.000026
    45  H    0.161231  -0.000022
    46  C   -0.532936  -0.000197
    47  O   -0.177610  -0.000139
    48  C   -0.364765   0.000693
    49  H    0.158372   0.000011
    50  C   -0.246690   0.000088
    51  H    0.185272  -0.000030
    52  H    0.157165   0.000020
    53  H    0.171705  -0.000001
    54  H    0.158427   0.000003
 Sum of Mulliken charges =  -1.00000   1.00000

 Dipole moment (field-independent basis, Debye):
    X=            -14.0274    Y=             -1.4028    Z=              0.0917  Tot=             14.0977
 Quadrupole moment (field-independent basis, Debye-Ang):
   XX=           -298.7335   YY=           -274.8291   ZZ=           -199.7233
   XY=             -3.8580   XZ=            -18.8464   YZ=              8.9059

 Normal termination of Gaussian 16 at Thu Oct 28 06:32:12 2021.
