 Gaussian 16, Revision C.01,
 Gaussian 16:  ES64L-G16RevC.01  3-Jul-2019

 ---------------------------------------------------------------
 # opt=modredundant b3lyp/6-311+g(d,p) scrf=(pcm, solvent=water)
 ---------------------------------------------------------------

 ---------
 NDI_0.pdb
 ---------
 Symbolic Z-matrix:
 Charge = -1 Multiplicity = 2

 SCF Done:  E(UB3LYP) =  -2359.47615070     A.U. after   21 cycles
 SCF Done:  E(UB3LYP) =  -2359.47443440     A.U. after   22 cycles
 SCF Done:  E(UB3LYP) =  -2359.49175135     A.U. after   18 cycles
 SCF Done:  E(UB3LYP) =  -2359.49468175     A.U. after   20 cycles
 SCF Done:  E(UB3LYP) =  -2359.49592895     A.U. after   20 cycles
 SCF Done:  E(UB3LYP) =  -2359.49711771     A.U. after   21 cycles
 SCF Done:  E(UB3LYP) =  -2359.49756555     A.U. after   20 cycles
 SCF Done:  E(UB3LYP) =  -2359.49792855     A.U. after   20 cycles
 SCF Done:  E(UB3LYP) =  -2359.49810844     A.U. after   15 cycles
 SCF Done:  E(UB3LYP) =  -2359.49817615     A.U. after   17 cycles
 SCF Done:  E(UB3LYP) =  -2359.49835153     A.U. after    9 cycles
 SCF Done:  E(UB3LYP) =  -2359.49835275     A.U. after   11 cycles
 SCF Done:  E(UB3LYP) =  -2359.49835351     A.U. after   10 cycles
 SCF Done:  E(UB3LYP) =  -2359.49835400     A.U. after    9 cycles
 SCF Done:  E(UB3LYP) =  -2359.49835417     A.U. after    9 cycles
 SCF Done:  E(UB3LYP) =  -2359.49835423     A.U. after    8 cycles
 SCF Done:  E(UB3LYP) =  -2359.49835424     A.U. after    8 cycles
 SCF Done:  E(UB3LYP) =  -2359.49835424     A.U. after    7 cycles
 SCF Done:  E(UB3LYP) =  -2359.49835425     A.U. after    7 cycles
 SCF Done:  E(UB3LYP) =  -2359.49835425     A.U. after    7 cycles
 Optimization completed.
    -- Stationary point found.

                         Standard orientation:
 ---------------------------------------------------------------------
 Center     Atomic      Atomic             Coordinates (Angstroms)
 Number     Number       Type             X           Y           Z
 ---------------------------------------------------------------------
      1          6           0       -2.528076   -3.022765    0.156907
      2          6           0       -2.244994   -1.592250    0.163965
      3          6           0       -3.285811   -0.658646   -0.046140
      4          6           0       -4.607025   -1.090437   -0.287125
      5          6           0       -4.919385   -2.517455   -0.316784
      6          6           0       -0.931819   -1.147935    0.299309
      7          6           0       -2.970065    0.737936    0.009311
      8          6           0       -1.635471    1.174317    0.269854
      9          6           0       -0.561116    0.203455    0.313390
     10          6           0       -1.474042    2.574827    0.644942
     11          6           0       -3.792186    3.090697   -0.103351
     12          6           0       -4.033931    1.658517   -0.182737
     13          6           0       -5.341881    1.202207   -0.443220
     14          6           0       -5.630658   -0.145352   -0.493951
     15          1           0       -6.637615   -0.493246   -0.683608
     16          1           0       -6.119532    1.939954   -0.593433
     17          1           0       -0.174300   -1.919584    0.343471
     18          7           0       -2.511924    3.465805    0.301552
     19          7           0       -3.854108   -3.403525   -0.083483
     20          8           0       -1.669938   -3.893200    0.345310
     21          8           0       -6.056805   -2.951748   -0.529075
     22          8           0       -4.656727    3.946591   -0.338299
     23          8           0       -0.507896    3.033842    1.266737
     24          6           0       -2.258264    4.891664    0.538851
     25          1           0       -2.383287    5.138931    1.596007
     26          1           0       -1.238212    5.127714    0.245381
     27          1           0       -2.969147    5.463199   -0.049667
     28          6           0       -4.124853   -4.846156   -0.092224
     29          1           0       -3.536327   -5.331430   -0.871629
     30          1           0       -3.852278   -5.281151    0.869734
     31          1           0       -5.183406   -4.988843   -0.280859
     32          6           0        0.869293    0.488593    0.146073
     33          6           0        1.550120    1.667597   -0.082550
     34         16           0        2.030885   -0.843587    0.245013
     35          6           0        2.949459    1.510895   -0.209825
     36          1           0        1.058681    2.620986   -0.149720
     37          6           0        3.405784    0.207715   -0.053356
     38          8           0        3.845074    2.506725   -0.456249
     39          6           0        4.758372   -0.278956   -0.118210
     40          6           0        3.343604    3.835481   -0.635360
     41          6           0        5.213991   -1.583623    0.042412
     42         16           0        6.134688    0.778786   -0.432488
     43          1           0        4.215283    4.458368   -0.825642
     44          1           0        2.663922    3.885014   -1.490384
     45          1           0        2.832606    4.186014    0.265364
     46          6           0        6.625480   -1.729992   -0.082832
     47          8           0        4.324264   -2.580961    0.295325
     48          6           0        7.247466   -0.540789   -0.338544
     49          1           0        7.153254   -2.667746    0.011507
     50          6           0        4.832258   -3.909023    0.462914
     51          1           0        8.302408   -0.360720   -0.478365
     52          1           0        5.517339   -3.961343    1.313467
     53          1           0        3.964539   -4.536601    0.655138
     54          1           0        5.337855   -4.251786   -0.443936
 ---------------------------------------------------------------------

 The electronic state is 2-A.
 Alpha  occ. eigenvalues --  -88.88124 -88.87587 -19.16511 -19.16349 -19.10068
 Alpha  occ. eigenvalues --  -19.10020 -19.09534 -19.09484 -14.36807 -14.36352
 Alpha  occ. eigenvalues --  -10.28510 -10.28303 -10.28075 -10.27883 -10.24317
 Alpha  occ. eigenvalues --  -10.23986 -10.22565 -10.22465 -10.21549 -10.21478
 Alpha  occ. eigenvalues --  -10.21443 -10.20996 -10.20459 -10.20432 -10.20043
 Alpha  occ. eigenvalues --  -10.19786 -10.19653 -10.19368 -10.18981 -10.18899
 Alpha  occ. eigenvalues --  -10.18729 -10.18641 -10.18417 -10.18134 -10.18026
 Alpha  occ. eigenvalues --  -10.17627  -7.96686  -7.96172  -5.92994  -5.92609
 Alpha  occ. eigenvalues --   -5.92493  -5.92255  -5.92106  -5.91718  -1.07867
 Alpha  occ. eigenvalues --   -1.07661  -1.05993  -1.05644  -1.03953  -1.03507
 Alpha  occ. eigenvalues --   -0.94034  -0.93598  -0.89979  -0.89267  -0.87867
 Alpha  occ. eigenvalues --   -0.84149  -0.81813  -0.78897  -0.76683  -0.75845
 Alpha  occ. eigenvalues --   -0.75399  -0.74424  -0.73433  -0.72365  -0.70741
 Alpha  occ. eigenvalues --   -0.70412  -0.69375  -0.67540  -0.65183  -0.64011
 Alpha  occ. eigenvalues --   -0.63353  -0.62551  -0.59938  -0.58728  -0.56683
 Alpha  occ. eigenvalues --   -0.55771  -0.55443  -0.55063  -0.54093  -0.53218
 Alpha  occ. eigenvalues --   -0.51607  -0.49559  -0.49004  -0.48275  -0.47892
 Alpha  occ. eigenvalues --   -0.47859  -0.47756  -0.47479  -0.47207  -0.47121
 Alpha  occ. eigenvalues --   -0.46581  -0.45305  -0.45187  -0.44695  -0.44383
 Alpha  occ. eigenvalues --   -0.43921  -0.43092  -0.42954  -0.42376  -0.41796
 Alpha  occ. eigenvalues --   -0.41448  -0.41338  -0.41110  -0.40566  -0.40314
 Alpha  occ. eigenvalues --   -0.40245  -0.39907  -0.39469  -0.39170  -0.38820
 Alpha  occ. eigenvalues --   -0.38044  -0.37694  -0.37132  -0.36592  -0.35775
 Alpha  occ. eigenvalues --   -0.35173  -0.34861  -0.33687  -0.33438  -0.32613
 Alpha  occ. eigenvalues --   -0.32324  -0.30160  -0.29452  -0.29030  -0.28188
 Alpha  occ. eigenvalues --   -0.28017  -0.27184  -0.26988  -0.26381  -0.26154
 Alpha  occ. eigenvalues --   -0.24845  -0.24350  -0.23782  -0.19190  -0.15310
 Alpha virt. eigenvalues --   -0.07080  -0.05413  -0.03244  -0.02364  -0.00313
 Alpha virt. eigenvalues --    0.00420   0.00577   0.00675   0.00919   0.01471
 Alpha virt. eigenvalues --    0.01792   0.02201   0.02310   0.02646   0.02805

  Beta  occ. eigenvalues --  -88.88123 -88.87573 -19.16491 -19.16355 -19.09891
  Beta  occ. eigenvalues --  -19.09832 -19.09363 -19.09292 -14.36858 -14.36404
  Beta  occ. eigenvalues --  -10.28453 -10.28247 -10.28015 -10.27829 -10.24276
  Beta  occ. eigenvalues --  -10.24012 -10.22565 -10.22464 -10.21516 -10.21499
  Beta  occ. eigenvalues --  -10.21448 -10.20859 -10.20504 -10.20393 -10.20101
  Beta  occ. eigenvalues --  -10.19785 -10.19652 -10.19221 -10.18841 -10.18738
  Beta  occ. eigenvalues --  -10.18593 -10.18586 -10.18431 -10.18060 -10.17948
  Beta  occ. eigenvalues --  -10.17566  -7.96685  -7.96159  -5.92994  -5.92609
  Beta  occ. eigenvalues --   -5.92486  -5.92252  -5.92099  -5.91675  -1.07827
  Beta  occ. eigenvalues --   -1.07670  -1.05759  -1.05412  -1.03637  -1.03195
  Beta  occ. eigenvalues --   -0.93925  -0.93491  -0.89879  -0.89169  -0.87809
  Beta  occ. eigenvalues --   -0.83841  -0.81533  -0.78751  -0.76562  -0.75546
  Beta  occ. eigenvalues --   -0.75232  -0.74375  -0.73369  -0.72296  -0.70694
  Beta  occ. eigenvalues --   -0.70138  -0.69234  -0.67420  -0.65026  -0.63828
  Beta  occ. eigenvalues --   -0.63257  -0.62369  -0.59882  -0.58666  -0.56597
  Beta  occ. eigenvalues --   -0.55675  -0.55395  -0.54958  -0.54063  -0.53069
  Beta  occ. eigenvalues --   -0.51508  -0.49421  -0.48881  -0.48020  -0.47815
  Beta  occ. eigenvalues --   -0.47776  -0.47601  -0.47462  -0.47138  -0.47005
  Beta  occ. eigenvalues --   -0.46526  -0.45231  -0.45106  -0.44611  -0.44260
  Beta  occ. eigenvalues --   -0.43829  -0.42927  -0.42782  -0.42129  -0.41695
  Beta  occ. eigenvalues --   -0.41324  -0.41212  -0.40999  -0.40345  -0.39933
  Beta  occ. eigenvalues --   -0.39871  -0.39614  -0.39140  -0.38814  -0.38545
  Beta  occ. eigenvalues --   -0.37881  -0.37557  -0.36842  -0.36535  -0.35736
  Beta  occ. eigenvalues --   -0.34993  -0.34647  -0.33550  -0.33414  -0.32507
  Beta  occ. eigenvalues --   -0.31879  -0.29512  -0.28978  -0.28631  -0.27957
  Beta  occ. eigenvalues --   -0.27530  -0.26888  -0.26783  -0.26152  -0.25769
  Beta  occ. eigenvalues --   -0.24465  -0.24159  -0.22673  -0.18669
  Beta virt. eigenvalues --   -0.11155  -0.06482  -0.04469  -0.02352  -0.02166
  Beta virt. eigenvalues --   -0.00300   0.00430   0.00583   0.00754   0.01146
  Beta virt. eigenvalues --    0.01483   0.01802   0.02279   0.02682   0.02894

 Mulliken charges and spin densities:
               1          2
     1  C    0.302046   0.024891
     2  C   -0.012923   0.116776
     3  C    0.219413  -0.038217
     4  C    0.173049   0.095891
     5  C    0.272004   0.025598
     6  C    0.065676   0.029481
     7  C    0.156522  -0.022537
     8  C    0.409200   0.106600
     9  C    0.121156   0.075427
    10  C   -0.831579   0.016294
    11  C    0.272454   0.027657
    12  C    0.113342   0.088574
    13  C   -0.509498   0.058074
    14  C   -0.590289   0.062674
    15  H    0.143768  -0.004055
    16  H    0.145088  -0.003904
    17  H    0.146291  -0.001225
    18  N    0.007261  -0.021472
    19  N   -0.128670  -0.021466
    20  O   -0.431416   0.069684
    21  O   -0.413709   0.065826
    22  O   -0.435389   0.063939
    23  O   -0.387465   0.071391
    24  C   -0.175375   0.001854
    25  H    0.176952  -0.001184
    26  H    0.171941  -0.000559
    27  H    0.172941  -0.000462
    28  C   -0.206771   0.001019
    29  H    0.173407  -0.000918
    30  H    0.171845  -0.000891
    31  H    0.173873  -0.000310
    32  C   -0.214401  -0.033667
    33  C   -0.002588   0.069725
    34  S   -0.650685   0.014119
    35  C   -0.591102  -0.014334
    36  H    0.170931  -0.002833
    37  C    0.550942   0.053440
    38  O   -0.161022  -0.000459
    39  C    0.891221  -0.016376
    40  C   -0.242889   0.000232
    41  C    0.013016   0.026730
    42  S   -0.201555  -0.000614
    43  H    0.176013  -0.000000
    44  H    0.159643  -0.000185
    45  H    0.161944  -0.000273
    46  C   -0.582497  -0.011093
    47  O   -0.163078   0.004267
    48  C   -0.366743   0.027590
    49  H    0.160127   0.000505
    50  C   -0.253258  -0.000329
    51  H    0.188367  -0.001661
    52  H    0.159318   0.000375
    53  H    0.173742  -0.000017
    54  H    0.159407   0.000412
 Sum of Mulliken charges =  -1.00000   1.00000

 Dipole moment (field-independent basis, Debye):
    X=             15.9026    Y=             -0.7110    Z=             -1.3206  Tot=             15.9732
 Quadrupole moment (field-independent basis, Debye-Ang):
   XX=           -291.0971   YY=           -243.9642   ZZ=           -233.0260
   XY=             -8.9481   XZ=             -8.5755   YZ=             -6.3208

 Normal termination of Gaussian 16 at Thu Oct 28 12:48:55 2021.
