 Gaussian 16, Revision C.01,
 Gaussian 16:  ES64L-G16RevC.01  3-Jul-2019

 ---------------------------------------------------------------
 # opt=modredundant b3lyp/6-311+g(d,p) scrf=(pcm, solvent=water)
 ---------------------------------------------------------------

 ----------
 NDI_60.pdb
 ----------
 Symbolic Z-matrix:
 Charge = -1 Multiplicity = 2

 SCF Done:  E(UB3LYP) =  -2359.49417160     A.U. after   22 cycles
 SCF Done:  E(UB3LYP) =  -2359.50088850     A.U. after   17 cycles
 SCF Done:  E(UB3LYP) =  -2359.50245350     A.U. after   19 cycles
 SCF Done:  E(UB3LYP) =  -2359.50282001     A.U. after   19 cycles
 SCF Done:  E(UB3LYP) =  -2359.50348068     A.U. after   16 cycles
 SCF Done:  E(UB3LYP) =  -2359.50358913     A.U. after   19 cycles
 SCF Done:  E(UB3LYP) =  -2359.50373637     A.U. after   13 cycles
 SCF Done:  E(UB3LYP) =  -2359.50375081     A.U. after   13 cycles
 SCF Done:  E(UB3LYP) =  -2359.50376654     A.U. after   15 cycles
 SCF Done:  E(UB3LYP) =  -2359.50377623     A.U. after   14 cycles
 SCF Done:  E(UB3LYP) =  -2359.50381878     A.U. after   13 cycles
 SCF Done:  E(UB3LYP) =  -2359.50382116     A.U. after   10 cycles
 SCF Done:  E(UB3LYP) =  -2359.50382472     A.U. after   11 cycles
 SCF Done:  E(UB3LYP) =  -2359.50382662     A.U. after   11 cycles
 SCF Done:  E(UB3LYP) =  -2359.50382881     A.U. after   13 cycles
 SCF Done:  E(UB3LYP) =  -2359.50382988     A.U. after   13 cycles
 SCF Done:  E(UB3LYP) =  -2359.50383050     A.U. after   10 cycles
 SCF Done:  E(UB3LYP) =  -2359.50383069     A.U. after    9 cycles
 SCF Done:  E(UB3LYP) =  -2359.50383072     A.U. after    8 cycles
 SCF Done:  E(UB3LYP) =  -2359.50383076     A.U. after    8 cycles
 Optimization completed.
    -- Stationary point found.

                         Standard orientation:
 ---------------------------------------------------------------------
 Center     Atomic      Atomic             Coordinates (Angstroms)
 Number     Number       Type             X           Y           Z
 ---------------------------------------------------------------------
      1          6           0       -2.918662   -2.900089    0.527815
      2          6           0       -2.453745   -1.540220    0.288791
      3          6           0       -3.384170   -0.501247    0.058261
      4          6           0       -4.774633   -0.759888    0.060162
      5          6           0       -5.270192   -2.110713    0.301985
      6          6           0       -1.083298   -1.251554    0.330748
      7          6           0       -2.898695    0.825667   -0.187234
      8          6           0       -1.498315    1.085705   -0.198544
      9          6           0       -0.586310    0.032408    0.123746
     10          6           0       -1.044525    2.408364   -0.628609
     11          6           0       -3.405997    3.213967   -0.697359
     12          6           0       -3.846459    1.852602   -0.427415
     13          6           0       -5.226685    1.567745   -0.412752
     14          6           0       -5.685431    0.288424   -0.174114
     15          1           0       -6.745526    0.070913   -0.167218
     16          1           0       -5.920295    2.377951   -0.596712
     17          1           0       -0.400087   -2.053223    0.579440
     18          7           0       -2.023977    3.411550   -0.766389
     19          7           0       -4.304079   -3.107775    0.518108
     20          8           0       -2.162554   -3.857555    0.734984
     21          8           0       -6.474292   -2.393568    0.319701
     22          8           0       -4.187227    4.157857   -0.876581
     23          8           0        0.125408    2.699647   -0.892457
     24          6           0       -1.532034    4.751679   -1.107014
     25          1           0       -0.699802    5.008537   -0.454305
     26          1           0       -1.183623    4.782060   -2.141680
     27          1           0       -2.349502    5.453228   -0.977397
     28          6           0       -4.756403   -4.482833    0.760738
     29          1           0       -4.334127   -5.150950    0.009631
     30          1           0       -4.426941   -4.816307    1.745609
     31          1           0       -5.839690   -4.495057    0.706307
     32          6           0        0.861521    0.232775    0.330516
     33          6           0        1.492856    1.019056    1.257661
     34         16           0        2.015352   -0.704783   -0.583737
     35          6           0        2.906662    0.882602    1.233429
     36          1           0        0.957068    1.672508    1.930326
     37          6           0        3.383549   -0.015879    0.287819
     38          8           0        3.787904    1.533484    2.044106
     39          6           0        4.751908   -0.373513    0.002301
     40          6           0        3.266054    2.488548    2.973309
     41          6           0        5.224522   -1.287378   -0.930575
     42         16           0        6.120717    0.350439    0.845237
     43          1           0        4.128753    2.898861    3.494393
     44          1           0        2.736142    3.291496    2.453573
     45          1           0        2.598106    2.009434    3.694469
     46          6           0        6.644642   -1.405093   -0.969759
     47          8           0        4.340438   -1.973760   -1.708110
     48          6           0        7.256473   -0.581550   -0.068168
     49          1           0        7.184552   -2.066536   -1.631658
     50          6           0        4.865587   -2.912690   -2.651552
     51          1           0        8.313455   -0.467721    0.117713
     52          1           0        5.425687   -3.704501   -2.146335
     53          1           0        4.002335   -3.342800   -3.155380
     54          1           0        5.506056   -2.415021   -3.385053
 ---------------------------------------------------------------------

 The electronic state is 2-A.
 Alpha  occ. eigenvalues --  -88.87952 -88.87690 -19.16289 -19.16245 -19.09915
 Alpha  occ. eigenvalues --  -19.09891 -19.09679 -19.09531 -14.36730 -14.36451
 Alpha  occ. eigenvalues --  -10.28361 -10.28176 -10.28137 -10.28073 -10.23968
 Alpha  occ. eigenvalues --  -10.23896 -10.22478 -10.22442 -10.21285 -10.21057
 Alpha  occ. eigenvalues --  -10.21035 -10.20522 -10.20466 -10.20227 -10.20172
 Alpha  occ. eigenvalues --  -10.19740 -10.19620 -10.19511 -10.18939 -10.18911
 Alpha  occ. eigenvalues --  -10.18858 -10.18493 -10.18273 -10.18208 -10.18147
 Alpha  occ. eigenvalues --  -10.17697  -7.96515  -7.96253  -5.92823  -5.92570
 Alpha  occ. eigenvalues --   -5.92439  -5.92186  -5.92085  -5.91804  -1.07615
 Alpha  occ. eigenvalues --   -1.07519  -1.05847  -1.05708  -1.03789  -1.03620
 Alpha  occ. eigenvalues --   -0.93932  -0.93642  -0.89958  -0.89191  -0.87802
 Alpha  occ. eigenvalues --   -0.84172  -0.81869  -0.78754  -0.76440  -0.75851
 Alpha  occ. eigenvalues --   -0.75322  -0.74361  -0.73435  -0.72209  -0.70739
 Alpha  occ. eigenvalues --   -0.70275  -0.69325  -0.67506  -0.65125  -0.64039
 Alpha  occ. eigenvalues --   -0.63198  -0.62604  -0.59796  -0.58569  -0.56649
 Alpha  occ. eigenvalues --   -0.55655  -0.55308  -0.55013  -0.53929  -0.53114
 Alpha  occ. eigenvalues --   -0.51549  -0.49516  -0.48997  -0.48234  -0.47888
 Alpha  occ. eigenvalues --   -0.47762  -0.47709  -0.47382  -0.47221  -0.46997
 Alpha  occ. eigenvalues --   -0.46560  -0.45174  -0.45029  -0.44685  -0.44433
 Alpha  occ. eigenvalues --   -0.43975  -0.43198  -0.42873  -0.42436  -0.42117
 Alpha  occ. eigenvalues --   -0.41327  -0.41006  -0.40852  -0.40450  -0.40361
 Alpha  occ. eigenvalues --   -0.40209  -0.39862  -0.39558  -0.39117  -0.38529
 Alpha  occ. eigenvalues --   -0.38108  -0.37618  -0.37205  -0.36845  -0.35645
 Alpha  occ. eigenvalues --   -0.34880  -0.34075  -0.33537  -0.33243  -0.32977
 Alpha  occ. eigenvalues --   -0.32668  -0.30074  -0.29309  -0.28774  -0.28139
 Alpha  occ. eigenvalues --   -0.27912  -0.27368  -0.26850  -0.26452  -0.26167
 Alpha  occ. eigenvalues --   -0.24501  -0.24225  -0.24064  -0.18895  -0.15524
 Alpha virt. eigenvalues --   -0.06007  -0.05001  -0.03481  -0.02799  -0.00283
 Alpha virt. eigenvalues --    0.00019   0.00364   0.00778   0.00877   0.01187
 Alpha virt. eigenvalues --    0.01640   0.02296   0.02396   0.02434   0.02599

  Beta  occ. eigenvalues --  -88.87952 -88.87687 -19.16284 -19.16248 -19.09721
  Beta  occ. eigenvalues --  -19.09690 -19.09494 -19.09328 -14.36785 -14.36505
  Beta  occ. eigenvalues --  -10.28300 -10.28116 -10.28083 -10.28016 -10.23955
  Beta  occ. eigenvalues --  -10.23908 -10.22478 -10.22442 -10.21292 -10.21059
  Beta  occ. eigenvalues --  -10.21027 -10.20521 -10.20421 -10.20282 -10.20160
  Beta  occ. eigenvalues --  -10.19739 -10.19619 -10.19340 -10.18785 -10.18743
  Beta  occ. eigenvalues --  -10.18699 -10.18425 -10.18277 -10.18124 -10.18063
  Beta  occ. eigenvalues --  -10.17668  -7.96514  -7.96249  -5.92823  -5.92566
  Beta  occ. eigenvalues --   -5.92439  -5.92182  -5.92083  -5.91798  -1.07607
  Beta  occ. eigenvalues --   -1.07520  -1.05596  -1.05463  -1.03447  -1.03286
  Beta  occ. eigenvalues --   -0.93812  -0.93529  -0.89854  -0.89115  -0.87763
  Beta  occ. eigenvalues --   -0.83854  -0.81565  -0.78620  -0.76329  -0.75489
  Beta  occ. eigenvalues --   -0.75184  -0.74339  -0.73364  -0.72164  -0.70696
  Beta  occ. eigenvalues --   -0.69966  -0.69186  -0.67400  -0.64971  -0.63839
  Beta  occ. eigenvalues --   -0.63116  -0.62407  -0.59756  -0.58514  -0.56564
  Beta  occ. eigenvalues --   -0.55530  -0.55294  -0.54904  -0.53918  -0.52963
  Beta  occ. eigenvalues --   -0.51433  -0.49364  -0.48913  -0.47960  -0.47734
  Beta  occ. eigenvalues --   -0.47688  -0.47604  -0.47374  -0.47155  -0.46874
  Beta  occ. eigenvalues --   -0.46517  -0.45122  -0.44919  -0.44620  -0.44310
  Beta  occ. eigenvalues --   -0.43881  -0.43019  -0.42699  -0.42274  -0.41886
  Beta  occ. eigenvalues --   -0.41263  -0.40949  -0.40772  -0.40196  -0.39930
  Beta  occ. eigenvalues --   -0.39825  -0.39443  -0.39081  -0.38685  -0.38393
  Beta  occ. eigenvalues --   -0.38066  -0.37441  -0.36895  -0.36797  -0.35631
  Beta  occ. eigenvalues --   -0.34788  -0.33880  -0.33406  -0.33178  -0.32955
  Beta  occ. eigenvalues --   -0.32095  -0.29248  -0.28937  -0.28542  -0.27736
  Beta  occ. eigenvalues --   -0.27505  -0.27048  -0.26634  -0.26017  -0.25875
  Beta  occ. eigenvalues --   -0.24341  -0.24070  -0.22733  -0.18731
  Beta virt. eigenvalues --   -0.11059  -0.05276  -0.04345  -0.02757  -0.02256
  Beta virt. eigenvalues --   -0.00267   0.00105   0.00377   0.00784   0.00893
  Beta virt. eigenvalues --    0.01229   0.01652   0.02409   0.02454   0.02775

 Mulliken charges and spin densities:
               1          2
     1  C    0.436250   0.026753
     2  C   -0.141123   0.119337
     3  C    0.110786  -0.037086
     4  C    0.185850   0.106358
     5  C    0.273140   0.026548
     6  C   -0.523361   0.059042
     7  C    0.198817  -0.033163
     8  C    0.144857   0.122516
     9  C    0.491267   0.067238
    10  C   -0.419230   0.028729
    11  C    0.245998   0.025441
    12  C    0.112331   0.106214
    13  C   -0.495780   0.062157
    14  C   -0.623430   0.065534
    15  H    0.144132  -0.004513
    16  H    0.144421  -0.004280
    17  H    0.150341  -0.003285
    18  N   -0.102178  -0.022380
    19  N   -0.137321  -0.023422
    20  O   -0.431390   0.074699
    21  O   -0.418509   0.072132
    22  O   -0.426350   0.069011
    23  O   -0.294269   0.075528
    24  C   -0.205613   0.001296
    25  H    0.171614  -0.000670
    26  H    0.176815  -0.001166
    27  H    0.173897  -0.000387
    28  C   -0.208104   0.001265
    29  H    0.171042  -0.000964
    30  H    0.172877  -0.001011
    31  H    0.173980  -0.000341
    32  C    0.085113  -0.027375
    33  C   -0.457912   0.018981
    34  S   -0.448003   0.008377
    35  C   -0.208504  -0.006338
    36  H    0.146674  -0.001409
    37  C    0.590961   0.023205
    38  O   -0.171176  -0.000505
    39  C    0.707799  -0.006534
    40  C   -0.234944   0.000289
    41  C   -0.009477   0.008065
    42  S   -0.245834   0.000073
    43  H    0.173771  -0.000009
    44  H    0.162885  -0.000102
    45  H    0.159929  -0.000066
    46  C   -0.574892  -0.003733
    47  O   -0.168863   0.001654
    48  C   -0.342187   0.008409
    49  H    0.158851   0.000157
    50  C   -0.250409   0.000020
    51  H    0.185867  -0.000500
    52  H    0.157895   0.000099
    53  H    0.172064   0.000007
    54  H    0.158634   0.000107
 Sum of Mulliken charges =  -1.00000   1.00000

 Dipole moment (field-independent basis, Debye):
    X=             14.5242    Y=             -0.6017    Z=              1.1222  Tot=             14.5799
 Quadrupole moment (field-independent basis, Debye-Ang):
   XX=           -298.7469   YY=           -258.7771   ZZ=           -215.3270
   XY=             -7.4802   XZ=             -8.9014   YZ=             26.2056

 Normal termination of Gaussian 16 at Thu Oct 28 09:30:31 2021.
