 Gaussian 16, Revision C.01,
 Gaussian 16:  ES64L-G16RevC.01  3-Jul-2019

 ---------------------------------------------------------------
 # opt=modredundant b3lyp/6-311+g(d,p) scrf=(pcm, solvent=water)
 ---------------------------------------------------------------

 -----------
 NDI_-15.pdb
 -----------
 Symbolic Z-matrix:
 Charge = -1 Multiplicity = 2

 SCF Done:  E(UB3LYP) =  -2359.48681599     A.U. after   22 cycles
 SCF Done:  E(UB3LYP) =  -2359.47763104     A.U. after   22 cycles
 SCF Done:  E(UB3LYP) =  -2359.49310843     A.U. after   18 cycles
 SCF Done:  E(UB3LYP) =  -2359.49661875     A.U. after   21 cycles
 SCF Done:  E(UB3LYP) =  -2359.49914898     A.U. after   21 cycles
 SCF Done:  E(UB3LYP) =  -2359.49846756     A.U. after   21 cycles
 SCF Done:  E(UB3LYP) =  -2359.50043137     A.U. after   18 cycles
 SCF Done:  E(UB3LYP) =  -2359.50065462     A.U. after   17 cycles
 SCF Done:  E(UB3LYP) =  -2359.50069999     A.U. after   17 cycles
 SCF Done:  E(UB3LYP) =  -2359.50079594     A.U. after   16 cycles
 SCF Done:  E(UB3LYP) =  -2359.50090523     A.U. after   15 cycles
 SCF Done:  E(UB3LYP) =  -2359.50090802     A.U. after   14 cycles
 SCF Done:  E(UB3LYP) =  -2359.50090984     A.U. after   13 cycles
 SCF Done:  E(UB3LYP) =  -2359.50091128     A.U. after   14 cycles
 SCF Done:  E(UB3LYP) =  -2359.50091282     A.U. after   13 cycles
 SCF Done:  E(UB3LYP) =  -2359.50091428     A.U. after   14 cycles
 SCF Done:  E(UB3LYP) =  -2359.50091582     A.U. after   13 cycles
 SCF Done:  E(UB3LYP) =  -2359.50091629     A.U. after   12 cycles
 SCF Done:  E(UB3LYP) =  -2359.50091663     A.U. after   10 cycles
 SCF Done:  E(UB3LYP) =  -2359.50091667     A.U. after   10 cycles
 Optimization completed.
    -- Stationary point found.

                         Standard orientation:
 ---------------------------------------------------------------------
 Center     Atomic      Atomic             Coordinates (Angstroms)
 Number     Number       Type             X           Y           Z
 ---------------------------------------------------------------------
      1          6           0       -2.640460   -3.016800   -0.109467
      2          6           0       -2.304661   -1.602488    0.002058
      3          6           0       -3.321881   -0.621926   -0.064331
      4          6           0       -4.671743   -0.990484   -0.249638
      5          6           0       -5.038243   -2.399163   -0.372519
      6          6           0       -0.968357   -1.211887    0.091055
      7          6           0       -2.955656    0.757042    0.072951
      8          6           0       -1.593267    1.128783    0.273713
      9          6           0       -0.561794    0.123089    0.196504
     10          6           0       -1.341454    2.495418    0.723500
     11          6           0       -3.690218    3.137548    0.193858
     12          6           0       -3.993090    1.724147    0.023890
     13          6           0       -5.331233    1.330994   -0.179199
     14          6           0       -5.670481    0.000684   -0.313516
     15          1           0       -6.699608   -0.299623   -0.460950
     16          1           0       -6.090516    2.101361   -0.218908
     17          1           0       -0.227057   -1.996433    0.010777
     18          7           0       -2.369527    3.441017    0.524814
     19          7           0       -3.993312   -3.334385   -0.285061
     20          8           0       -1.804218   -3.926745   -0.058739
     21          8           0       -6.202511   -2.778458   -0.541610
     22          8           0       -4.536763    4.036235    0.090767
     23          8           0       -0.308569    2.876203    1.284795
     24          6           0       -2.044826    4.837552    0.837185
     25          1           0       -2.092746    5.017311    1.914174
     26          1           0       -1.036421    5.054871    0.493594
     27          1           0       -2.767552    5.473529    0.335548
     28          6           0       -4.316600   -4.761992   -0.394887
     29          1           0       -3.828380   -5.190219   -1.271394
     30          1           0       -3.964218   -5.290469    0.491003
     31          1           0       -5.393236   -4.857525   -0.485804
     32          6           0        0.864450    0.393296   -0.004940
     33          6           0        1.507188    1.535811   -0.427891
     34         16           0        2.050006   -0.861819    0.351613
     35          6           0        2.912452    1.400378   -0.513017
     36          1           0        0.984886    2.440710   -0.686840
     37          6           0        3.400894    0.158204   -0.122288
     38          8           0        3.784987    2.358297   -0.931911
     39          6           0        4.767434   -0.293344   -0.091425
     40          6           0        3.251784    3.622484   -1.339887
     41          6           0        5.255362   -1.533705    0.305427
     42         16           0        6.118828    0.727586   -0.584173
     43          1           0        4.109039    4.226988   -1.629133
     44          1           0        2.580435    3.506064   -2.195069
     45          1           0        2.722329    4.108248   -0.515848
     46          6           0        6.671437   -1.662001    0.216359
     47          8           0        4.388766   -2.492413    0.731586
     48          6           0        7.265171   -0.522210   -0.246965
     49          1           0        7.221751   -2.552654    0.482505
     50          6           0        4.929721   -3.754325    1.136960
     51          1           0        8.316447   -0.340922   -0.410643
     52          1           0        5.607552   -3.634407    1.986513
     53          1           0        4.077147   -4.361418    1.434154
     54          1           0        5.453549   -4.239665    0.308971
 ---------------------------------------------------------------------

 The electronic state is 2-A.
 Alpha  occ. eigenvalues --  -88.88090 -88.87658 -19.16476 -19.16361 -19.10030
 Alpha  occ. eigenvalues --  -19.09979 -19.09562 -19.09412 -14.36783 -14.36336
 Alpha  occ. eigenvalues --  -10.28472 -10.28263 -10.28038 -10.27917 -10.24239
 Alpha  occ. eigenvalues --  -10.24028 -10.22550 -10.22482 -10.21491 -10.21437
 Alpha  occ. eigenvalues --  -10.21240 -10.20789 -10.20434 -10.20377 -10.20077
 Alpha  occ. eigenvalues --  -10.19773 -10.19636 -10.19291 -10.18966 -10.18897
 Alpha  occ. eigenvalues --  -10.18741 -10.18601 -10.18388 -10.18144 -10.18044
 Alpha  occ. eigenvalues --  -10.17787  -7.96651  -7.96235  -5.92960  -5.92575
 Alpha  occ. eigenvalues --   -5.92553  -5.92220  -5.92170  -5.91785  -1.07827
 Alpha  occ. eigenvalues --   -1.07675  -1.05952  -1.05608  -1.03909  -1.03490
 Alpha  occ. eigenvalues --   -0.94000  -0.93568  -0.89989  -0.89248  -0.87877
 Alpha  occ. eigenvalues --   -0.84147  -0.81813  -0.78877  -0.76642  -0.75832
 Alpha  occ. eigenvalues --   -0.75381  -0.74452  -0.73421  -0.72348  -0.70732
 Alpha  occ. eigenvalues --   -0.70380  -0.69365  -0.67543  -0.65142  -0.63997
 Alpha  occ. eigenvalues --   -0.63314  -0.62546  -0.59905  -0.58708  -0.56651
 Alpha  occ. eigenvalues --   -0.55735  -0.55428  -0.55049  -0.54078  -0.53180
 Alpha  occ. eigenvalues --   -0.51599  -0.49546  -0.48969  -0.48243  -0.47882
 Alpha  occ. eigenvalues --   -0.47841  -0.47718  -0.47484  -0.47227  -0.47073
 Alpha  occ. eigenvalues --   -0.46556  -0.45285  -0.45137  -0.44681  -0.44366
 Alpha  occ. eigenvalues --   -0.43896  -0.43092  -0.42926  -0.42307  -0.41944
 Alpha  occ. eigenvalues --   -0.41494  -0.41247  -0.41072  -0.40568  -0.40295
 Alpha  occ. eigenvalues --   -0.40181  -0.39887  -0.39399  -0.39102  -0.38867
 Alpha  occ. eigenvalues --   -0.38132  -0.37686  -0.37107  -0.36688  -0.35785
 Alpha  occ. eigenvalues --   -0.35041  -0.34789  -0.33650  -0.33422  -0.32830
 Alpha  occ. eigenvalues --   -0.32389  -0.30148  -0.29418  -0.28974  -0.28162
 Alpha  occ. eigenvalues --   -0.28005  -0.27226  -0.26957  -0.26374  -0.26136
 Alpha  occ. eigenvalues --   -0.24715  -0.24332  -0.23763  -0.19131  -0.15341
 Alpha virt. eigenvalues --   -0.06830  -0.05366  -0.03247  -0.02433  -0.00304
 Alpha virt. eigenvalues --    0.00408   0.00496   0.00589   0.00904   0.01430
 Alpha virt. eigenvalues --    0.01788   0.02211   0.02360   0.02634   0.02820

  Beta  occ. eigenvalues --  -88.88089 -88.87646 -19.16457 -19.16367 -19.09849
  Beta  occ. eigenvalues --  -19.09788 -19.09388 -19.09227 -14.36834 -14.36388
  Beta  occ. eigenvalues --  -10.28415 -10.28206 -10.27978 -10.27863 -10.24202
  Beta  occ. eigenvalues --  -10.24052 -10.22551 -10.22481 -10.21473 -10.21396
  Beta  occ. eigenvalues --  -10.21292 -10.20664 -10.20480 -10.20341 -10.20133
  Beta  occ. eigenvalues --  -10.19772 -10.19635 -10.19139 -10.18823 -10.18734
  Beta  occ. eigenvalues --  -10.18595 -10.18549 -10.18401 -10.18068 -10.17965
  Beta  occ. eigenvalues --  -10.17731  -7.96650  -7.96224  -5.92959  -5.92575
  Beta  occ. eigenvalues --   -5.92547  -5.92217  -5.92164  -5.91747  -1.07793
  Beta  occ. eigenvalues --   -1.07681  -1.05715  -1.05379  -1.03587  -1.03180
  Beta  occ. eigenvalues --   -0.93889  -0.93462  -0.89891  -0.89151  -0.87824
  Beta  occ. eigenvalues --   -0.83839  -0.81528  -0.78734  -0.76523  -0.75526
  Beta  occ. eigenvalues --   -0.75217  -0.74408  -0.73355  -0.72282  -0.70685
  Beta  occ. eigenvalues --   -0.70109  -0.69215  -0.67424  -0.64987  -0.63811
  Beta  occ. eigenvalues --   -0.63222  -0.62360  -0.59852  -0.58647  -0.56566
  Beta  occ. eigenvalues --   -0.55636  -0.55386  -0.54943  -0.54051  -0.53031
  Beta  occ. eigenvalues --   -0.51499  -0.49410  -0.48849  -0.47988  -0.47812
  Beta  occ. eigenvalues --   -0.47752  -0.47564  -0.47465  -0.47159  -0.46954
  Beta  occ. eigenvalues --   -0.46503  -0.45228  -0.45049  -0.44593  -0.44242
  Beta  occ. eigenvalues --   -0.43810  -0.42918  -0.42754  -0.42046  -0.41867
  Beta  occ. eigenvalues --   -0.41378  -0.41137  -0.40959  -0.40314  -0.39908
  Beta  occ. eigenvalues --   -0.39857  -0.39523  -0.39110  -0.38708  -0.38554
  Beta  occ. eigenvalues --   -0.38017  -0.37544  -0.36821  -0.36631  -0.35754
  Beta  occ. eigenvalues --   -0.34915  -0.34536  -0.33509  -0.33406  -0.32775
  Beta  occ. eigenvalues --   -0.31898  -0.29493  -0.28938  -0.28604  -0.27894
  Beta  occ. eigenvalues --   -0.27520  -0.26929  -0.26755  -0.26131  -0.25762
  Beta  occ. eigenvalues --   -0.24350  -0.24122  -0.22655  -0.18657
  Beta virt. eigenvalues --   -0.11155  -0.06238  -0.04432  -0.02375  -0.02210
  Beta virt. eigenvalues --   -0.00287   0.00421   0.00595   0.00653   0.01020
  Beta virt. eigenvalues --    0.01447   0.01800   0.02281   0.02673   0.02851

 Mulliken charges and spin densities:
               1          2
     1  C    0.301105   0.026409
     2  C   -0.086524   0.116127
     3  C    0.216689  -0.036687
     4  C    0.194111   0.098159
     5  C    0.243280   0.025834
     6  C    0.071904   0.036549
     7  C    0.250089  -0.026170
     8  C    0.508688   0.111570
     9  C    0.098735   0.081064
    10  C   -0.899171   0.018928
    11  C    0.258786   0.025141
    12  C    0.104186   0.094622
    13  C   -0.499448   0.056976
    14  C   -0.601171   0.061609
    15  H    0.143889  -0.004139
    16  H    0.144556  -0.003982
    17  H    0.145844  -0.001570
    18  N    0.004241  -0.021847
    19  N   -0.130999  -0.022033
    20  O   -0.434059   0.070979
    21  O   -0.413888   0.067046
    22  O   -0.434690   0.064812
    23  O   -0.368267   0.069531
    24  C   -0.183726   0.001557
    25  H    0.177025  -0.001188
    26  H    0.171904  -0.000521
    27  H    0.172567  -0.000461
    28  C   -0.209166   0.001130
    29  H    0.173877  -0.000966
    30  H    0.170791  -0.000876
    31  H    0.173575  -0.000318
    32  C   -0.262823  -0.033016
    33  C   -0.348649   0.050983
    34  S   -0.650574   0.017427
    35  C   -0.319503  -0.014148
    36  H    0.162643  -0.003061
    37  C    0.689444   0.047982
    38  O   -0.159726  -0.000519
    39  C    0.877870  -0.014807
    40  C   -0.241804   0.000080
    41  C    0.047721   0.024638
    42  S   -0.211209  -0.000544
    43  H    0.175768  -0.000001
    44  H    0.160950  -0.000156
    45  H    0.162330  -0.000267
    46  C   -0.628457  -0.010131
    47  O   -0.163189   0.003815
    48  C   -0.343975   0.025115
    49  H    0.160146   0.000460
    50  C   -0.251175  -0.000321
    51  H    0.188013  -0.001506
    52  H    0.158731   0.000343
    53  H    0.173454  -0.000014
    54  H    0.159280   0.000360
 Sum of Mulliken charges =  -1.00000   1.00000

 Dipole moment (field-independent basis, Debye):
    X=             15.6916    Y=             -0.6132    Z=             -1.3761  Tot=             15.7637
 Quadrupole moment (field-independent basis, Debye-Ang):
   XX=           -292.8298   YY=           -246.7620   ZZ=           -229.5107
   XY=             -8.9179   XZ=             -3.4873   YZ=            -14.7225

 Normal termination of Gaussian 16 at Thu Oct 28 07:46:25 2021.
