 Gaussian 16, Revision C.01,
 Gaussian 16:  ES64L-G16RevC.01  3-Jul-2019

 ---------------------------------------------------------------
 # opt=modredundant b3lyp/6-311+g(d,p) scrf=(pcm, solvent=water)
 ---------------------------------------------------------------

 -----------
 NDI_170.pdb
 -----------
 Symbolic Z-matrix:
 Charge = -1 Multiplicity = 2

 SCF Done:  E(UB3LYP) =  -2359.45142192     A.U. after   21 cycles
 SCF Done:  E(UB3LYP) =  -2359.48193798     A.U. after   22 cycles
 SCF Done:  E(UB3LYP) =  -2359.49208781     A.U. after   19 cycles
 SCF Done:  E(UB3LYP) =  -2359.49569512     A.U. after   19 cycles
 SCF Done:  E(UB3LYP) =  -2359.49708885     A.U. after   20 cycles
 SCF Done:  E(UB3LYP) =  -2359.49729282     A.U. after   22 cycles
 SCF Done:  E(UB3LYP) =  -2359.49853262     A.U. after   17 cycles
 SCF Done:  E(UB3LYP) =  -2359.49926789     A.U. after   20 cycles
 SCF Done:  E(UB3LYP) =  -2359.49945360     A.U. after   17 cycles
 SCF Done:  E(UB3LYP) =  -2359.49964861     A.U. after   16 cycles
 SCF Done:  E(UB3LYP) =  -2359.49981635     A.U. after   14 cycles
 SCF Done:  E(UB3LYP) =  -2359.49982349     A.U. after   13 cycles
 SCF Done:  E(UB3LYP) =  -2359.49982485     A.U. after   13 cycles
 SCF Done:  E(UB3LYP) =  -2359.49982538     A.U. after   12 cycles
 SCF Done:  E(UB3LYP) =  -2359.49982600     A.U. after   13 cycles
 SCF Done:  E(UB3LYP) =  -2359.49982636     A.U. after    9 cycles
 SCF Done:  E(UB3LYP) =  -2359.49982653     A.U. after    8 cycles
 SCF Done:  E(UB3LYP) =  -2359.49982673     A.U. after   11 cycles
 SCF Done:  E(UB3LYP) =  -2359.49982680     A.U. after   11 cycles
 SCF Done:  E(UB3LYP) =  -2359.49982682     A.U. after    9 cycles
 Optimization completed.
    -- Stationary point found.

                         Standard orientation:
 ---------------------------------------------------------------------
 Center     Atomic      Atomic             Coordinates (Angstroms)
 Number     Number       Type             X           Y           Z
 ---------------------------------------------------------------------
      1          6           0       -3.578066   -2.647504   -0.147289
      2          6           0       -2.810694   -1.428554    0.080377
      3          6           0       -3.417188   -0.163745   -0.102679
      4          6           0       -4.763056   -0.055627   -0.514136
      5          6           0       -5.555139   -1.258725   -0.754166
      6          6           0       -1.453752   -1.512174    0.398306
      7          6           0       -2.637979    1.011776    0.147479
      8          6           0       -1.281878    0.901557    0.570617
      9          6           0       -0.648919   -0.389935    0.623654
     10          6           0       -0.653346    2.104957    1.104013
     11          6           0       -2.535404    3.501244    0.261279
     12          6           0       -3.265096    2.273315   -0.020008
     13          6           0       -4.605816    2.354140   -0.447758
     14          6           0       -5.345023    1.215037   -0.691979
     15          1           0       -6.376502    1.279097   -1.013050
     16          1           0       -5.045513    3.335387   -0.572398
     17          1           0       -1.012842   -2.498696    0.397949
     18          7           0       -1.260157    3.341232    0.807267
     19          7           0       -4.913494   -2.490560   -0.540732
     20          8           0       -3.115142   -3.786469   -0.011235
     21          8           0       -6.734603   -1.225592   -1.123079
     22          8           0       -3.002113    4.632568    0.070139
     23          8           0        0.357388    2.107721    1.815871
     24          6           0       -0.537122    4.544045    1.236360
     25          1           0       -0.648522    4.700309    2.312126
     26          1           0        0.520445    4.426921    1.010798
     27          1           0       -0.950732    5.394704    0.704238
     28          6           0       -5.676339   -3.725609   -0.758041
     29          1           0       -5.260569   -4.282312   -1.599554
     30          1           0       -5.623083   -4.351980    0.131964
     31          1           0       -6.705247   -3.453573   -0.967553
     32          6           0        0.800213   -0.637742    0.677380
     33          6           0        1.407019   -1.858657    0.922301
     34         16           0        1.975654    0.479071    0.013272
     35          6           0        2.784364   -1.888781    0.613434
     36          1           0        0.877321   -2.705292    1.332484
     37          6           0        3.276434   -0.702107    0.080088
     38          8           0        3.627828   -2.943538    0.796412
     39          6           0        4.626330   -0.399452   -0.320327
     40          6           0        3.085021   -4.151376    1.338273
     41          6           0        5.117844    0.777926   -0.873876
     42         16           0        5.947441   -1.558072   -0.163124
     43          1           0        3.917285   -4.849463    1.402006
     44          1           0        2.672362   -3.982164    2.336760
     45          1           0        2.312482   -4.562512    0.682412
     46          6           0        6.513131    0.752451   -1.161354
     47          8           0        4.273392    1.821903   -1.095005
     48          6           0        7.087123   -0.442202   -0.830393
     49          1           0        7.062919    1.576072   -1.592993
     50          6           0        4.820240    3.020999   -1.653869
     51          1           0        8.119514   -0.736177   -0.942628
     52          1           0        5.247129    2.832761   -2.642760
     53          1           0        3.986453    3.714212   -1.743526
     54          1           0        5.581714    3.447732   -0.995330
 ---------------------------------------------------------------------

 The electronic state is 2-A.
 Alpha  occ. eigenvalues --  -88.88056 -88.87458 -19.16443 -19.16290 -19.10014
 Alpha  occ. eigenvalues --  -19.09966 -19.09596 -19.09490 -14.36768 -14.36382
 Alpha  occ. eigenvalues --  -10.28449 -10.28256 -10.28012 -10.27970 -10.24215
 Alpha  occ. eigenvalues --  -10.23891 -10.22534 -10.22476 -10.21401 -10.21355
 Alpha  occ. eigenvalues --  -10.21331 -10.20775 -10.20392 -10.20356 -10.20058
 Alpha  occ. eigenvalues --  -10.19764 -10.19644 -10.19202 -10.18951 -10.18885
 Alpha  occ. eigenvalues --  -10.18757 -10.18558 -10.18364 -10.18152 -10.18059
 Alpha  occ. eigenvalues --  -10.18040  -7.96618  -7.96018  -5.92926  -5.92541
 Alpha  occ. eigenvalues --   -5.92340  -5.92188  -5.91947  -5.91561  -1.07791
 Alpha  occ. eigenvalues --   -1.07590  -1.05932  -1.05642  -1.03888  -1.03537
 Alpha  occ. eigenvalues --   -0.93979  -0.93621  -0.89960  -0.89232  -0.87853
 Alpha  occ. eigenvalues --   -0.84139  -0.81808  -0.78912  -0.76386  -0.75943
 Alpha  occ. eigenvalues --   -0.75362  -0.74454  -0.73428  -0.72320  -0.70781
 Alpha  occ. eigenvalues --   -0.70021  -0.69568  -0.67588  -0.65083  -0.64057
 Alpha  occ. eigenvalues --   -0.63210  -0.62607  -0.59800  -0.58684  -0.56661
 Alpha  occ. eigenvalues --   -0.55811  -0.55414  -0.55018  -0.54077  -0.52890
 Alpha  occ. eigenvalues --   -0.51821  -0.49404  -0.48820  -0.48313  -0.47907
 Alpha  occ. eigenvalues --   -0.47831  -0.47642  -0.47445  -0.47337  -0.47004
 Alpha  occ. eigenvalues --   -0.46559  -0.45376  -0.45165  -0.44686  -0.44493
 Alpha  occ. eigenvalues --   -0.43670  -0.43139  -0.43022  -0.42467  -0.42007
 Alpha  occ. eigenvalues --   -0.41465  -0.41169  -0.40914  -0.40535  -0.40302
 Alpha  occ. eigenvalues --   -0.40024  -0.39868  -0.39620  -0.39215  -0.38784
 Alpha  occ. eigenvalues --   -0.38074  -0.37686  -0.37021  -0.36696  -0.35590
 Alpha  occ. eigenvalues --   -0.34967  -0.34752  -0.33632  -0.33325  -0.32886
 Alpha  occ. eigenvalues --   -0.32322  -0.29973  -0.29395  -0.29061  -0.28210
 Alpha  occ. eigenvalues --   -0.27945  -0.27253  -0.26963  -0.26397  -0.26187
 Alpha  occ. eigenvalues --   -0.24632  -0.24312  -0.23707  -0.19064  -0.15333
 Alpha virt. eigenvalues --   -0.06790  -0.05286  -0.03199  -0.02624  -0.00329
 Alpha virt. eigenvalues --    0.00338   0.00522   0.00589   0.00803   0.01491
 Alpha virt. eigenvalues --    0.01857   0.02315   0.02429   0.02507   0.02717

  Beta  occ. eigenvalues --  -88.88055 -88.87456 -19.16424 -19.16301 -19.09832
  Beta  occ. eigenvalues --  -19.09776 -19.09421 -19.09301 -14.36820 -14.36434
  Beta  occ. eigenvalues --  -10.28391 -10.28199 -10.27953 -10.27916 -10.24173
  Beta  occ. eigenvalues --  -10.23929 -10.22534 -10.22475 -10.21424 -10.21412
  Beta  occ. eigenvalues --  -10.21244 -10.20648 -10.20439 -10.20316 -10.20115
  Beta  occ. eigenvalues --  -10.19763 -10.19643 -10.19054 -10.18807 -10.18724
  Beta  occ. eigenvalues --  -10.18609 -10.18505 -10.18379 -10.18077 -10.17980
  Beta  occ. eigenvalues --  -10.17961  -7.96617  -7.96017  -5.92925  -5.92541
  Beta  occ. eigenvalues --   -5.92339  -5.92184  -5.91945  -5.91556  -1.07752
  Beta  occ. eigenvalues --   -1.07610  -1.05694  -1.05410  -1.03567  -1.03222
  Beta  occ. eigenvalues --   -0.93868  -0.93515  -0.89859  -0.89138  -0.87799
  Beta  occ. eigenvalues --   -0.83831  -0.81524  -0.78763  -0.76275  -0.75652
  Beta  occ. eigenvalues --   -0.75187  -0.74403  -0.73361  -0.72233  -0.70739
  Beta  occ. eigenvalues --   -0.69766  -0.69412  -0.67470  -0.64930  -0.63875
  Beta  occ. eigenvalues --   -0.63088  -0.62465  -0.59727  -0.58621  -0.56584
  Beta  occ. eigenvalues --   -0.55692  -0.55380  -0.54904  -0.54054  -0.52763
  Beta  occ. eigenvalues --   -0.51712  -0.49244  -0.48752  -0.48041  -0.47791
  Beta  occ. eigenvalues --   -0.47687  -0.47569  -0.47433  -0.47255  -0.46890
  Beta  occ. eigenvalues --   -0.46504  -0.45310  -0.45099  -0.44563  -0.44406
  Beta  occ. eigenvalues --   -0.43564  -0.42974  -0.42833  -0.42313  -0.41806
  Beta  occ. eigenvalues --   -0.41403  -0.41071  -0.40832  -0.40071  -0.39926
  Beta  occ. eigenvalues --   -0.39878  -0.39464  -0.39183  -0.38860  -0.38600
  Beta  occ. eigenvalues --   -0.37951  -0.37488  -0.36748  -0.36668  -0.35566
  Beta  occ. eigenvalues --   -0.34791  -0.34541  -0.33504  -0.33287  -0.32855
  Beta  occ. eigenvalues --   -0.31825  -0.29266  -0.28942  -0.28674  -0.27976
  Beta  occ. eigenvalues --   -0.27474  -0.26969  -0.26767  -0.26196  -0.25733
  Beta  occ. eigenvalues --   -0.24350  -0.23913  -0.22692  -0.18649
  Beta virt. eigenvalues --   -0.11124  -0.06159  -0.04356  -0.02506  -0.02242
  Beta virt. eigenvalues --   -0.00313   0.00389   0.00598   0.00676   0.00880
  Beta virt. eigenvalues --    0.01499   0.01870   0.02431   0.02517   0.02956

 Mulliken charges and spin densities:
               1          2
     1  C    0.366652   0.026695
     2  C   -0.104738   0.114011
     3  C    0.132521  -0.038209
     4  C    0.218100   0.099559
     5  C    0.227792   0.025517
     6  C    0.091217   0.038511
     7  C    0.087590  -0.028802
     8  C    0.338696   0.110232
     9  C    0.255613   0.084573
    10  C   -0.673777   0.021920
    11  C    0.345728   0.027062
    12  C    0.046950   0.096079
    13  C   -0.502909   0.056098
    14  C   -0.571707   0.061482
    15  H    0.143877  -0.004161
    16  H    0.144460  -0.003962
    17  H    0.144866  -0.001765
    18  N    0.026105  -0.021697
    19  N   -0.138153  -0.022155
    20  O   -0.429467   0.070727
    21  O   -0.414879   0.067505
    22  O   -0.432274   0.065295
    23  O   -0.363697   0.071879
    24  C   -0.200799   0.001552
    25  H    0.177520  -0.001186
    26  H    0.174758  -0.000596
    27  H    0.173999  -0.000427
    28  C   -0.205089   0.001261
    29  H    0.174959  -0.001011
    30  H    0.169635  -0.000837
    31  H    0.173395  -0.000322
    32  C    0.005996  -0.024191
    33  C   -0.509186   0.059240
    34  S   -0.720323   0.005898
    35  C   -0.449225  -0.029951
    36  H    0.151509  -0.002788
    37  C    0.676836   0.050540
    38  O   -0.164769  -0.001719
    39  C    0.853809  -0.018115
    40  C   -0.239664   0.000248
    41  C   -0.005327   0.027258
    42  S   -0.217072  -0.000966
    43  H    0.175512   0.000000
    44  H    0.160848  -0.000292
    45  H    0.161188  -0.000250
    46  C   -0.558941  -0.011973
    47  O   -0.159251   0.004357
    48  C   -0.325950   0.028670
    49  H    0.159574   0.000524
    50  C   -0.252012  -0.000307
    51  H    0.187419  -0.001718
    52  H    0.158726   0.000381
    53  H    0.173265  -0.000013
    54  H    0.160093   0.000338
 Sum of Mulliken charges =  -1.00000   1.00000

 Dipole moment (field-independent basis, Debye):
    X=             15.0509    Y=             -2.3930    Z=             -1.4883  Tot=             15.3125
 Quadrupole moment (field-independent basis, Debye-Ang):
   XX=           -287.4879   YY=           -249.5253   ZZ=           -231.0323
   XY=             14.7263   XZ=            -20.0710   YZ=            -13.7280

 Normal termination of Gaussian 16 at Thu Oct 28 11:59:14 2021.
