 Gaussian 16, Revision C.01,
 Gaussian 16:  ES64L-G16RevC.01  3-Jul-2019

 ---------------------------------------------------------------
 # opt=modredundant b3lyp/6-311+g(d,p) scrf=(pcm, solvent=water)
 ---------------------------------------------------------------

 -----------
 NDI_-85.pdb
 -----------
 Symbolic Z-matrix:
 Charge = -1 Multiplicity = 2

 SCF Done:  E(UB3LYP) =  -2359.49579774     A.U. after   21 cycles
 SCF Done:  E(UB3LYP) =  -2359.50243291     A.U. after   19 cycles
 SCF Done:  E(UB3LYP) =  -2359.50320089     A.U. after   16 cycles
 SCF Done:  E(UB3LYP) =  -2359.50308847     A.U. after   16 cycles
 SCF Done:  E(UB3LYP) =  -2359.50335875     A.U. after   14 cycles
 SCF Done:  E(UB3LYP) =  -2359.50336367     A.U. after   11 cycles
 SCF Done:  E(UB3LYP) =  -2359.50336976     A.U. after   12 cycles
 SCF Done:  E(UB3LYP) =  -2359.50337344     A.U. after   12 cycles
 SCF Done:  E(UB3LYP) =  -2359.50337686     A.U. after   10 cycles
 SCF Done:  E(UB3LYP) =  -2359.50338176     A.U. after   11 cycles
 SCF Done:  E(UB3LYP) =  -2359.50338571     A.U. after   10 cycles
 SCF Done:  E(UB3LYP) =  -2359.50338788     A.U. after   11 cycles
 SCF Done:  E(UB3LYP) =  -2359.50338843     A.U. after   10 cycles
 SCF Done:  E(UB3LYP) =  -2359.50338901     A.U. after    9 cycles
 SCF Done:  E(UB3LYP) =  -2359.50338914     A.U. after   10 cycles
 SCF Done:  E(UB3LYP) =  -2359.50338892     A.U. after    9 cycles
 SCF Done:  E(UB3LYP) =  -2359.50338873     A.U. after    9 cycles
 SCF Done:  E(UB3LYP) =  -2359.50338913     A.U. after   10 cycles
 SCF Done:  E(UB3LYP) =  -2359.50338893     A.U. after    9 cycles
 Optimization completed.
    -- Stationary point found.

                         Standard orientation:
 ---------------------------------------------------------------------
 Center     Atomic      Atomic             Coordinates (Angstroms)
 Number     Number       Type             X           Y           Z
 ---------------------------------------------------------------------
      1          6           0        3.145955   -2.851367    0.356984
      2          6           0        2.579995   -1.514062    0.243081
      3          6           0        3.418995   -0.405839   -0.010260
      4          6           0        4.816533   -0.573687   -0.156221
      5          6           0        5.412355   -1.900628   -0.047754
      6          6           0        1.199529   -1.320798    0.398425
      7          6           0        2.835684    0.899797   -0.120843
      8          6           0        1.429006    1.069739    0.022792
      9          6           0        0.611125   -0.065406    0.306241
     10          6           0        0.864951    2.408191   -0.149634
     11          6           0        3.152645    3.345764   -0.500510
     12          6           0        3.693731    1.999579   -0.376235
     13          6           0        5.082553    1.803068   -0.514610
     14          6           0        5.635929    0.543461   -0.407901
     15          1           0        6.702551    0.395215   -0.515999
     16          1           0        5.707171    2.665408   -0.708242
     17          1           0        0.580228   -2.182358    0.611940
     18          7           0        1.764866    3.466066   -0.376649
     19          7           0        4.533633   -2.967690    0.204910
     20          8           0        2.471906   -3.865730    0.577238
     21          8           0        6.626355   -2.106321   -0.167748
     22          8           0        3.856383    4.342917   -0.709029
     23          8           0       -0.340699    2.670302   -0.115375
     24          6           0        1.163424    4.797200   -0.520880
     25          1           0        0.508401    4.821216   -1.392947
     26          1           0        0.570255    5.033297    0.362522
     27          1           0        1.966605    5.516557   -0.638890
     28          6           0        5.088296   -4.321486    0.321688
     29          1           0        4.849629   -4.738206    1.300613
     30          1           0        4.658595   -4.968000   -0.444331
     31          1           0        6.163530   -4.256466    0.194725
     32          6           0       -0.852802   -0.000699    0.543464
     33          6           0       -1.508609    0.263428    1.713221
     34         16           0       -1.971626   -0.426216   -0.723791
     35          6           0       -2.924043    0.153186    1.594361
     36          1           0       -0.993545    0.539556    2.621941
     37          6           0       -3.368188   -0.213346    0.333214
     38          8           0       -3.828948    0.361803    2.592626
     39          6           0       -4.725802   -0.418076   -0.114843
     40          6           0       -3.335265    0.767522    3.872965
     41          6           0       -5.167560   -0.796936   -1.375068
     42         16           0       -6.118723   -0.199075    0.943045
     43          1           0       -4.212555    0.889699    4.505124
     44          1           0       -2.680700    0.003327    4.301222
     45          1           0       -2.799429    1.718188    3.803319
     46          6           0       -6.584286   -0.908812   -1.491574
     47          8           0       -4.260305   -1.025009   -2.367000
     48          6           0       -7.223997   -0.615433   -0.321198
     49          1           0       -7.102109   -1.192379   -2.396330
     50          6           0       -4.755722   -1.411496   -3.652316
     51          1           0       -8.285012   -0.620030   -0.123870
     52          1           0       -5.398760   -0.634363   -4.074950
     53          1           0       -3.878468   -1.539822   -4.283254
     54          1           0       -5.304413   -2.355689   -3.593715
 ---------------------------------------------------------------------

 The electronic state is 2-A.
 Alpha  occ. eigenvalues --  -88.87906 -88.87538 -19.16216 -19.16207 -19.09901
 Alpha  occ. eigenvalues --  -19.09892 -19.09721 -19.09579 -14.36733 -14.36515
 Alpha  occ. eigenvalues --  -10.28352 -10.28177 -10.28150 -10.28135 -10.23879
 Alpha  occ. eigenvalues --  -10.23812 -10.22450 -10.22427 -10.21224 -10.21035
 Alpha  occ. eigenvalues --  -10.20887 -10.20508 -10.20456 -10.20298 -10.20103
 Alpha  occ. eigenvalues --  -10.19740 -10.19652 -10.19604 -10.18947 -10.18927
 Alpha  occ. eigenvalues --  -10.18925 -10.18480 -10.18251 -10.18232 -10.18186
 Alpha  occ. eigenvalues --  -10.17651  -7.96469  -7.96100  -5.92777  -5.92421
 Alpha  occ. eigenvalues --   -5.92393  -5.92039  -5.92035  -5.91645  -1.07538
 Alpha  occ. eigenvalues --   -1.07455  -1.05841  -1.05762  -1.03779  -1.03677
 Alpha  occ. eigenvalues --   -0.93936  -0.93685  -0.89918  -0.89159  -0.87728
 Alpha  occ. eigenvalues --   -0.84185  -0.81904  -0.78701  -0.76347  -0.75885
 Alpha  occ. eigenvalues --   -0.75301  -0.74284  -0.73455  -0.72147  -0.70758
 Alpha  occ. eigenvalues --   -0.70210  -0.69327  -0.67483  -0.65140  -0.64077
 Alpha  occ. eigenvalues --   -0.63146  -0.62651  -0.59750  -0.58519  -0.56672
 Alpha  occ. eigenvalues --   -0.55665  -0.55253  -0.54984  -0.53871  -0.53062
 Alpha  occ. eigenvalues --   -0.51575  -0.49515  -0.48986  -0.48259  -0.47910
 Alpha  occ. eigenvalues --   -0.47784  -0.47660  -0.47341  -0.47228  -0.46983
 Alpha  occ. eigenvalues --   -0.46573  -0.45117  -0.45006  -0.44736  -0.44474
 Alpha  occ. eigenvalues --   -0.43992  -0.43239  -0.42867  -0.42515  -0.42144
 Alpha  occ. eigenvalues --   -0.41258  -0.40891  -0.40801  -0.40407  -0.40402
 Alpha  occ. eigenvalues --   -0.40260  -0.39841  -0.39673  -0.39139  -0.38288
 Alpha  occ. eigenvalues --   -0.38081  -0.37546  -0.37294  -0.36867  -0.35550
 Alpha  occ. eigenvalues --   -0.34839  -0.33739  -0.33614  -0.33129  -0.32881
 Alpha  occ. eigenvalues --   -0.32778  -0.30087  -0.29215  -0.28681  -0.28211
 Alpha  occ. eigenvalues --   -0.27783  -0.27450  -0.26813  -0.26604  -0.26115
 Alpha  occ. eigenvalues --   -0.24403  -0.24331  -0.24123  -0.18778  -0.15635
 Alpha virt. eigenvalues --   -0.05827  -0.04600  -0.03804  -0.02948  -0.00299
 Alpha virt. eigenvalues --   -0.00089   0.00323   0.00813   0.01009   0.01047
 Alpha virt. eigenvalues --    0.01521   0.02265   0.02388   0.02464   0.02567

  Beta  occ. eigenvalues --  -88.87906 -88.87534 -19.16215 -19.16207 -19.09704
  Beta  occ. eigenvalues --  -19.09689 -19.09531 -19.09360 -14.36789 -14.36570
  Beta  occ. eigenvalues --  -10.28290 -10.28117 -10.28097 -10.28076 -10.23878
  Beta  occ. eigenvalues --  -10.23813 -10.22450 -10.22427 -10.21224 -10.21044
  Beta  occ. eigenvalues --  -10.20883 -10.20565 -10.20354 -10.20352 -10.20102
  Beta  occ. eigenvalues --  -10.19739 -10.19603 -10.19474 -10.18791 -10.18761
  Beta  occ. eigenvalues --  -10.18757 -10.18410 -10.18232 -10.18163 -10.18102
  Beta  occ. eigenvalues --  -10.17640  -7.96469  -7.96095  -5.92777  -5.92414
  Beta  occ. eigenvalues --   -5.92393  -5.92039  -5.92029  -5.91643  -1.07537
  Beta  occ. eigenvalues --   -1.07454  -1.05586  -1.05505  -1.03433  -1.03328
  Beta  occ. eigenvalues --   -0.93814  -0.93567  -0.89803  -0.89099  -0.87693
  Beta  occ. eigenvalues --   -0.83862  -0.81592  -0.78570  -0.76240  -0.75509
  Beta  occ. eigenvalues --   -0.75169  -0.74265  -0.73383  -0.72109  -0.70716
  Beta  occ. eigenvalues --   -0.69876  -0.69205  -0.67386  -0.64985  -0.63873
  Beta  occ. eigenvalues --   -0.63059  -0.62459  -0.59713  -0.58466  -0.56586
  Beta  occ. eigenvalues --   -0.55531  -0.55248  -0.54874  -0.53866  -0.52913
  Beta  occ. eigenvalues --   -0.51452  -0.49347  -0.48918  -0.47978  -0.47723
  Beta  occ. eigenvalues --   -0.47659  -0.47628  -0.47336  -0.47159  -0.46863
  Beta  occ. eigenvalues --   -0.46535  -0.45061  -0.44856  -0.44711  -0.44363
  Beta  occ. eigenvalues --   -0.43886  -0.43064  -0.42691  -0.42357  -0.41886
  Beta  occ. eigenvalues --   -0.41209  -0.40873  -0.40718  -0.40160  -0.39953
  Beta  occ. eigenvalues --   -0.39805  -0.39485  -0.39096  -0.38770  -0.38145
  Beta  occ. eigenvalues --   -0.38063  -0.37341  -0.37016  -0.36794  -0.35542
  Beta  occ. eigenvalues --   -0.34752  -0.33640  -0.33406  -0.33081  -0.32867
  Beta  occ. eigenvalues --   -0.32121  -0.29083  -0.28998  -0.28530  -0.27647
  Beta  occ. eigenvalues --   -0.27528  -0.27118  -0.26611  -0.25951  -0.25934
  Beta  occ. eigenvalues --   -0.24358  -0.24101  -0.22773  -0.18761
  Beta virt. eigenvalues --   -0.11019  -0.04773  -0.04447  -0.03001  -0.02267
  Beta virt. eigenvalues --   -0.00282  -0.00079   0.00333   0.00820   0.01021
  Beta virt. eigenvalues --    0.01063   0.01529   0.02360   0.02509   0.02835

 Mulliken charges and spin densities:
               1          2
     1  C    0.446963   0.025737
     2  C   -0.005813   0.123385
     3  C    0.205295  -0.039331
     4  C    0.173608   0.110601
     5  C    0.282575   0.026618
     6  C   -0.602275   0.057366
     7  C    0.200737  -0.035972
     8  C   -0.022561   0.132280
     9  C    0.541596   0.072605
    10  C   -0.402173   0.025526
    11  C    0.228123   0.026088
    12  C    0.183636   0.112400
    13  C   -0.559618   0.059533
    14  C   -0.653299   0.066258
    15  H    0.144365  -0.004665
    16  H    0.144813  -0.004338
    17  H    0.139247  -0.003619
    18  N   -0.152536  -0.022928
    19  N   -0.139321  -0.023519
    20  O   -0.428770   0.075423
    21  O   -0.419332   0.073280
    22  O   -0.420933   0.070986
    23  O   -0.264690   0.081494
    24  C   -0.224755   0.001338
    25  H    0.173985  -0.001063
    26  H    0.171710  -0.000920
    27  H    0.174818  -0.000347
    28  C   -0.208651   0.001415
    29  H    0.171772  -0.000995
    30  H    0.171975  -0.001011
    31  H    0.173985  -0.000348
    32  C    0.090071  -0.027756
    33  C   -0.532768   0.008083
    34  S   -0.142900   0.006943
    35  C   -0.153568   0.001504
    36  H    0.140428  -0.000359
    37  C    0.277840   0.008887
    38  O   -0.175609  -0.000029
    39  C    0.728070  -0.000790
    40  C   -0.234223   0.000328
    41  C    0.040296  -0.000436
    42  S   -0.254245   0.000220
    43  H    0.173839  -0.000012
    44  H    0.160449  -0.000020
    45  H    0.163222   0.000020
    46  C   -0.538648  -0.001043
    47  O   -0.178394   0.000500
    48  C   -0.372535   0.000568
    49  H    0.158382   0.000012
    50  C   -0.246881   0.000108
    51  H    0.185270  -0.000031
    52  H    0.158258   0.000011
    53  H    0.171804   0.000010
    54  H    0.157366   0.000002
 Sum of Mulliken charges =  -1.00000   1.00000

 Dipole moment (field-independent basis, Debye):
    X=            -14.0230    Y=             -1.0251    Z=              0.6144  Tot=             14.0738
 Quadrupole moment (field-independent basis, Debye-Ang):
   XX=           -299.9851   YY=           -273.0831   ZZ=           -200.6534
   XY=              2.9969   XZ=             15.6925   YZ=             15.3331

 Normal termination of Gaussian 16 at Thu Oct 28 06:42:24 2021.
