 Gaussian 16, Revision C.01,
 Gaussian 16:  ES64L-G16RevC.01  3-Jul-2019

 ---------------------------------------------------------------
 # opt=modredundant b3lyp/6-311+g(d,p) scrf=(pcm, solvent=water)
 ---------------------------------------------------------------

 ------------
 NDI_-140.pdb
 ------------
 Symbolic Z-matrix:
 Charge = -1 Multiplicity = 2

 SCF Done:  E(UB3LYP) =  -2359.48302920     A.U. after   20 cycles
 SCF Done:  E(UB3LYP) =  -2359.48883928     A.U. after   21 cycles
 SCF Done:  E(UB3LYP) =  -2359.49590195     A.U. after   22 cycles
 SCF Done:  E(UB3LYP) =  -2359.49887507     A.U. after   20 cycles
 SCF Done:  E(UB3LYP) =  -2359.49983196     A.U. after   19 cycles
 SCF Done:  E(UB3LYP) =  -2359.50081360     A.U. after   19 cycles
 SCF Done:  E(UB3LYP) =  -2359.50112315     A.U. after   22 cycles
 SCF Done:  E(UB3LYP) =  -2359.50211979     A.U. after   19 cycles
 SCF Done:  E(UB3LYP) =  -2359.50312471     A.U. after   20 cycles
 SCF Done:  E(UB3LYP) =  -2359.50314810     A.U. after   19 cycles
 SCF Done:  E(UB3LYP) =  -2359.50357143     A.U. after   15 cycles
 SCF Done:  E(UB3LYP) =  -2359.50359584     A.U. after   15 cycles
 SCF Done:  E(UB3LYP) =  -2359.50359749     A.U. after   11 cycles
 SCF Done:  E(UB3LYP) =  -2359.50360132     A.U. after   13 cycles
 SCF Done:  E(UB3LYP) =  -2359.50360283     A.U. after   10 cycles
 SCF Done:  E(UB3LYP) =  -2359.50360314     A.U. after   10 cycles
 SCF Done:  E(UB3LYP) =  -2359.50360332     A.U. after    8 cycles
 SCF Done:  E(UB3LYP) =  -2359.50360342     A.U. after    8 cycles
 SCF Done:  E(UB3LYP) =  -2359.50360343     A.U. after    8 cycles
 SCF Done:  E(UB3LYP) =  -2359.50360343     A.U. after    8 cycles
 Optimization completed.
    -- Stationary point found.

                         Standard orientation:
 ---------------------------------------------------------------------
 Center     Atomic      Atomic             Coordinates (Angstroms)
 Number     Number       Type             X           Y           Z
 ---------------------------------------------------------------------
      1          6           0       -3.489156   -2.692099    0.398828
      2          6           0       -2.761046   -1.469440    0.085737
      3          6           0       -3.422170   -0.219666    0.126967
      4          6           0       -4.788738   -0.131693    0.477355
      5          6           0       -5.541378   -1.338618    0.804111
      6          6           0       -1.390097   -1.523947   -0.195867
      7          6           0       -2.686701    0.965258   -0.204627
      8          6           0       -1.312754    0.876931   -0.566469
      9          6           0       -0.643308   -0.385995   -0.495994
     10          6           0       -0.678221    2.063979   -1.135022
     11          6           0       -2.670652    3.437043   -0.533504
     12          6           0       -3.367220    2.208653   -0.176609
     13          6           0       -4.727391    2.268544    0.187630
     14          6           0       -5.427560    1.123436    0.508854
     15          1           0       -6.473657    1.170983    0.781889
     16          1           0       -5.212897    3.235810    0.203913
     17          1           0       -0.891570   -2.481417   -0.122484
     18          7           0       -1.356064    3.289380   -0.985886
     19          7           0       -4.842155   -2.555599    0.736757
     20          8           0       -2.978865   -3.819247    0.380793
     21          8           0       -6.735876   -1.321834    1.124245
     22          8           0       -3.194098    4.557586   -0.474337
     23          8           0        0.392872    2.059063   -1.749561
     24          6           0       -0.648608    4.484556   -1.460016
     25          1           0        0.380854    4.457283   -1.108467
     26          1           0       -0.642229    4.521757   -2.551831
     27          1           0       -1.162539    5.357432   -1.071013
     28          6           0       -5.561451   -3.796355    1.049025
     29          1           0       -5.501742   -4.482008    0.203609
     30          1           0       -5.114542   -4.279287    1.919097
     31          1           0       -6.595882   -3.542966    1.254870
     32          6           0        0.814743   -0.568475   -0.590836
     33          6           0        1.480133   -1.569929   -1.256571
     34         16           0        1.918571    0.347880    0.407488
     35          6           0        2.877797   -1.580426   -1.003989
     36          1           0        0.979396   -2.259498   -1.920820
     37          6           0        3.305974   -0.606326   -0.112283
     38          8           0        3.785316   -2.436891   -1.551920
     39          6           0        4.647000   -0.349066    0.352868
     40          6           0        3.308287   -3.418377   -2.477657
     41          6           0        5.073443    0.613267    1.259573
     42         16           0        6.039179   -1.281900   -0.195716
     43          1           0        4.184319   -3.983086   -2.790313
     44          1           0        2.590858   -4.091686   -2.000466
     45          1           0        2.848805   -2.943906   -3.349174
     46          6           0        6.477322    0.605493    1.506307
     47          8           0        4.164820    1.456321    1.824605
     48          6           0        7.122375   -0.362509    0.790499
     49          1           0        6.982682    1.281756    2.180321
     50          6           0        4.643983    2.434824    2.752453
     51          1           0        8.176676   -0.593114    0.784630
     52          1           0        5.354675    3.114198    2.273780
     53          1           0        3.767574    2.993453    3.074667
     54          1           0        5.111770    1.957781    3.618157
 ---------------------------------------------------------------------

 The electronic state is 2-A.
 Alpha  occ. eigenvalues --  -88.87990 -88.87442 -19.16331 -19.16276 -19.09941
 Alpha  occ. eigenvalues --  -19.09907 -19.09687 -19.09588 -14.36735 -14.36450
 Alpha  occ. eigenvalues --  -10.28386 -10.28194 -10.28122 -10.28081 -10.24050
 Alpha  occ. eigenvalues --  -10.23900 -10.22495 -10.22461 -10.21316 -10.21166
 Alpha  occ. eigenvalues --  -10.21164 -10.20500 -10.20434 -10.20232 -10.20196
 Alpha  occ. eigenvalues --  -10.19743 -10.19649 -10.19372 -10.18953 -10.18911
 Alpha  occ. eigenvalues --  -10.18848 -10.18518 -10.18302 -10.18211 -10.18144
 Alpha  occ. eigenvalues --  -10.17908  -7.96553  -7.96013  -5.92861  -5.92477
 Alpha  occ. eigenvalues --   -5.92336  -5.92123  -5.91951  -5.91550  -1.07665
 Alpha  occ. eigenvalues --   -1.07552  -1.05864  -1.05714  -1.03811  -1.03630
 Alpha  occ. eigenvalues --   -0.93938  -0.93669  -0.89955  -0.89206  -0.87807
 Alpha  occ. eigenvalues --   -0.84171  -0.81862  -0.78842  -0.76350  -0.75932
 Alpha  occ. eigenvalues --   -0.75333  -0.74376  -0.73436  -0.72267  -0.70782
 Alpha  occ. eigenvalues --   -0.70063  -0.69481  -0.67554  -0.65096  -0.64066
 Alpha  occ. eigenvalues --   -0.63178  -0.62626  -0.59789  -0.58602  -0.56667
 Alpha  occ. eigenvalues --   -0.55740  -0.55348  -0.55002  -0.53976  -0.52935
 Alpha  occ. eigenvalues --   -0.51715  -0.49441  -0.48936  -0.48279  -0.47903
 Alpha  occ. eigenvalues --   -0.47782  -0.47691  -0.47402  -0.47312  -0.46990
 Alpha  occ. eigenvalues --   -0.46568  -0.45192  -0.45122  -0.44666  -0.44557
 Alpha  occ. eigenvalues --   -0.43814  -0.43210  -0.43007  -0.42501  -0.42073
 Alpha  occ. eigenvalues --   -0.41365  -0.41017  -0.40840  -0.40484  -0.40351
 Alpha  occ. eigenvalues --   -0.40143  -0.39883  -0.39594  -0.39182  -0.38574
 Alpha  occ. eigenvalues --   -0.38060  -0.37559  -0.37158  -0.36870  -0.35602
 Alpha  occ. eigenvalues --   -0.34903  -0.34400  -0.33562  -0.33222  -0.33046
 Alpha  occ. eigenvalues --   -0.32420  -0.30017  -0.29294  -0.28879  -0.28138
 Alpha  occ. eigenvalues --   -0.27938  -0.27348  -0.26888  -0.26377  -0.26276
 Alpha  occ. eigenvalues --   -0.24603  -0.24275  -0.23927  -0.18960  -0.15482
 Alpha virt. eigenvalues --   -0.06177  -0.05201  -0.03335  -0.02702  -0.00305
 Alpha virt. eigenvalues --    0.00029   0.00370   0.00698   0.00823   0.01390
 Alpha virt. eigenvalues --    0.01666   0.02317   0.02382   0.02514   0.02572

  Beta  occ. eigenvalues --  -88.87990 -88.87436 -19.16322 -19.16281 -19.09750
  Beta  occ. eigenvalues --  -19.09709 -19.09506 -19.09389 -14.36790 -14.36503
  Beta  occ. eigenvalues --  -10.28325 -10.28135 -10.28067 -10.28026 -10.24032
  Beta  occ. eigenvalues --  -10.23915 -10.22495 -10.22461 -10.21327 -10.21195
  Beta  occ. eigenvalues --  -10.21127 -10.20487 -10.20392 -10.20251 -10.20215
  Beta  occ. eigenvalues --  -10.19743 -10.19649 -10.19206 -10.18802 -10.18743
  Beta  occ. eigenvalues --  -10.18692 -10.18453 -10.18308 -10.18129 -10.18060
  Beta  occ. eigenvalues --  -10.17870  -7.96552  -7.96007  -5.92861  -5.92477
  Beta  occ. eigenvalues --   -5.92328  -5.92121  -5.91945  -5.91540  -1.07651
  Beta  occ. eigenvalues --   -1.07557  -1.05615  -1.05473  -1.03474  -1.03302
  Beta  occ. eigenvalues --   -0.93820  -0.93559  -0.89851  -0.89128  -0.87765
  Beta  occ. eigenvalues --   -0.83856  -0.81562  -0.78704  -0.76248  -0.75599
  Beta  occ. eigenvalues --   -0.75173  -0.74338  -0.73366  -0.72203  -0.70740
  Beta  occ. eigenvalues --   -0.69768  -0.69346  -0.67447  -0.64943  -0.63872
  Beta  occ. eigenvalues --   -0.63070  -0.62463  -0.59734  -0.58542  -0.56590
  Beta  occ. eigenvalues --   -0.55606  -0.55332  -0.54885  -0.53962  -0.52802
  Beta  occ. eigenvalues --   -0.51597  -0.49268  -0.48878  -0.48004  -0.47745
  Beta  occ. eigenvalues --   -0.47690  -0.47607  -0.47394  -0.47232  -0.46872
  Beta  occ. eigenvalues --   -0.46523  -0.45127  -0.45051  -0.44533  -0.44489
  Beta  occ. eigenvalues --   -0.43707  -0.43044  -0.42809  -0.42365  -0.41830
  Beta  occ. eigenvalues --   -0.41314  -0.40966  -0.40773  -0.40156  -0.39936
  Beta  occ. eigenvalues --   -0.39854  -0.39431  -0.39122  -0.38791  -0.38442
  Beta  occ. eigenvalues --   -0.37954  -0.37359  -0.36941  -0.36771  -0.35589
  Beta  occ. eigenvalues --   -0.34802  -0.34111  -0.33458  -0.33189  -0.33033
  Beta  occ. eigenvalues --   -0.31857  -0.29180  -0.28944  -0.28604  -0.27834
  Beta  occ. eigenvalues --   -0.27479  -0.27051  -0.26682  -0.26117  -0.25789
  Beta  occ. eigenvalues --   -0.24464  -0.23962  -0.22731  -0.18728
  Beta virt. eigenvalues --   -0.11089  -0.05533  -0.04408  -0.02572  -0.02260
  Beta virt. eigenvalues --   -0.00289   0.00155   0.00383   0.00709   0.00858
  Beta virt. eigenvalues --    0.01399   0.01690   0.02356   0.02578   0.02885

 Mulliken charges and spin densities:
               1          2
     1  C    0.394227   0.027015
     2  C   -0.124007   0.118501
     3  C    0.125263  -0.038494
     4  C    0.194740   0.104087
     5  C    0.261159   0.025554
     6  C   -0.282218   0.051953
     7  C    0.169793  -0.032709
     8  C    0.095892   0.124307
     9  C    0.291186   0.069951
    10  C   -0.459614   0.024103
    11  C    0.321383   0.025901
    12  C    0.050803   0.104859
    13  C   -0.490993   0.060303
    14  C   -0.579303   0.063517
    15  H    0.144188  -0.004446
    16  H    0.144483  -0.004184
    17  H    0.144349  -0.002905
    18  N   -0.030815  -0.022139
    19  N   -0.135795  -0.023115
    20  O   -0.430645   0.073947
    21  O   -0.418418   0.070892
    22  O   -0.428884   0.067762
    23  O   -0.359520   0.074646
    24  C   -0.190216   0.001388
    25  H    0.173685  -0.000599
    26  H    0.177674  -0.001180
    27  H    0.174809  -0.000404
    28  C   -0.205856   0.001288
    29  H    0.170666  -0.000931
    30  H    0.173567  -0.001018
    31  H    0.174390  -0.000336
    32  C    0.189472  -0.014519
    33  C   -0.592148   0.028641
    34  S   -0.609171   0.011101
    35  C   -0.090858  -0.009589
    36  H    0.155173  -0.001291
    37  C    0.531487   0.016424
    38  O   -0.168800  -0.000731
    39  C    0.820804  -0.008454
    40  C   -0.235620   0.000072
    41  C    0.017957   0.012667
    42  S   -0.238609  -0.000264
    43  H    0.174371   0.000000
    44  H    0.162649  -0.000102
    45  H    0.161888  -0.000115
    46  C   -0.608273  -0.004912
    47  O   -0.167906   0.001537
    48  C   -0.332675   0.012348
    49  H    0.159111   0.000227
    50  C   -0.250858  -0.000128
    51  H    0.186414  -0.000738
    52  H    0.158685   0.000128
    53  H    0.172699  -0.000008
    54  H    0.158239   0.000194
 Sum of Mulliken charges =  -1.00000   1.00000

 Dipole moment (field-independent basis, Debye):
    X=             14.5587    Y=             -1.8086    Z=              1.1477  Tot=             14.7154
 Quadrupole moment (field-independent basis, Debye-Ang):
   XX=           -292.8373   YY=           -257.4973   ZZ=           -220.1262
   XY=             11.4849   XZ=             19.9911   YZ=             22.3725

 Normal termination of Gaussian 16 at Thu Oct 28 09:36:05 2021.
