 Gaussian 16, Revision C.01,
 Gaussian 16:  ES64L-G16RevC.01  3-Jul-2019

 ---------------------------------------------------------------
 # opt=modredundant b3lyp/6-311+g(d,p) scrf=(pcm, solvent=water)
 ---------------------------------------------------------------

 -----------
 NDI_-40.pdb
 -----------
 Symbolic Z-matrix:
 Charge = -1 Multiplicity = 2

 SCF Done:  E(UB3LYP) =  -2359.49754605     A.U. after   22 cycles
 SCF Done:  E(UB3LYP) =  -2359.50222903     A.U. after   17 cycles
 SCF Done:  E(UB3LYP) =  -2359.50296287     A.U. after   18 cycles
 SCF Done:  E(UB3LYP) =  -2359.50290750     A.U. after   18 cycles
 SCF Done:  E(UB3LYP) =  -2359.50347844     A.U. after   17 cycles
 SCF Done:  E(UB3LYP) =  -2359.50356473     A.U. after   17 cycles
 SCF Done:  E(UB3LYP) =  -2359.50360225     A.U. after   16 cycles
 SCF Done:  E(UB3LYP) =  -2359.50361020     A.U. after   12 cycles
 SCF Done:  E(UB3LYP) =  -2359.50361530     A.U. after   11 cycles
 SCF Done:  E(UB3LYP) =  -2359.50363366     A.U. after   14 cycles
 SCF Done:  E(UB3LYP) =  -2359.50366721     A.U. after    9 cycles
 SCF Done:  E(UB3LYP) =  -2359.50366728     A.U. after   13 cycles
 SCF Done:  E(UB3LYP) =  -2359.50366740     A.U. after   10 cycles
 SCF Done:  E(UB3LYP) =  -2359.50366746     A.U. after    9 cycles
 SCF Done:  E(UB3LYP) =  -2359.50366756     A.U. after   10 cycles
 SCF Done:  E(UB3LYP) =  -2359.50366758     A.U. after    8 cycles
 SCF Done:  E(UB3LYP) =  -2359.50366761     A.U. after    8 cycles
 SCF Done:  E(UB3LYP) =  -2359.50366763     A.U. after    8 cycles
 SCF Done:  E(UB3LYP) =  -2359.50366764     A.U. after    8 cycles
 SCF Done:  E(UB3LYP) =  -2359.50366766     A.U. after    8 cycles
 Optimization completed.
    -- Stationary point found.

                         Standard orientation:
 ---------------------------------------------------------------------
 Center     Atomic      Atomic             Coordinates (Angstroms)
 Number     Number       Type             X           Y           Z
 ---------------------------------------------------------------------
      1          6           0        2.788830   -2.961954    0.394000
      2          6           0        2.382905   -1.577897    0.186319
      3          6           0        3.358312   -0.560314    0.071650
      4          6           0        4.735618   -0.863337    0.162941
      5          6           0        5.172327   -2.239971    0.375072
      6          6           0        1.024412   -1.245611    0.163772
      7          6           0        2.928084    0.789796   -0.148415
      8          6           0        1.539901    1.094970   -0.252918
      9          6           0        0.571976    0.061494   -0.021396
     10          6           0        1.170987    2.428772   -0.726311
     11          6           0        3.542552    3.176417   -0.528016
     12          6           0        3.921728    1.793617   -0.276125
     13          6           0        5.288195    1.465576   -0.169049
     14          6           0        5.692018    0.164050    0.046690
     15          1           0        6.741893   -0.086967    0.123190
     16          1           0        6.015849    2.261027   -0.265588
     17          1           0        0.310481   -2.035663    0.357003
     18          7           0        2.180139    3.414170   -0.720294
     19          7           0        4.164859   -3.214964    0.466186
     20          8           0        1.991692   -3.901562    0.506391
     21          8           0        6.362646   -2.561649    0.470213
     22          8           0        4.359015    4.105103   -0.598460
     23          8           0        0.054149    2.744570   -1.146724
     24          6           0        1.765919    4.776897   -1.074079
     25          1           0        1.654500    4.881051   -2.156281
     26          1           0        0.809197    4.992604   -0.604482
     27          1           0        2.529520    5.464688   -0.724688
     28          6           0        4.558613   -4.614503    0.667412
     29          1           0        4.200988   -4.970500    1.634865
     30          1           0        4.121584   -5.236302   -0.113665
     31          1           0        5.641328   -4.668492    0.630434
     32          6           0       -0.863148    0.305379    0.174002
     33          6           0       -1.486297    1.306034    0.878158
     34         16           0       -2.041115   -0.813237   -0.480793
     35          6           0       -2.896719    1.173614    0.911291
     36          1           0       -0.944525    2.103776    1.362406
     37          6           0       -3.391137    0.073916    0.218547
     38          8           0       -3.764850    2.005897    1.551390
     39          6           0       -4.763414   -0.333823    0.051249
     40          6           0       -3.225955    3.145005    2.229862
     41          6           0       -5.255151   -1.434215   -0.640538
     42         16           0       -6.114904    0.565579    0.739883
     43          1           0       -4.079846    3.672078    2.650704
     44          1           0       -2.552481    2.838681    3.035051
     45          1           0       -2.697183    3.801368    1.533378
     46          6           0       -6.675028   -1.554227   -0.618689
     47          8           0       -4.388191   -2.279346   -1.264221
     48          6           0       -7.267842   -0.546675    0.087871
     49          1           0       -7.228335   -2.346321   -1.101899
     50          6           0       -4.932319   -3.409240   -1.953852
     51          1           0       -8.320711   -0.390612    0.266372
     52          1           0       -5.592963   -3.091726   -2.765313
     53          1           0       -4.079821   -3.944315   -2.367203
     54          1           0       -5.476059   -4.063025   -1.266368
 ---------------------------------------------------------------------

 The electronic state is 2-A.
 Alpha  occ. eigenvalues --  -88.88014 -88.87718 -19.16378 -19.16303 -19.09954
 Alpha  occ. eigenvalues --  -19.09916 -19.09620 -19.09456 -14.36743 -14.36384
 Alpha  occ. eigenvalues --  -10.28395 -10.28200 -10.28102 -10.27987 -10.24088
 Alpha  occ. eigenvalues --  -10.23975 -10.22513 -10.22465 -10.21362 -10.21265
 Alpha  occ. eigenvalues --  -10.21065 -10.20610 -10.20441 -10.20262 -10.20155
 Alpha  occ. eigenvalues --  -10.19750 -10.19630 -10.19380 -10.18943 -10.18896
 Alpha  occ. eigenvalues --  -10.18791 -10.18514 -10.18325 -10.18171 -10.18097
 Alpha  occ. eigenvalues --  -10.17778  -7.96576  -7.96286  -5.92885  -5.92601
 Alpha  occ. eigenvalues --   -5.92500  -5.92219  -5.92146  -5.91838  -1.07713
 Alpha  occ. eigenvalues --   -1.07598  -1.05879  -1.05647  -1.03825  -1.03550
 Alpha  occ. eigenvalues --   -0.93949  -0.93592  -0.89981  -0.89216  -0.87852
 Alpha  occ. eigenvalues --   -0.84155  -0.81835  -0.78814  -0.76534  -0.75831
 Alpha  occ. eigenvalues --   -0.75347  -0.74422  -0.73420  -0.72278  -0.70731
 Alpha  occ. eigenvalues --   -0.70322  -0.69342  -0.67528  -0.65116  -0.64011
 Alpha  occ. eigenvalues --   -0.63251  -0.62566  -0.59843  -0.58632  -0.56635
 Alpha  occ. eigenvalues --   -0.55676  -0.55370  -0.55032  -0.54001  -0.53137
 Alpha  occ. eigenvalues --   -0.51561  -0.49522  -0.48984  -0.48224  -0.47879
 Alpha  occ. eigenvalues --   -0.47772  -0.47731  -0.47434  -0.47227  -0.47020
 Alpha  occ. eigenvalues --   -0.46547  -0.45226  -0.45067  -0.44665  -0.44392
 Alpha  occ. eigenvalues --   -0.43928  -0.43154  -0.42892  -0.42336  -0.42082
 Alpha  occ. eigenvalues --   -0.41419  -0.41111  -0.40938  -0.40507  -0.40306
 Alpha  occ. eigenvalues --   -0.40180  -0.39867  -0.39467  -0.39090  -0.38739
 Alpha  occ. eigenvalues --   -0.38137  -0.37649  -0.37143  -0.36802  -0.35730
 Alpha  occ. eigenvalues --   -0.34926  -0.34419  -0.33563  -0.33348  -0.32996
 Alpha  occ. eigenvalues --   -0.32533  -0.30095  -0.29378  -0.28861  -0.28136
 Alpha  occ. eigenvalues --   -0.27972  -0.27289  -0.26890  -0.26367  -0.26176
 Alpha  occ. eigenvalues --   -0.24582  -0.24277  -0.23885  -0.19012  -0.15427
 Alpha virt. eigenvalues --   -0.06330  -0.05257  -0.03311  -0.02603  -0.00286
 Alpha virt. eigenvalues --    0.00212   0.00396   0.00675   0.00871   0.01317
 Alpha virt. eigenvalues --    0.01724   0.02282   0.02376   0.02481   0.02697

  Beta  occ. eigenvalues --  -88.88013 -88.87712 -19.16366 -19.16307 -19.09765
  Beta  occ. eigenvalues --  -19.09719 -19.09442 -19.09266 -14.36797 -14.36436
  Beta  occ. eigenvalues --  -10.28335 -10.28141 -10.28045 -10.27931 -10.24064
  Beta  occ. eigenvalues --  -10.23995 -10.22513 -10.22465 -10.21376 -10.21211
  Beta  occ. eigenvalues --  -10.21103 -10.20503 -10.20492 -10.20239 -10.20210
  Beta  occ. eigenvalues --  -10.19749 -10.19629 -10.19218 -10.18793 -10.18728
  Beta  occ. eigenvalues --  -10.18639 -10.18451 -10.18334 -10.18091 -10.18015
  Beta  occ. eigenvalues --  -10.17734  -7.96576  -7.96279  -5.92884  -5.92598
  Beta  occ. eigenvalues --   -5.92500  -5.92216  -5.92144  -5.91820  -1.07694
  Beta  occ. eigenvalues --   -1.07602  -1.05632  -1.05412  -1.03491  -1.03231
  Beta  occ. eigenvalues --   -0.93833  -0.93484  -0.89883  -0.89128  -0.87807
  Beta  occ. eigenvalues --   -0.83843  -0.81539  -0.78677  -0.76419  -0.75494
  Beta  occ. eigenvalues --   -0.75198  -0.74390  -0.73352  -0.72222  -0.70685
  Beta  occ. eigenvalues --   -0.70036  -0.69193  -0.67415  -0.64962  -0.63817
  Beta  occ. eigenvalues --   -0.63165  -0.62372  -0.59798  -0.58573  -0.56550
  Beta  occ. eigenvalues --   -0.55562  -0.55344  -0.54924  -0.53983  -0.52987
  Beta  occ. eigenvalues --   -0.51453  -0.49381  -0.48883  -0.47959  -0.47768
  Beta  occ. eigenvalues --   -0.47719  -0.47572  -0.47420  -0.47162  -0.46897
  Beta  occ. eigenvalues --   -0.46499  -0.45175  -0.44974  -0.44581  -0.44265
  Beta  occ. eigenvalues --   -0.43842  -0.42974  -0.42720  -0.42150  -0.41907
  Beta  occ. eigenvalues --   -0.41331  -0.41026  -0.40850  -0.40240  -0.39900
  Beta  occ. eigenvalues --   -0.39858  -0.39430  -0.39088  -0.38591  -0.38575
  Beta  occ. eigenvalues --   -0.38088  -0.37491  -0.36829  -0.36762  -0.35710
  Beta  occ. eigenvalues --   -0.34831  -0.34171  -0.33424  -0.33314  -0.32978
  Beta  occ. eigenvalues --   -0.32005  -0.29378  -0.28923  -0.28563  -0.27817
  Beta  occ. eigenvalues --   -0.27497  -0.26985  -0.26678  -0.26074  -0.25806
  Beta  occ. eigenvalues --   -0.24341  -0.24050  -0.22690  -0.18693
  Beta virt. eigenvalues --   -0.11108  -0.05730  -0.04386  -0.02512  -0.02247
  Beta virt. eigenvalues --   -0.00270   0.00376   0.00407   0.00681   0.00904
  Beta virt. eigenvalues --    0.01357   0.01739   0.02354   0.02551   0.02748

 Mulliken charges and spin densities:
               1          2
     1  C    0.386561   0.027141
     2  C   -0.172715   0.117065
     3  C    0.108451  -0.036404
     4  C    0.198872   0.102172
     5  C    0.267579   0.026120
     6  C   -0.378685   0.052504
     7  C    0.189612  -0.030589
     8  C    0.355238   0.118162
     9  C    0.397859   0.074370
    10  C   -0.542181   0.025742
    11  C    0.262976   0.025520
    12  C    0.090419   0.100736
    13  C   -0.485465   0.060213
    14  C   -0.603357   0.063867
    15  H    0.144224  -0.004331
    16  H    0.144436  -0.004172
    17  H    0.153294  -0.002683
    18  N   -0.048928  -0.021876
    19  N   -0.134099  -0.022923
    20  O   -0.433884   0.073427
    21  O   -0.417107   0.070183
    22  O   -0.430308   0.066764
    23  O   -0.326986   0.070975
    24  C   -0.196604   0.001368
    25  H    0.177506  -0.001196
    26  H    0.171731  -0.000510
    27  H    0.172817  -0.000449
    28  C   -0.210157   0.001202
    29  H    0.174444  -0.001037
    30  H    0.170057  -0.000890
    31  H    0.173895  -0.000334
    32  C    0.095706  -0.033904
    33  C   -0.519434   0.029051
    34  S   -0.580533   0.013860
    35  C   -0.314351  -0.009976
    36  H    0.153756  -0.002230
    37  C    0.686236   0.036839
    38  O   -0.164588  -0.000652
    39  C    0.761173  -0.011209
    40  C   -0.238069   0.000121
    41  C    0.012238   0.016282
    42  S   -0.233332  -0.000063
    43  H    0.174707  -0.000005
    44  H    0.160827  -0.000117
    45  H    0.162332  -0.000204
    46  C   -0.607316  -0.006747
    47  O   -0.165353   0.002663
    48  C   -0.328283   0.016483
    49  H    0.159416   0.000304
    50  C   -0.251448  -0.000080
    51  H    0.186689  -0.000981
    52  H    0.158480   0.000211
    53  H    0.172669  -0.000002
    54  H    0.158981   0.000222
 Sum of Mulliken charges =  -1.00000   1.00000

 Dipole moment (field-independent basis, Debye):
    X=            -15.0946    Y=             -0.5203    Z=              1.2761  Tot=             15.1574
 Quadrupole moment (field-independent basis, Debye-Ang):
   XX=           -296.2746   YY=           -252.0219   ZZ=           -223.0649
   XY=              8.6077   XZ=              3.4318   YZ=             23.2640

 Normal termination of Gaussian 16 at Thu Oct 28 08:29:51 2021.
