 Gaussian 16, Revision C.01,
 Gaussian 16:  ES64L-G16RevC.01  3-Jul-2019

 -------------------------------------
 # opt=modredundant b3lyp/6-311+g(d,p)
 -------------------------------------

 --------------
 pBTTT_-110.pdb
 --------------
 Symbolic Z-matrix:
 Charge =  0 Multiplicity = 1

 SCF Done:  E(RB3LYP) =  -1654.53034456     A.U. after   16 cycles
 SCF Done:  E(RB3LYP) =  -1654.58345308     A.U. after   14 cycles
 SCF Done:  E(RB3LYP) =  -1654.61752325     A.U. after   15 cycles
 SCF Done:  E(RB3LYP) =  -1654.62669901     A.U. after   15 cycles
 SCF Done:  E(RB3LYP) =  -1654.62890327     A.U. after   14 cycles
 SCF Done:  E(RB3LYP) =  -1654.62946499     A.U. after   13 cycles
 SCF Done:  E(RB3LYP) =  -1654.62964065     A.U. after   14 cycles
 SCF Done:  E(RB3LYP) =  -1654.62980236     A.U. after   13 cycles
 SCF Done:  E(RB3LYP) =  -1654.62982145     A.U. after   12 cycles
 SCF Done:  E(RB3LYP) =  -1654.62983246     A.U. after   12 cycles
 SCF Done:  E(RB3LYP) =  -1654.62983556     A.U. after   11 cycles
 SCF Done:  E(RB3LYP) =  -1654.62983573     A.U. after   11 cycles
 SCF Done:  E(RB3LYP) =  -1654.62983575     A.U. after   10 cycles
 Optimization completed.
    -- Stationary point found.

                         Standard orientation:
 ---------------------------------------------------------------------
 Center     Atomic      Atomic             Coordinates (Angstroms)
 Number     Number       Type             X           Y           Z
 ---------------------------------------------------------------------
      1          6           0        3.939487    0.756174    0.289481
      2          6           0        2.542433    0.991776    0.465447
      3          6           0        1.739217    0.039368   -0.118100
      4          6           0        4.189157   -0.384491   -0.417002
      5          1           0        4.714444    1.406696    0.676670
      6         16           0        2.734988   -1.182707   -0.893230
      7          1           0        5.147731   -0.797103   -0.691493
      8          6           0        0.285439   -0.048154   -0.090648
      9         16           0       -0.515238   -1.331732    0.835554
     10          6           0       -2.083109   -0.696037    0.426660
     11          6           0       -1.960722    0.445888   -0.355120
     12          6           0       -0.620950    0.813684   -0.650866
     13          1           0       -0.323219    1.665835   -1.245491
     14         16           0       -3.531853    1.082507   -0.764934
     15          6           0       -4.311621   -0.205750    0.124250
     16          6           0       -3.429170   -1.073204    0.700546
     17          1           0       -5.389731   -0.236311    0.165433
     18          1           0       -3.729070   -1.929310    1.288731
     19          8           0        2.013971    2.052192    1.143959
     20          1           0        2.720750    2.548046    1.568356
 ---------------------------------------------------------------------

 The electronic state is 1-A.
 Alpha  occ. eigenvalues --  -88.88447 -88.88069 -88.87801 -19.16752 -10.24884
 Alpha  occ. eigenvalues --  -10.21824 -10.21395 -10.21044 -10.20744 -10.20707
 Alpha  occ. eigenvalues --  -10.20671 -10.19183 -10.18996 -10.18861  -7.97041
 Alpha  occ. eigenvalues --   -7.96644  -7.96373  -5.93340  -5.92966  -5.92955
 Alpha  occ. eigenvalues --   -5.92689  -5.92621  -5.92591  -5.92328  -5.92193
 Alpha  occ. eigenvalues --   -5.91907  -1.07828  -0.91219  -0.89209  -0.84619
 Alpha  occ. eigenvalues --   -0.76970  -0.76049  -0.74167  -0.70994  -0.70120
 Alpha  occ. eigenvalues --   -0.61745  -0.60823  -0.57117  -0.55815  -0.53888
 Alpha  occ. eigenvalues --   -0.51835  -0.49317  -0.48403  -0.45313  -0.43620
 Alpha  occ. eigenvalues --   -0.43310  -0.41319  -0.40902  -0.39542  -0.39011
 Alpha  occ. eigenvalues --   -0.37780  -0.36790  -0.36021  -0.35711  -0.33893
 Alpha  occ. eigenvalues --   -0.33479  -0.28653  -0.25954  -0.24083  -0.23196
 Alpha  occ. eigenvalues --   -0.21468
 Alpha virt. eigenvalues --   -0.04707  -0.03070  -0.01626  -0.00105   0.00145
 Alpha virt. eigenvalues --    0.00381   0.00826   0.01679   0.02056   0.02809
 Alpha virt. eigenvalues --    0.02999   0.03674   0.03853   0.04445   0.04709

 Mulliken charges:
               1
     1  C   -0.146419
     2  C   -0.288605
     3  C    0.319192
     4  C   -0.173885
     5  H    0.120361
     6  S   -0.198939
     7  H    0.163984
     8  C    0.125776
     9  S   -0.535473
    10  C    0.102405
    11  C   -0.320806
    12  C    0.624733
    13  H    0.130760
    14  S   -0.389219
    15  C   -0.217332
    16  C    0.355591
    17  H    0.166239
    18  H    0.134208
    19  O   -0.226229
    20  H    0.253658
 Sum of Mulliken charges =  -0.00000

 Dipole moment (field-independent basis, Debye):
    X=              1.9278    Y=              0.8547    Z=              0.6656  Tot=              2.2113
 Quadrupole moment (field-independent basis, Debye-Ang):
   XX=            -79.6412   YY=            -98.5069   ZZ=           -103.8212
   XY=              7.8655   XZ=              1.2677   YZ=              0.4435

 Normal termination of Gaussian 16 at Sun Oct 17 01:47:27 2021.
