 Gaussian 16, Revision C.01,
 Gaussian 16:  ES64L-G16RevC.01  3-Jul-2019

 -------------------------------------
 # opt=modredundant b3lyp/6-311+g(d,p)
 -------------------------------------

 --------------
 pBTTT_-100.pdb
 --------------
 Symbolic Z-matrix:
 Charge =  0 Multiplicity = 1

 SCF Done:  E(RB3LYP) =  -1654.52990853     A.U. after   16 cycles
 SCF Done:  E(RB3LYP) =  -1654.58308821     A.U. after   14 cycles
 SCF Done:  E(RB3LYP) =  -1654.61722245     A.U. after   15 cycles
 SCF Done:  E(RB3LYP) =  -1654.62634356     A.U. after   15 cycles
 SCF Done:  E(RB3LYP) =  -1654.62849205     A.U. after   14 cycles
 SCF Done:  E(RB3LYP) =  -1654.62901134     A.U. after   13 cycles
 SCF Done:  E(RB3LYP) =  -1654.62921773     A.U. after   13 cycles
 SCF Done:  E(RB3LYP) =  -1654.62935967     A.U. after   13 cycles
 SCF Done:  E(RB3LYP) =  -1654.62937900     A.U. after   13 cycles
 SCF Done:  E(RB3LYP) =  -1654.62939117     A.U. after   12 cycles
 SCF Done:  E(RB3LYP) =  -1654.62939459     A.U. after   11 cycles
 SCF Done:  E(RB3LYP) =  -1654.62939478     A.U. after   10 cycles
 SCF Done:  E(RB3LYP) =  -1654.62939483     A.U. after   10 cycles
 Optimization completed.
    -- Stationary point found.

                         Standard orientation:
 ---------------------------------------------------------------------
 Center     Atomic      Atomic             Coordinates (Angstroms)
 Number     Number       Type             X           Y           Z
 ---------------------------------------------------------------------
      1          6           0        3.952833    0.705573    0.298197
      2          6           0        2.560863    0.930311    0.524449
      3          6           0        1.740537    0.030639   -0.114541
      4          6           0        4.180227   -0.373894   -0.505399
      5          1           0        4.739693    1.320501    0.718156
      6         16           0        2.712062   -1.128420   -1.007909
      7          1           0        5.130433   -0.764538   -0.835704
      8          6           0        0.283987   -0.043963   -0.074616
      9         16           0       -0.520315   -1.220623    0.980192
     10          6           0       -2.086323   -0.635915    0.496803
     11          6           0       -1.961351    0.408979   -0.410417
     12          6           0       -0.619946    0.744343   -0.736717
     13          1           0       -0.319087    1.525483   -1.420856
     14         16           0       -3.530852    0.995817   -0.894334
     15          6           0       -4.313725   -0.181107    0.135162
     16          6           0       -3.433779   -0.976950    0.809894
     17          1           0       -5.391991   -0.206529    0.176246
     18          1           0       -3.736020   -1.759420    1.491944
     19          8           0        2.051502    1.933996    1.296318
     20          1           0        2.770696    2.416060    1.715590
 ---------------------------------------------------------------------

 The electronic state is 1-A.
 Alpha  occ. eigenvalues --  -88.88412 -88.88085 -88.87768 -19.16718 -10.24865
 Alpha  occ. eigenvalues --  -10.21793 -10.21379 -10.20957 -10.20755 -10.20733
 Alpha  occ. eigenvalues --  -10.20673 -10.19152 -10.19004 -10.18923  -7.97004
 Alpha  occ. eigenvalues --   -7.96660  -7.96339  -5.93302  -5.92971  -5.92928
 Alpha  occ. eigenvalues --   -5.92654  -5.92607  -5.92586  -5.92292  -5.92209
 Alpha  occ. eigenvalues --   -5.91876  -1.07807  -0.91215  -0.89175  -0.84617
 Alpha  occ. eigenvalues --   -0.76948  -0.76023  -0.74128  -0.71000  -0.70132
 Alpha  occ. eigenvalues --   -0.61708  -0.60794  -0.57132  -0.55782  -0.53868
 Alpha  occ. eigenvalues --   -0.51854  -0.49340  -0.48367  -0.45280  -0.43621
 Alpha  occ. eigenvalues --   -0.43274  -0.41351  -0.40918  -0.39492  -0.39019
 Alpha  occ. eigenvalues --   -0.37757  -0.36823  -0.36027  -0.35670  -0.33885
 Alpha  occ. eigenvalues --   -0.33403  -0.28640  -0.25826  -0.23738  -0.23106
 Alpha  occ. eigenvalues --   -0.21940
 Alpha virt. eigenvalues --   -0.04406  -0.03350  -0.01636  -0.00145   0.00163
 Alpha virt. eigenvalues --    0.00344   0.00757   0.01672   0.02061   0.02811
 Alpha virt. eigenvalues --    0.03010   0.03644   0.03855   0.04331   0.04727

 Mulliken charges:
               1
     1  C   -0.118514
     2  C   -0.326989
     3  C    0.276553
     4  C   -0.176872
     5  H    0.120296
     6  S   -0.140432
     7  H    0.163848
     8  C    0.147799
     9  S   -0.499458
    10  C    0.137830
    11  C   -0.419547
    12  C    0.619657
    13  H    0.130652
    14  S   -0.385295
    15  C   -0.219981
    16  C    0.358501
    17  H    0.166338
    18  H    0.134506
    19  O   -0.225764
    20  H    0.256873
 Sum of Mulliken charges =  -0.00000

 Dipole moment (field-independent basis, Debye):
    X=              1.9172    Y=              0.8260    Z=              0.6255  Tot=              2.1792
 Quadrupole moment (field-independent basis, Debye-Ang):
   XX=            -79.3946   YY=            -99.7763   ZZ=           -102.6790
   XY=              7.5200   XZ=              1.0468   YZ=              0.2952

 Normal termination of Gaussian 16 at Sun Oct 17 01:55:15 2021.
