 Gaussian 16, Revision C.01,
 Gaussian 16:  ES64L-G16RevC.01  3-Jul-2019

 -------------------------------------
 # opt=modredundant b3lyp/6-311+g(d,p)
 -------------------------------------

 --------------
 pBTTT_-175.pdb
 --------------
 Symbolic Z-matrix:
 Charge =  0 Multiplicity = 1

 SCF Done:  E(RB3LYP) =  -1654.53529543     A.U. after   17 cycles
 SCF Done:  E(RB3LYP) =  -1654.58776155     A.U. after   15 cycles
 SCF Done:  E(RB3LYP) =  -1654.62082289     A.U. after   15 cycles
 SCF Done:  E(RB3LYP) =  -1654.62968075     A.U. after   15 cycles
 SCF Done:  E(RB3LYP) =  -1654.63176707     A.U. after   15 cycles
 SCF Done:  E(RB3LYP) =  -1654.63230154     A.U. after   12 cycles
 SCF Done:  E(RB3LYP) =  -1654.63237534     A.U. after   14 cycles
 SCF Done:  E(RB3LYP) =  -1654.63256694     A.U. after   12 cycles
 SCF Done:  E(RB3LYP) =  -1654.63257435     A.U. after   12 cycles
 SCF Done:  E(RB3LYP) =  -1654.63257941     A.U. after   11 cycles
 SCF Done:  E(RB3LYP) =  -1654.63258138     A.U. after    9 cycles
 SCF Done:  E(RB3LYP) =  -1654.63258144     A.U. after    9 cycles
 Optimization completed.
    -- Stationary point found.

                         Standard orientation:
 ---------------------------------------------------------------------
 Center     Atomic      Atomic             Coordinates (Angstroms)
 Number     Number       Type             X           Y           Z
 ---------------------------------------------------------------------
      1          6           0        3.930760    0.888549    0.021358
      2          6           0        2.534234    1.165291    0.036368
      3          6           0        1.734026    0.039102   -0.005291
      4          6           0        4.198275   -0.447964   -0.034191
      5          1           0        4.695719    1.655183    0.050472
      6         16           0        2.751209   -1.391642   -0.075524
      7          1           0        5.159391   -0.936926   -0.056612
      8          6           0        0.290165   -0.036659   -0.002532
      9         16           0       -0.527819   -1.610525    0.071637
     10          6           0       -2.091254   -0.841860    0.033170
     11          6           0       -1.954297    0.538241   -0.025396
     12          6           0       -0.614441    1.002699   -0.046376
     13          1           0       -0.311617    2.036841   -0.092882
     14         16           0       -3.520178    1.306458   -0.061069
     15          6           0       -4.313999   -0.251240    0.003600
     16          6           0       -3.438099   -1.298589    0.050194
     17          1           0       -5.392467   -0.291329    0.003207
     18          1           0       -3.745516   -2.334175    0.093870
     19          8           0        1.998287    2.423031    0.086652
     20          1           0        2.704593    3.072088    0.162613
 ---------------------------------------------------------------------

 The electronic state is 1-A.
 Alpha  occ. eigenvalues --  -88.88694 -88.87953 -88.87877 -19.17430 -10.25029
 Alpha  occ. eigenvalues --  -10.22220 -10.21712 -10.21494 -10.20671 -10.20605
 Alpha  occ. eigenvalues --  -10.20552 -10.19412 -10.18938 -10.18361  -7.97302
 Alpha  occ. eigenvalues --   -7.96527  -7.96468  -5.93612  -5.93234  -5.92859
 Alpha  occ. eigenvalues --   -5.92839  -5.92795  -5.92476  -5.92435  -5.92076
 Alpha  occ. eigenvalues --   -5.91977  -1.08383  -0.91248  -0.89459  -0.84629
 Alpha  occ. eigenvalues --   -0.77114  -0.76217  -0.74472  -0.70936  -0.70095
 Alpha  occ. eigenvalues --   -0.62037  -0.61274  -0.57015  -0.56232  -0.53770
 Alpha  occ. eigenvalues --   -0.51878  -0.49446  -0.48440  -0.45434  -0.43813
 Alpha  occ. eigenvalues --   -0.43666  -0.41145  -0.40886  -0.39890  -0.39133
 Alpha  occ. eigenvalues --   -0.37820  -0.36742  -0.36655  -0.35581  -0.34205
 Alpha  occ. eigenvalues --   -0.33603  -0.28909  -0.26960  -0.24966  -0.23313
 Alpha  occ. eigenvalues --   -0.19832
 Alpha virt. eigenvalues --   -0.05959  -0.02400  -0.01109  -0.00975   0.00387
 Alpha virt. eigenvalues --    0.00580   0.01347   0.01448   0.02149   0.02688
 Alpha virt. eigenvalues --    0.03402   0.03792   0.04233   0.04726   0.04852

 Mulliken charges:
               1
     1  C   -0.376423
     2  C    0.521269
     3  C    0.491192
     4  C   -0.087771
     5  H    0.118371
     6  S   -0.547917
     7  H    0.162136
     8  C   -0.024498
     9  S   -0.616805
    10  C    0.270746
    11  C    0.275876
    12  C    0.053899
    13  H    0.151875
    14  S   -0.407385
    15  C   -0.156723
    16  C   -0.142163
    17  H    0.166080
    18  H    0.132798
    19  O   -0.244005
    20  H    0.259448
 Sum of Mulliken charges =  -0.00000

 Dipole moment (field-independent basis, Debye):
    X=              2.1651    Y=              1.1431    Z=              0.1095  Tot=              2.4508
 Quadrupole moment (field-independent basis, Debye-Ang):
   XX=            -79.5510   YY=            -93.2131   ZZ=           -109.0439
   XY=              9.8115   XZ=              0.3015   YZ=              0.3314

 Normal termination of Gaussian 16 at Sun Oct 17 01:35:33 2021.
