 Gaussian 16, Revision C.01,
 Gaussian 16:  ES64L-G16RevC.01  3-Jul-2019

 -------------------------------------
 # opt=modredundant b3lyp/6-311+g(d,p)
 -------------------------------------

 --------------
 pBTTT_-105.pdb
 --------------
 Symbolic Z-matrix:
 Charge =  0 Multiplicity = 1

 SCF Done:  E(RB3LYP) =  -1654.52995754     A.U. after   16 cycles
 SCF Done:  E(RB3LYP) =  -1654.58315099     A.U. after   14 cycles
 SCF Done:  E(RB3LYP) =  -1654.61733752     A.U. after   15 cycles
 SCF Done:  E(RB3LYP) =  -1654.62649015     A.U. after   15 cycles
 SCF Done:  E(RB3LYP) =  -1654.62866431     A.U. after   14 cycles
 SCF Done:  E(RB3LYP) =  -1654.62919976     A.U. after   14 cycles
 SCF Done:  E(RB3LYP) =  -1654.62940020     A.U. after   13 cycles
 SCF Done:  E(RB3LYP) =  -1654.62954917     A.U. after   13 cycles
 SCF Done:  E(RB3LYP) =  -1654.62956878     A.U. after   13 cycles
 SCF Done:  E(RB3LYP) =  -1654.62958057     A.U. after   12 cycles
 SCF Done:  E(RB3LYP) =  -1654.62958387     A.U. after   11 cycles
 SCF Done:  E(RB3LYP) =  -1654.62958405     A.U. after   11 cycles
 SCF Done:  E(RB3LYP) =  -1654.62958409     A.U. after   10 cycles
 Optimization completed.
    -- Stationary point found.

                         Standard orientation:
 ---------------------------------------------------------------------
 Center     Atomic      Atomic             Coordinates (Angstroms)
 Number     Number       Type             X           Y           Z
 ---------------------------------------------------------------------
      1          6           0        3.945452    0.732149    0.296560
      2          6           0        2.550477    0.961138    0.497663
      3          6           0        1.739981    0.035245   -0.116666
      4          6           0        4.185530   -0.377118   -0.461422
      5          1           0        4.725565    1.364903    0.702392
      6         16           0        2.725356   -1.153998   -0.953564
      7          1           0        5.140585   -0.777906   -0.764368
      8          6           0        0.284712   -0.046946   -0.083701
      9         16           0       -0.517714   -1.281301    0.905103
     10          6           0       -2.084664   -0.668533    0.460343
     11          6           0       -1.961065    0.429152   -0.382355
     12          6           0       -0.620468    0.781678   -0.693134
     13          1           0       -0.321149    1.601331   -1.331223
     14         16           0       -3.531406    1.043361   -0.827931
     15          6           0       -4.312647   -0.194016    0.129468
     16          6           0       -3.431424   -1.029032    0.753402
     17          1           0       -5.390833   -0.221975    0.170807
     18          1           0       -3.732457   -1.851528    1.387191
     19          8           0        2.030056    1.991606    1.226075
     20          1           0        2.742766    2.481025    1.647932
 ---------------------------------------------------------------------

 The electronic state is 1-A.
 Alpha  occ. eigenvalues --  -88.88426 -88.88078 -88.87783 -19.16732 -10.24874
 Alpha  occ. eigenvalues --  -10.21805 -10.21387 -10.20994 -10.20751 -10.20722
 Alpha  occ. eigenvalues --  -10.20672 -10.19166 -10.19000 -10.18895  -7.97020
 Alpha  occ. eigenvalues --   -7.96652  -7.96355  -5.93318  -5.92964  -5.92944
 Alpha  occ. eigenvalues --   -5.92670  -5.92600  -5.92600  -5.92309  -5.92202
 Alpha  occ. eigenvalues --   -5.91890  -1.07816  -0.91217  -0.89189  -0.84618
 Alpha  occ. eigenvalues --   -0.76958  -0.76034  -0.74145  -0.70997  -0.70126
 Alpha  occ. eigenvalues --   -0.61724  -0.60806  -0.57125  -0.55794  -0.53881
 Alpha  occ. eigenvalues --   -0.51843  -0.49329  -0.48383  -0.45295  -0.43619
 Alpha  occ. eigenvalues --   -0.43288  -0.41335  -0.40911  -0.39514  -0.39016
 Alpha  occ. eigenvalues --   -0.37769  -0.36807  -0.36025  -0.35687  -0.33889
 Alpha  occ. eigenvalues --   -0.33437  -0.28645  -0.25880  -0.23908  -0.23154
 Alpha  occ. eigenvalues --   -0.21708
 Alpha virt. eigenvalues --   -0.04552  -0.03214  -0.01633  -0.00120   0.00155
 Alpha virt. eigenvalues --    0.00362   0.00787   0.01678   0.02056   0.02815
 Alpha virt. eigenvalues --    0.02997   0.03656   0.03859   0.04379   0.04719

 Mulliken charges:
               1
     1  C   -0.133937
     2  C   -0.300010
     3  C    0.287609
     4  C   -0.172946
     5  H    0.120326
     6  S   -0.169010
     7  H    0.163906
     8  C    0.126367
     9  S   -0.519140
    10  C    0.120704
    11  C   -0.374044
    12  C    0.633090
    13  H    0.130401
    14  S   -0.387060
    15  C   -0.219274
    16  C    0.362508
    17  H    0.166288
    18  H    0.134356
    19  O   -0.225342
    20  H    0.255209
 Sum of Mulliken charges =  -0.00000

 Dipole moment (field-independent basis, Debye):
    X=              1.9198    Y=              0.8426    Z=              0.6465  Tot=              2.1940
 Quadrupole moment (field-independent basis, Debye-Ang):
   XX=            -79.5263   YY=            -99.1178   ZZ=           -103.2626
   XY=              7.7054   XZ=              1.1681   YZ=              0.3617

 Normal termination of Gaussian 16 at Sun Oct 17 02:00:02 2021.
