 Gaussian 16, Revision C.01,
 Gaussian 16:  ES64L-G16RevC.01  3-Jul-2019

 -------------------------------------
 # opt=modredundant b3lyp/6-311+g(d,p)
 -------------------------------------

 -------------
 pBTTT_-30.pdb
 -------------
 Symbolic Z-matrix:
 Charge =  0 Multiplicity = 1

 SCF Done:  E(RB3LYP) =  -1654.53548434     A.U. after   17 cycles
 SCF Done:  E(RB3LYP) =  -1654.58800332     A.U. after   15 cycles
 SCF Done:  E(RB3LYP) =  -1654.62045305     A.U. after   15 cycles
 SCF Done:  E(RB3LYP) =  -1654.62950809     A.U. after   17 cycles
 SCF Done:  E(RB3LYP) =  -1654.63148106     A.U. after   14 cycles
 SCF Done:  E(RB3LYP) =  -1654.63194028     A.U. after   14 cycles
 SCF Done:  E(RB3LYP) =  -1654.63196748     A.U. after   13 cycles
 SCF Done:  E(RB3LYP) =  -1654.63212739     A.U. after   12 cycles
 SCF Done:  E(RB3LYP) =  -1654.63214036     A.U. after   12 cycles
 SCF Done:  E(RB3LYP) =  -1654.63214393     A.U. after   11 cycles
 SCF Done:  E(RB3LYP) =  -1654.63214659     A.U. after   10 cycles
 Optimization completed.
    -- Stationary point found.

                         Standard orientation:
 ---------------------------------------------------------------------
 Center     Atomic      Atomic             Coordinates (Angstroms)
 Number     Number       Type             X           Y           Z
 ---------------------------------------------------------------------
      1          6           0       -4.027204    0.355776    0.187530
      2          6           0       -2.688865    0.841360    0.251150
      3          6           0       -1.729605   -0.117593    0.000896
      4          6           0       -4.085576   -0.973632   -0.113404
      5          1           0       -4.900116    0.972792    0.363249
      6         16           0       -2.512488   -1.652649   -0.339708
      7          1           0       -4.961430   -1.593876   -0.223015
      8          6           0       -0.286130   -0.011869    0.025911
      9         16           0        0.527654    1.514304   -0.363814
     10          6           0        2.089180    0.760322   -0.202257
     11          6           0        1.959184   -0.582850    0.126166
     12          6           0        0.618806   -1.023728    0.260040
     13          1           0        0.322350   -2.028577    0.527984
     14         16           0        3.526352   -1.324899    0.317222
     15          6           0        4.315422    0.193672   -0.049357
     16          6           0        3.437005    1.208795   -0.298945
     17          1           0        5.393836    0.234388   -0.061743
     18          1           0        3.742256    2.216980   -0.542682
     19          8           0       -2.342517    2.131177    0.538805
     20          1           0       -3.134364    2.659270    0.680160
 ---------------------------------------------------------------------

 The electronic state is 1-A.
 Alpha  occ. eigenvalues --  -88.88641 -88.87928 -88.87686 -19.17122 -10.24975
 Alpha  occ. eigenvalues --  -10.22168 -10.21509 -10.21500 -10.20617 -10.20527
 Alpha  occ. eigenvalues --  -10.20460 -10.19375 -10.18856 -10.18704  -7.97242
 Alpha  occ. eigenvalues --   -7.96502  -7.96238  -5.93551  -5.93174  -5.92816
 Alpha  occ. eigenvalues --   -5.92803  -5.92565  -5.92452  -5.92194  -5.92049
 Alpha  occ. eigenvalues --   -5.91758  -1.08177  -0.91179  -0.89393  -0.84582
 Alpha  occ. eigenvalues --   -0.77061  -0.76141  -0.74403  -0.70890  -0.70133
 Alpha  occ. eigenvalues --   -0.61934  -0.61182  -0.57219  -0.56071  -0.53218
 Alpha  occ. eigenvalues --   -0.52126  -0.49292  -0.48671  -0.45324  -0.43779
 Alpha  occ. eigenvalues --   -0.43680  -0.41206  -0.40919  -0.39459  -0.38908
 Alpha  occ. eigenvalues --   -0.38075  -0.36883  -0.36357  -0.35595  -0.33978
 Alpha  occ. eigenvalues --   -0.33477  -0.28766  -0.26714  -0.24833  -0.23152
 Alpha  occ. eigenvalues --   -0.20105
 Alpha virt. eigenvalues --   -0.05717  -0.01927  -0.01630  -0.00106   0.00056
 Alpha virt. eigenvalues --    0.00277   0.01265   0.01710   0.02288   0.02813
 Alpha virt. eigenvalues --    0.03128   0.03685   0.04170   0.04444   0.04719

 Mulliken charges:
               1
     1  C   -0.220768
     2  C   -0.072959
     3  C    0.606137
     4  C   -0.104935
     5  H    0.119009
     6  S   -0.443763
     7  H    0.163800
     8  C    0.229390
     9  S   -0.401818
    10  C    0.341058
    11  C    0.205876
    12  C   -0.089015
    13  H    0.137331
    14  S   -0.419923
    15  C   -0.135609
    16  C   -0.232416
    17  H    0.165475
    18  H    0.133446
    19  O   -0.237862
    20  H    0.257548
 Sum of Mulliken charges =  -0.00000

 Dipole moment (field-independent basis, Debye):
    X=             -2.3380    Y=              0.8632    Z=              0.2497  Tot=              2.5047
 Quadrupole moment (field-independent basis, Debye-Ang):
   XX=            -78.1809   YY=            -95.3370   ZZ=           -108.1995
   XY=             -1.5912   XZ=             -2.4929   YZ=             -0.0075

 Normal termination of Gaussian 16 at Sun Oct 17 02:03:32 2021.
