 Gaussian 16, Revision C.01,
 Gaussian 16:  ES64L-G16RevC.01  3-Jul-2019

 -------------------------------------
 # opt=modredundant b3lyp/6-311+g(d,p)
 -------------------------------------

 --------------
 pBTTT_-140.pdb
 --------------
 Symbolic Z-matrix:
 Charge =  0 Multiplicity = 1

 SCF Done:  E(RB3LYP) =  -1654.53360196     A.U. after   16 cycles
 SCF Done:  E(RB3LYP) =  -1654.58634467     A.U. after   14 cycles
 SCF Done:  E(RB3LYP) =  -1654.61984636     A.U. after   15 cycles
 SCF Done:  E(RB3LYP) =  -1654.62885600     A.U. after   15 cycles
 SCF Done:  E(RB3LYP) =  -1654.63103956     A.U. after   14 cycles
 SCF Done:  E(RB3LYP) =  -1654.63157479     A.U. after   13 cycles
 SCF Done:  E(RB3LYP) =  -1654.63167547     A.U. after   13 cycles
 SCF Done:  E(RB3LYP) =  -1654.63185416     A.U. after   12 cycles
 SCF Done:  E(RB3LYP) =  -1654.63186775     A.U. after   11 cycles
 SCF Done:  E(RB3LYP) =  -1654.63187550     A.U. after   11 cycles
 SCF Done:  E(RB3LYP) =  -1654.63187778     A.U. after   10 cycles
 SCF Done:  E(RB3LYP) =  -1654.63187787     A.U. after    8 cycles
 Optimization completed.
    -- Stationary point found.

                         Standard orientation:
 ---------------------------------------------------------------------
 Center     Atomic      Atomic             Coordinates (Angstroms)
 Number     Number       Type             X           Y           Z
 ---------------------------------------------------------------------
      1          6           0        3.925859    0.850875    0.191264
      2          6           0        2.527028    1.115135    0.266030
      3          6           0        1.735336    0.041912   -0.084618
      4          6           0        4.194787   -0.425654   -0.209440
      5          1           0        4.690081    1.580778    0.429635
      6         16           0        2.751440   -1.320505   -0.526272
      7          1           0        5.158463   -0.890117   -0.348891
      8          6           0        0.289459   -0.044224   -0.072654
      9         16           0       -0.517223   -1.526101    0.476821
     10          6           0       -2.083486   -0.800764    0.241316
     11          6           0       -1.954485    0.509806   -0.200333
     12          6           0       -0.615126    0.942781   -0.381513
     13          1           0       -0.314967    1.922836   -0.721890
     14         16           0       -3.523349    1.236814   -0.428874
     15          6           0       -4.309534   -0.242717    0.074212
     16          6           0       -3.429614   -1.235772    0.397456
     17          1           0       -5.387790   -0.281264    0.100003
     18          1           0       -3.732709   -2.218857    0.729937
     19          8           0        1.982795    2.312144    0.640808
     20          1           0        2.669337    2.877880    1.007609
 ---------------------------------------------------------------------

 The electronic state is 1-A.
 Alpha  occ. eigenvalues --  -88.88602 -88.88006 -88.87881 -19.17031 -10.24928
 Alpha  occ. eigenvalues --  -10.22012 -10.21439 -10.21408 -10.20706 -10.20650
 Alpha  occ. eigenvalues --  -10.20612 -10.19312 -10.18962 -10.18610  -7.97202
 Alpha  occ. eigenvalues --   -7.96580  -7.96460  -5.93506  -5.93131  -5.92892
 Alpha  occ. eigenvalues --   -5.92782  -5.92771  -5.92528  -5.92422  -5.92129
 Alpha  occ. eigenvalues --   -5.91982  -1.08031  -0.91245  -0.89355  -0.84637
 Alpha  occ. eigenvalues --   -0.77061  -0.76156  -0.74341  -0.70973  -0.70091
 Alpha  occ. eigenvalues --   -0.61908  -0.61021  -0.57059  -0.56022  -0.53846
 Alpha  occ. eigenvalues --   -0.51826  -0.49290  -0.48496  -0.45392  -0.43690
 Alpha  occ. eigenvalues --   -0.43519  -0.41248  -0.40828  -0.39761  -0.39032
 Alpha  occ. eigenvalues --   -0.37818  -0.36762  -0.36085  -0.35849  -0.33971
 Alpha  occ. eigenvalues --   -0.33699  -0.28770  -0.26565  -0.24742  -0.23333
 Alpha  occ. eigenvalues --   -0.20362
 Alpha virt. eigenvalues --   -0.05499  -0.02461  -0.01464  -0.00410   0.00298
 Alpha virt. eigenvalues --    0.00488   0.01098   0.01587   0.02122   0.02700
 Alpha virt. eigenvalues --    0.03257   0.03757   0.03919   0.04680   0.04747

 Mulliken charges:
               1
     1  C   -0.178437
     2  C   -0.252011
     3  C    0.541136
     4  C   -0.160867
     5  H    0.120449
     6  S   -0.348679
     7  H    0.163718
     8  C    0.486621
     9  S   -0.511160
    10  C    0.388234
    11  C    0.155550
    12  C   -0.024007
    13  H    0.140991
    14  S   -0.404685
    15  C   -0.132795
    16  C   -0.288602
    17  H    0.166022
    18  H    0.134009
    19  O   -0.250117
    20  H    0.254631
 Sum of Mulliken charges =  -0.00000

 Dipole moment (field-independent basis, Debye):
    X=              2.0202    Y=              0.9814    Z=              0.6008  Tot=              2.3250
 Quadrupole moment (field-independent basis, Debye-Ang):
   XX=            -79.9282   YY=            -95.3994   ZZ=           -106.8524
   XY=              8.8378   XZ=              1.3523   YZ=              0.9499

 Normal termination of Gaussian 16 at Sun Oct 17 01:44:30 2021.
