 Gaussian 16, Revision C.01,
 Gaussian 16:  ES64L-G16RevC.01  3-Jul-2019

 -------------------------------------
 # opt=modredundant b3lyp/6-311+g(d,p)
 -------------------------------------

 -------------
 pBTTT_-65.pdb
 -------------
 Symbolic Z-matrix:
 Charge =  0 Multiplicity = 1

 SCF Done:  E(RB3LYP) =  -1654.53147273     A.U. after   17 cycles
 SCF Done:  E(RB3LYP) =  -1654.58460534     A.U. after   14 cycles
 SCF Done:  E(RB3LYP) =  -1654.61823945     A.U. after   15 cycles
 SCF Done:  E(RB3LYP) =  -1654.62732745     A.U. after   14 cycles
 SCF Done:  E(RB3LYP) =  -1654.62940309     A.U. after   14 cycles
 SCF Done:  E(RB3LYP) =  -1654.62987311     A.U. after   13 cycles
 SCF Done:  E(RB3LYP) =  -1654.63008059     A.U. after   14 cycles
 SCF Done:  E(RB3LYP) =  -1654.63019176     A.U. after   13 cycles
 SCF Done:  E(RB3LYP) =  -1654.63019922     A.U. after   12 cycles
 SCF Done:  E(RB3LYP) =  -1654.63020930     A.U. after   12 cycles
 SCF Done:  E(RB3LYP) =  -1654.63021241     A.U. after   11 cycles
 SCF Done:  E(RB3LYP) =  -1654.63021254     A.U. after    9 cycles
 SCF Done:  E(RB3LYP) =  -1654.63021256     A.U. after    9 cycles
 Optimization completed.
    -- Stationary point found.

                         Standard orientation:
 ---------------------------------------------------------------------
 Center     Atomic      Atomic             Coordinates (Angstroms)
 Number     Number       Type             X           Y           Z
 ---------------------------------------------------------------------
      1          6           0       -4.014186    0.328244    0.407192
      2          6           0       -2.664465    0.766782    0.556201
      3          6           0       -1.736864   -0.087969    0.005737
      4          6           0       -4.104626   -0.864386   -0.250944
      5          1           0       -4.870653    0.875567    0.782196
      6         16           0       -2.554018   -1.466088   -0.711786
      7          1           0       -4.996576   -1.421257   -0.493347
      8          6           0       -0.283695    0.002117    0.015699
      9         16           0        0.536881    1.328872   -0.823446
     10          6           0        2.095094    0.663260   -0.426155
     11          6           0        1.956457   -0.519940    0.288812
     12          6           0        0.610793   -0.899088    0.537303
     13          1           0        0.301473   -1.779512    1.083601
     14         16           0        3.518474   -1.180118    0.696884
     15          6           0        4.317016    0.154402   -0.103580
     16          6           0        3.446901    1.054185   -0.648056
     17          1           0        5.395761    0.185057   -0.121253
     18          1           0        3.759335    1.941735   -1.180498
     19          8           0       -2.285468    1.915532    1.189185
     20          1           0       -3.061526    2.365865    1.536141
 ---------------------------------------------------------------------

 The electronic state is 1-A.
 Alpha  occ. eigenvalues --  -88.88515 -88.88055 -88.87713 -19.16769 -10.24867
 Alpha  occ. eigenvalues --  -10.21937 -10.21383 -10.21098 -10.20707 -10.20687
 Alpha  occ. eigenvalues --  -10.20651 -10.19207 -10.18967 -10.18911  -7.97105
 Alpha  occ. eigenvalues --   -7.96630  -7.96280  -5.93406  -5.93031  -5.92942
 Alpha  occ. eigenvalues --   -5.92683  -5.92599  -5.92578  -5.92234  -5.92178
 Alpha  occ. eigenvalues --   -5.91811  -1.07856  -0.91218  -0.89243  -0.84622
 Alpha  occ. eigenvalues --   -0.76974  -0.76060  -0.74201  -0.70978  -0.70152
 Alpha  occ. eigenvalues --   -0.61768  -0.60879  -0.57171  -0.55892  -0.53590
 Alpha  occ. eigenvalues --   -0.51979  -0.49332  -0.48433  -0.45245  -0.43702
 Alpha  occ. eigenvalues --   -0.43381  -0.41384  -0.40908  -0.39466  -0.38953
 Alpha  occ. eigenvalues --   -0.37747  -0.36916  -0.36081  -0.35725  -0.33801
 Alpha  occ. eigenvalues --   -0.33509  -0.28644  -0.26083  -0.24153  -0.23228
 Alpha  occ. eigenvalues --   -0.21228
 Alpha virt. eigenvalues --   -0.04922  -0.02669  -0.01682  -0.00239   0.00046
 Alpha virt. eigenvalues --    0.00237   0.00831   0.01655   0.02159   0.02810
 Alpha virt. eigenvalues --    0.03128   0.03698   0.03909   0.04325   0.04676

 Mulliken charges:
               1
     1  C   -0.042002
     2  C   -0.481921
     3  C    0.331086
     4  C   -0.240043
     5  H    0.119567
     6  S   -0.169039
     7  H    0.164404
     8  C    0.464425
     9  S   -0.434870
    10  C    0.195564
    11  C   -0.539519
    12  C    0.515244
    13  H    0.137438
    14  S   -0.389005
    15  C   -0.217625
    16  C    0.277858
    17  H    0.166132
    18  H    0.134570
    19  O   -0.244847
    20  H    0.252583
 Sum of Mulliken charges =  -0.00000

 Dipole moment (field-independent basis, Debye):
    X=             -2.0770    Y=              0.6016    Z=              0.5515  Tot=              2.2316
 Quadrupole moment (field-independent basis, Debye-Ang):
   XX=            -78.3561   YY=            -98.4746   ZZ=           -104.7973
   XY=             -1.0918   XZ=             -5.4442   YZ=              0.0973

 Normal termination of Gaussian 16 at Sun Oct 17 01:55:33 2021.
