 Gaussian 16, Revision C.01,
 Gaussian 16:  ES64L-G16RevC.01  3-Jul-2019

 -------------------------------------
 # opt=modredundant b3lyp/6-311+g(d,p)
 -------------------------------------

 -------------
 pBTTT_115.pdb
 -------------
 Symbolic Z-matrix:
 Charge =  0 Multiplicity = 1

 SCF Done:  E(RB3LYP) =  -1654.53091258     A.U. after   17 cycles
 SCF Done:  E(RB3LYP) =  -1654.58414526     A.U. after   14 cycles
 SCF Done:  E(RB3LYP) =  -1654.61790173     A.U. after   15 cycles
 SCF Done:  E(RB3LYP) =  -1654.62709887     A.U. after   14 cycles
 SCF Done:  E(RB3LYP) =  -1654.62930085     A.U. after   15 cycles
 SCF Done:  E(RB3LYP) =  -1654.62987983     A.U. after   14 cycles
 SCF Done:  E(RB3LYP) =  -1654.62998283     A.U. after   14 cycles
 SCF Done:  E(RB3LYP) =  -1654.63012626     A.U. after   13 cycles
 SCF Done:  E(RB3LYP) =  -1654.63013483     A.U. after   12 cycles
 SCF Done:  E(RB3LYP) =  -1654.63013882     A.U. after   12 cycles
 SCF Done:  E(RB3LYP) =  -1654.63014131     A.U. after   11 cycles
 SCF Done:  E(RB3LYP) =  -1654.63014147     A.U. after   10 cycles
 SCF Done:  E(RB3LYP) =  -1654.63014149     A.U. after    9 cycles
 Optimization completed.
    -- Stationary point found.

                         Standard orientation:
 ---------------------------------------------------------------------
 Center     Atomic      Atomic             Coordinates (Angstroms)
 Number     Number       Type             X           Y           Z
 ---------------------------------------------------------------------
      1          6           0       -3.934778    0.777257    0.279203
      2          6           0       -2.536420    1.020039    0.431247
      3          6           0       -1.738351    0.042735   -0.118353
      4          6           0       -4.191436   -0.393207   -0.373981
      5          1           0       -4.705920    1.444331    0.645267
      6         16           0       -2.741623   -1.210940   -0.830842
      7          1           0       -5.152419   -0.817490   -0.620693
      8          6           0       -0.286171   -0.048119   -0.095186
      9         16           0        0.513235   -1.375407    0.769061
     10          6           0        2.081826   -0.720101    0.394059
     11          6           0        1.960188    0.460508   -0.327981
     12          6           0        0.621130    0.842525   -0.607770
     13          1           0        0.324657    1.723497   -1.159264
     14         16           0        3.531902    1.116411   -0.703703
     15          6           0        4.310677   -0.216020    0.118927
     16          6           0        3.427300   -1.111945    0.648563
     17          1           0        5.388734   -0.249159    0.159206
     18          1           0        3.726371   -1.997475    1.191907
     19          8           0       -2.002257    2.110056    1.057026
     20          1           0       -2.703389    2.612801    1.482759
 ---------------------------------------------------------------------

 The electronic state is 1-A.
 Alpha  occ. eigenvalues --  -88.88472 -88.88059 -88.87819 -19.16780 -10.24894
 Alpha  occ. eigenvalues --  -10.21850 -10.21404 -10.21102 -10.20737 -10.20691
 Alpha  occ. eigenvalues --  -10.20670 -10.19203 -10.18990 -10.18824  -7.97067
 Alpha  occ. eigenvalues --   -7.96633  -7.96391  -5.93366  -5.92992  -5.92945
 Alpha  occ. eigenvalues --   -5.92708  -5.92645  -5.92581  -5.92347  -5.92183
 Alpha  occ. eigenvalues --   -5.91923  -1.07846  -0.91222  -0.89232  -0.84622
 Alpha  occ. eigenvalues --   -0.76984  -0.76066  -0.74194  -0.70990  -0.70114
 Alpha  occ. eigenvalues --   -0.61770  -0.60845  -0.57108  -0.55842  -0.53890
 Alpha  occ. eigenvalues --   -0.51828  -0.49304  -0.48426  -0.45330  -0.43624
 Alpha  occ. eigenvalues --   -0.43339  -0.41305  -0.40892  -0.39573  -0.39006
 Alpha  occ. eigenvalues --   -0.37791  -0.36775  -0.36014  -0.35744  -0.33895
 Alpha  occ. eigenvalues --   -0.33527  -0.28664  -0.26046  -0.24247  -0.23232
 Alpha  occ. eigenvalues --   -0.21237
 Alpha virt. eigenvalues --   -0.04861  -0.02932  -0.01615  -0.00110   0.00145
 Alpha virt. eigenvalues --    0.00399   0.00869   0.01675   0.02061   0.02791
 Alpha virt. eigenvalues --    0.03019   0.03697   0.03840   0.04519   0.04702

 Mulliken charges:
               1
     1  C   -0.155737
     2  C   -0.290337
     3  C    0.361241
     4  C   -0.176649
     5  H    0.120405
     6  S   -0.226682
     7  H    0.164073
     8  C    0.140055
     9  S   -0.547137
    10  C    0.088349
    11  C   -0.272104
    12  C    0.606724
    13  H    0.131907
    14  S   -0.391590
    15  C   -0.214298
    16  C    0.337734
    17  H    0.166191
    18  H    0.134081
    19  O   -0.228524
    20  H    0.252297
 Sum of Mulliken charges =  -0.00000

 Dipole moment (field-independent basis, Debye):
    X=             -1.9391    Y=              0.8663    Z=              0.6804  Tot=              2.2302
 Quadrupole moment (field-independent basis, Debye-Ang):
   XX=            -79.7416   YY=            -97.9300   ZZ=           -104.3641
   XY=             -8.0146   XZ=             -1.3536   YZ=              0.5392

 Normal termination of Gaussian 16 at Sun Oct 17 02:27:42 2021.
