 Gaussian 16, Revision C.01,
 Gaussian 16:  ES64L-G16RevC.01  3-Jul-2019

 -------------------------------------
 # opt=modredundant b3lyp/6-311+g(d,p)
 -------------------------------------

 ------------
 pBTTT_10.pdb
 ------------
 Symbolic Z-matrix:
 Charge =  0 Multiplicity = 1

 SCF Done:  E(RB3LYP) =  -1654.53582887     A.U. after   16 cycles
 SCF Done:  E(RB3LYP) =  -1654.58823308     A.U. after   15 cycles
 SCF Done:  E(RB3LYP) =  -1654.62050410     A.U. after   16 cycles
 SCF Done:  E(RB3LYP) =  -1654.62949420     A.U. after   14 cycles
 SCF Done:  E(RB3LYP) =  -1654.63166276     A.U. after   14 cycles
 SCF Done:  E(RB3LYP) =  -1654.63224839     A.U. after   13 cycles
 SCF Done:  E(RB3LYP) =  -1654.63234891     A.U. after   13 cycles
 SCF Done:  E(RB3LYP) =  -1654.63251266     A.U. after   12 cycles
 SCF Done:  E(RB3LYP) =  -1654.63252768     A.U. after   11 cycles
 SCF Done:  E(RB3LYP) =  -1654.63253736     A.U. after   12 cycles
 SCF Done:  E(RB3LYP) =  -1654.63254359     A.U. after   11 cycles
 SCF Done:  E(RB3LYP) =  -1654.63254656     A.U. after   11 cycles
 SCF Done:  E(RB3LYP) =  -1654.63254681     A.U. after    9 cycles
 SCF Done:  E(RB3LYP) =  -1654.63254685     A.U. after    9 cycles
 Optimization completed.
    -- Stationary point found.

                         Standard orientation:
 ---------------------------------------------------------------------
 Center     Atomic      Atomic             Coordinates (Angstroms)
 Number     Number       Type             X           Y           Z
 ---------------------------------------------------------------------
      1          6           0       -4.027736    0.378601   -0.060370
      2          6           0       -2.686188    0.858528   -0.087006
      3          6           0       -1.728089   -0.131273   -0.005812
      4          6           0       -4.092127   -0.979152    0.044460
      5          1           0       -4.897765    1.021094   -0.120457
      6         16           0       -2.519845   -1.696251    0.116060
      7          1           0       -4.970185   -1.604498    0.084784
      8          6           0       -0.286470   -0.024840   -0.015236
      9         16           0        0.524284    1.548765    0.119006
     10          6           0        2.087457    0.781785    0.071741
     11          6           0        1.962007   -0.596386   -0.041901
     12          6           0        0.623943   -1.057221   -0.094577
     13          1           0        0.335145   -2.094909   -0.191370
     14         16           0        3.531655   -1.355304   -0.106307
     15          6           0        4.315911    0.204577    0.021654
     16          6           0        3.433703    1.243371    0.106359
     17          1           0        5.394159    0.250266    0.028294
     18          1           0        3.735663    2.278144    0.190907
     19          8           0       -2.333888    2.174495   -0.192131
     20          1           0       -3.117886    2.730628   -0.151135
 ---------------------------------------------------------------------

 The electronic state is 1-A.
 Alpha  occ. eigenvalues --  -88.88676 -88.87856 -88.87669 -19.17312 -10.25044
 Alpha  occ. eigenvalues --  -10.22238 -10.21681 -10.21582 -10.20568 -10.20444
 Alpha  occ. eigenvalues --  -10.20320 -10.19446 -10.18791 -10.18624  -7.97283
 Alpha  occ. eigenvalues --   -7.96431  -7.96210  -5.93596  -5.93217  -5.92835
 Alpha  occ. eigenvalues --   -5.92745  -5.92539  -5.92381  -5.92166  -5.91976
 Alpha  occ. eigenvalues --   -5.91727  -1.08353  -0.91136  -0.89438  -0.84541
 Alpha  occ. eigenvalues --   -0.77082  -0.76156  -0.74479  -0.70843  -0.70120
 Alpha  occ. eigenvalues --   -0.61993  -0.61313  -0.57243  -0.56139  -0.53074
 Alpha  occ. eigenvalues --   -0.52187  -0.49334  -0.48728  -0.45369  -0.43852
 Alpha  occ. eigenvalues --   -0.43763  -0.41044  -0.41013  -0.39451  -0.38899
 Alpha  occ. eigenvalues --   -0.38253  -0.36796  -0.36525  -0.35449  -0.34160
 Alpha  occ. eigenvalues --   -0.33252  -0.28845  -0.26857  -0.24976  -0.23139
 Alpha  occ. eigenvalues --   -0.19829
 Alpha virt. eigenvalues --   -0.05903  -0.01978  -0.01450  -0.00081   0.00110
 Alpha virt. eigenvalues --    0.00308   0.01593   0.01715   0.02202   0.02825
 Alpha virt. eigenvalues --    0.03118   0.03577   0.04219   0.04651   0.04856

 Mulliken charges:
               1
     1  C   -0.354684
     2  C    0.391133
     3  C    0.560562
     4  C   -0.137472
     5  H    0.119068
     6  S   -0.550400
     7  H    0.163544
     8  C   -0.065788
     9  S   -0.416325
    10  C    0.103907
    11  C    0.422633
    12  C    0.046028
    13  H    0.133447
    14  S   -0.432893
    15  C   -0.153649
    16  C   -0.155390
    17  H    0.165231
    18  H    0.131974
    19  O   -0.233985
    20  H    0.263058
 Sum of Mulliken charges =  -0.00000

 Dipole moment (field-independent basis, Debye):
    X=             -2.4689    Y=              0.9669    Z=              0.0519  Tot=              2.6520
 Quadrupole moment (field-independent basis, Debye-Ang):
   XX=            -78.2406   YY=            -94.4515   ZZ=           -109.0594
   XY=             -1.8406   XZ=              0.3620   YZ=              0.4683

 Normal termination of Gaussian 16 at Sun Oct 17 02:10:12 2021.
