 Gaussian 16, Revision C.01,
 Gaussian 16:  ES64L-G16RevC.01  3-Jul-2019

 -------------------------------------
 # opt=modredundant b3lyp/6-311+g(d,p)
 -------------------------------------

 --------------
 pBTTT_-155.pdb
 --------------
 Symbolic Z-matrix:
 Charge =  0 Multiplicity = 1

 SCF Done:  E(RB3LYP) =  -1654.53498354     A.U. after   17 cycles
 SCF Done:  E(RB3LYP) =  -1654.58749086     A.U. after   15 cycles
 SCF Done:  E(RB3LYP) =  -1654.62070794     A.U. after   16 cycles
 SCF Done:  E(RB3LYP) =  -1654.62957112     A.U. after   16 cycles
 SCF Done:  E(RB3LYP) =  -1654.63164616     A.U. after   14 cycles
 SCF Done:  E(RB3LYP) =  -1654.63218364     A.U. after   13 cycles
 SCF Done:  E(RB3LYP) =  -1654.63226461     A.U. after   13 cycles
 SCF Done:  E(RB3LYP) =  -1654.63247455     A.U. after   12 cycles
 SCF Done:  E(RB3LYP) =  -1654.63248686     A.U. after   12 cycles
 SCF Done:  E(RB3LYP) =  -1654.63249389     A.U. after   11 cycles
 SCF Done:  E(RB3LYP) =  -1654.63249658     A.U. after   10 cycles
 Optimization completed.
    -- Stationary point found.

                         Standard orientation:
 ---------------------------------------------------------------------
 Center     Atomic      Atomic             Coordinates (Angstroms)
 Number     Number       Type             X           Y           Z
 ---------------------------------------------------------------------
      1          6           0        3.928906    0.872892    0.115976
      2          6           0        2.531701    1.144656    0.172470
      3          6           0        1.734490    0.038686   -0.044810
      4          6           0        4.195387   -0.439734   -0.144478
      5          1           0        4.694479    1.624807    0.264842
      6         16           0        2.748658   -1.362921   -0.346737
      7          1           0        5.157042   -0.918891   -0.240354
      8          6           0        0.290161   -0.039203   -0.033888
      9         16           0       -0.523866   -1.576023    0.319545
     10          6           0       -2.087814   -0.825506    0.155359
     11          6           0       -1.953088    0.527578   -0.126155
     12          6           0       -0.612872    0.979510   -0.236541
     13          1           0       -0.309789    1.992056   -0.455372
     14         16           0       -3.519587    1.279207   -0.280841
     15          6           0       -4.311564   -0.248011    0.037022
     16          6           0       -3.434829   -1.273822    0.248566
     17          1           0       -5.390012   -0.287860    0.046940
     18          1           0       -3.741317   -2.288844    0.459927
     19          8           0        1.992157    2.378228    0.413121
     20          1           0        2.686201    2.986420    0.686440
 ---------------------------------------------------------------------

 The electronic state is 1-A.
 Alpha  occ. eigenvalues --  -88.88654 -88.87979 -88.87888 -19.17232 -10.24962
 Alpha  occ. eigenvalues --  -10.22122 -10.21569 -10.21459 -10.20689 -10.20632
 Alpha  occ. eigenvalues --  -10.20579 -10.19363 -10.18950 -10.18484  -7.97258
 Alpha  occ. eigenvalues --   -7.96554  -7.96473  -5.93565  -5.93189  -5.92865
 Alpha  occ. eigenvalues --   -5.92821  -5.92797  -5.92502  -5.92437  -5.92103
 Alpha  occ. eigenvalues --   -5.91988  -1.08200  -0.91252  -0.89411  -0.84639
 Alpha  occ. eigenvalues --   -0.77093  -0.76194  -0.74410  -0.70959  -0.70089
 Alpha  occ. eigenvalues --   -0.61978  -0.61147  -0.57036  -0.56132  -0.53807
 Alpha  occ. eigenvalues --   -0.51847  -0.49356  -0.48477  -0.45415  -0.43752
 Alpha  occ. eigenvalues --   -0.43603  -0.41216  -0.40818  -0.39849  -0.39087
 Alpha  occ. eigenvalues --   -0.37817  -0.36765  -0.36343  -0.35723  -0.34085
 Alpha  occ. eigenvalues --   -0.33675  -0.28847  -0.26798  -0.24876  -0.23342
 Alpha  occ. eigenvalues --   -0.20048
 Alpha virt. eigenvalues --   -0.05765  -0.02384  -0.01321  -0.00660   0.00358
 Alpha virt. eigenvalues --    0.00538   0.01223   0.01514   0.02147   0.02684
 Alpha virt. eigenvalues --    0.03381   0.03746   0.04060   0.04687   0.04809

 Mulliken charges:
               1
     1  C   -0.220664
     2  C   -0.019526
     3  C    0.510710
     4  C   -0.125784
     5  H    0.119672
     6  S   -0.430800
     7  H    0.162858
     8  C    0.299314
     9  S   -0.556464
    10  C    0.392010
    11  C    0.214973
    12  C    0.007249
    13  H    0.145774
    14  S   -0.406427
    15  C   -0.140258
    16  C   -0.259240
    17  H    0.165979
    18  H    0.133468
    19  O   -0.250441
    20  H    0.257598
 Sum of Mulliken charges =  -0.00000

 Dipole moment (field-independent basis, Debye):
    X=              2.0861    Y=              1.0608    Z=              0.4244  Tot=              2.3785
 Quadrupole moment (field-independent basis, Debye-Ang):
   XX=            -79.7713   YY=            -94.2192   ZZ=           -108.0547
   XY=              9.3525   XZ=              1.0387   YZ=              0.9215

 Normal termination of Gaussian 16 at Sun Oct 17 01:40:32 2021.
