 Gaussian 16, Revision C.01,
 Gaussian 16:  ES64L-G16RevC.01  3-Jul-2019

 -------------------------------------
 # opt=modredundant b3lyp/6-311+g(d,p)
 -------------------------------------

 -------------
 pBTTT_-10.pdb
 -------------
 Symbolic Z-matrix:
 Charge =  0 Multiplicity = 1

 SCF Done:  E(RB3LYP) =  -1654.53623154     A.U. after   17 cycles
 SCF Done:  E(RB3LYP) =  -1654.58867693     A.U. after   15 cycles
 SCF Done:  E(RB3LYP) =  -1654.62094783     A.U. after   16 cycles
 SCF Done:  E(RB3LYP) =  -1654.62984004     A.U. after   17 cycles
 SCF Done:  E(RB3LYP) =  -1654.63178241     A.U. after   14 cycles
 SCF Done:  E(RB3LYP) =  -1654.63228751     A.U. after   13 cycles
 SCF Done:  E(RB3LYP) =  -1654.63235491     A.U. after   13 cycles
 SCF Done:  E(RB3LYP) =  -1654.63252918     A.U. after   12 cycles
 SCF Done:  E(RB3LYP) =  -1654.63254232     A.U. after   11 cycles
 SCF Done:  E(RB3LYP) =  -1654.63254499     A.U. after   10 cycles
 SCF Done:  E(RB3LYP) =  -1654.63254671     A.U. after   10 cycles
 Optimization completed.
    -- Stationary point found.

                         Standard orientation:
 ---------------------------------------------------------------------
 Center     Atomic      Atomic             Coordinates (Angstroms)
 Number     Number       Type             X           Y           Z
 ---------------------------------------------------------------------
      1          6           0       -4.027792    0.378569    0.060615
      2          6           0       -2.686213    0.858536    0.087041
      3          6           0       -1.728116   -0.131257    0.005806
      4          6           0       -4.092218   -0.979108   -0.044560
      5          1           0       -4.897741    1.021156    0.120928
      6         16           0       -2.519817   -1.696227   -0.116178
      7          1           0       -4.970070   -1.604737   -0.084860
      8          6           0       -0.286459   -0.024691    0.015196
      9         16           0        0.524313    1.548800   -0.119294
     10          6           0        2.087499    0.781738   -0.071929
     11          6           0        1.962006   -0.596415    0.041812
     12          6           0        0.623916   -1.057168    0.094522
     13          1           0        0.335000   -2.094814    0.191453
     14         16           0        3.531666   -1.355321    0.106457
     15          6           0        4.315955    0.204595   -0.021253
     16          6           0        3.433715    1.243349   -0.106551
     17          1           0        5.394207    0.250150   -0.027998
     18          1           0        3.735666    2.278123   -0.191224
     19          8           0       -2.333927    2.174338    0.192618
     20          1           0       -3.118005    2.730514    0.150789
 ---------------------------------------------------------------------

 The electronic state is 1-A.
 Alpha  occ. eigenvalues --  -88.88675 -88.87856 -88.87670 -19.17314 -10.25043
 Alpha  occ. eigenvalues --  -10.22239 -10.21681 -10.21582 -10.20568 -10.20445
 Alpha  occ. eigenvalues --  -10.20320 -10.19446 -10.18792 -10.18624  -7.97281
 Alpha  occ. eigenvalues --   -7.96431  -7.96211  -5.93594  -5.93216  -5.92834
 Alpha  occ. eigenvalues --   -5.92745  -5.92540  -5.92381  -5.92166  -5.91976
 Alpha  occ. eigenvalues --   -5.91728  -1.08357  -0.91135  -0.89436  -0.84541
 Alpha  occ. eigenvalues --   -0.77082  -0.76156  -0.74476  -0.70843  -0.70120
 Alpha  occ. eigenvalues --   -0.61992  -0.61314  -0.57243  -0.56139  -0.53074
 Alpha  occ. eigenvalues --   -0.52186  -0.49335  -0.48730  -0.45368  -0.43854
 Alpha  occ. eigenvalues --   -0.43763  -0.41044  -0.41014  -0.39450  -0.38898
 Alpha  occ. eigenvalues --   -0.38254  -0.36796  -0.36525  -0.35449  -0.34159
 Alpha  occ. eigenvalues --   -0.33252  -0.28845  -0.26857  -0.24975  -0.23140
 Alpha  occ. eigenvalues --   -0.19828
 Alpha virt. eigenvalues --   -0.05903  -0.01979  -0.01450  -0.00081   0.00110
 Alpha virt. eigenvalues --    0.00308   0.01593   0.01715   0.02202   0.02825
 Alpha virt. eigenvalues --    0.03118   0.03576   0.04219   0.04651   0.04857

 Mulliken charges:
               1
     1  C   -0.354863
     2  C    0.390950
     3  C    0.560501
     4  C   -0.137440
     5  H    0.119064
     6  S   -0.550441
     7  H    0.163561
     8  C   -0.065679
     9  S   -0.416490
    10  C    0.104151
    11  C    0.422782
    12  C    0.046208
    13  H    0.133450
    14  S   -0.432895
    15  C   -0.153520
    16  C   -0.155634
    17  H    0.165241
    18  H    0.131977
    19  O   -0.233981
    20  H    0.263058
 Sum of Mulliken charges =  -0.00000

 Dipole moment (field-independent basis, Debye):
    X=             -2.4689    Y=              0.9677    Z=             -0.0532  Tot=              2.6523
 Quadrupole moment (field-independent basis, Debye-Ang):
   XX=            -78.2414   YY=            -94.4509   ZZ=           -109.0602
   XY=             -1.8420   XZ=             -0.3603   YZ=             -0.4728

 Normal termination of Gaussian 16 at Sun Oct 17 02:07:14 2021.
