 Gaussian 16, Revision C.01,
 Gaussian 16:  ES64L-G16RevC.01  3-Jul-2019

 -------------------------------------
 # opt=modredundant b3lyp/6-311+g(d,p)
 -------------------------------------

 ------------
 pBTTT_90.pdb
 ------------
 Symbolic Z-matrix:
 Charge =  0 Multiplicity = 1

 SCF Done:  E(RB3LYP) =  -1654.52988689     A.U. after   17 cycles
 SCF Done:  E(RB3LYP) =  -1654.58310741     A.U. after   14 cycles
 SCF Done:  E(RB3LYP) =  -1654.61704278     A.U. after   15 cycles
 SCF Done:  E(RB3LYP) =  -1654.62618270     A.U. after   15 cycles
 SCF Done:  E(RB3LYP) =  -1654.62836879     A.U. after   15 cycles
 SCF Done:  E(RB3LYP) =  -1654.62893470     A.U. after   14 cycles
 SCF Done:  E(RB3LYP) =  -1654.62906084     A.U. after   14 cycles
 SCF Done:  E(RB3LYP) =  -1654.62920623     A.U. after   13 cycles
 SCF Done:  E(RB3LYP) =  -1654.62921795     A.U. after   12 cycles
 SCF Done:  E(RB3LYP) =  -1654.62922326     A.U. after   12 cycles
 SCF Done:  E(RB3LYP) =  -1654.62922738     A.U. after   11 cycles
 SCF Done:  E(RB3LYP) =  -1654.62922764     A.U. after   10 cycles
 SCF Done:  E(RB3LYP) =  -1654.62922826     A.U. after   10 cycles
 Optimization completed.
    -- Stationary point found.

                         Standard orientation:
 ---------------------------------------------------------------------
 Center     Atomic      Atomic             Coordinates (Angstroms)
 Number     Number       Type             X           Y           Z
 ---------------------------------------------------------------------
      1          6           0       -3.972461    0.699611    0.054769
      2          6           0       -2.590236    1.006061    0.242256
      3          6           0       -1.740760   -0.016321   -0.108364
      4          6           0       -4.162746   -0.560742   -0.433268
      5          1           0       -4.778801    1.389509    0.272745
      6         16           0       -2.671294   -1.393416   -0.676200
      7          1           0       -5.098148   -1.044651   -0.668910
      8          6           0       -0.282678   -0.044308   -0.037048
      9         16           0        0.525710   -0.617239    1.432788
     10          6           0        2.089773   -0.327158    0.728007
     11          6           0        1.961643    0.180204   -0.559144
     12          6           0        0.618720    0.338455   -0.995120
     13          1           0        0.315223    0.719586   -1.960327
     14         16           0        3.529299    0.473481   -1.265210
     15          6           0        4.315888   -0.094026    0.189806
     16          6           0        3.438591   -0.485280    1.159361
     17          1           0        5.394327   -0.101347    0.233677
     18          1           0        3.743448   -0.863565    2.125157
     19          8           0       -2.114839    2.193799    0.716850
     20          1           0       -2.851182    2.765899    0.953279
 ---------------------------------------------------------------------

 The electronic state is 1-A.
 Alpha  occ. eigenvalues --  -88.88406 -88.88092 -88.87742 -19.16707 -10.24854
 Alpha  occ. eigenvalues --  -10.21797 -10.21370 -10.20928 -10.20756 -10.20744
 Alpha  occ. eigenvalues --  -10.20673 -10.19140 -10.19005 -10.18961  -7.96997
 Alpha  occ. eigenvalues --   -7.96667  -7.96313  -5.93295  -5.92978  -5.92921
 Alpha  occ. eigenvalues --   -5.92628  -5.92615  -5.92579  -5.92265  -5.92216
 Alpha  occ. eigenvalues --   -5.91851  -1.07802  -0.91215  -0.89164  -0.84618
 Alpha  occ. eigenvalues --   -0.76937  -0.76016  -0.74114  -0.71003  -0.70143
 Alpha  occ. eigenvalues --   -0.61695  -0.60785  -0.57146  -0.55784  -0.53819
 Alpha  occ. eigenvalues --   -0.51882  -0.49354  -0.48353  -0.45255  -0.43636
 Alpha  occ. eigenvalues --   -0.43265  -0.41380  -0.40925  -0.39469  -0.39015
 Alpha  occ. eigenvalues --   -0.37741  -0.36849  -0.36036  -0.35654  -0.33874
 Alpha  occ. eigenvalues --   -0.33369  -0.28636  -0.25785  -0.23483  -0.23084
 Alpha  occ. eigenvalues --   -0.22220
 Alpha virt. eigenvalues --   -0.04245  -0.03488  -0.01644  -0.00199   0.00154
 Alpha virt. eigenvalues --    0.00310   0.00726   0.01656   0.02081   0.02810
 Alpha virt. eigenvalues --    0.03050   0.03630   0.03831   0.04297   0.04728

 Mulliken charges:
               1
     1  C   -0.078499
     2  C   -0.420506
     3  C    0.306294
     4  C   -0.196714
     5  H    0.120165
     6  S   -0.104987
     7  H    0.163799
     8  C    0.266043
     9  S   -0.473452
    10  C    0.175629
    11  C   -0.472639
    12  C    0.521951
    13  H    0.132115
    14  S   -0.382938
    15  C   -0.218500
    16  C    0.334338
    17  H    0.166430
    18  H    0.134730
    19  O   -0.232366
    20  H    0.259106
 Sum of Mulliken charges =  -0.00000

 Dipole moment (field-independent basis, Debye):
    X=             -1.9361    Y=              0.9161    Z=              0.2881  Tot=              2.1612
 Quadrupole moment (field-independent basis, Debye-Ang):
   XX=            -79.0519   YY=           -101.1125   ZZ=           -101.5728
   XY=             -6.8880   XZ=              1.6387   YZ=              0.1616

 Normal termination of Gaussian 16 at Sun Oct 17 02:25:07 2021.
