 Gaussian 16, Revision C.01,
 Gaussian 16:  ES64L-G16RevC.01  3-Jul-2019

 -------------------------------------
 # opt=modredundant b3lyp/6-311+g(d,p)
 -------------------------------------

 ------------
 pBTTT_40.pdb
 ------------
 Symbolic Z-matrix:
 Charge =  0 Multiplicity = 1

 SCF Done:  E(RB3LYP) =  -1654.53350269     A.U. after   16 cycles
 SCF Done:  E(RB3LYP) =  -1654.58613023     A.U. after   15 cycles
 SCF Done:  E(RB3LYP) =  -1654.61920969     A.U. after   15 cycles
 SCF Done:  E(RB3LYP) =  -1654.62850400     A.U. after   15 cycles
 SCF Done:  E(RB3LYP) =  -1654.63080683     A.U. after   15 cycles
 SCF Done:  E(RB3LYP) =  -1654.63137463     A.U. after   13 cycles
 SCF Done:  E(RB3LYP) =  -1654.63157771     A.U. after   13 cycles
 SCF Done:  E(RB3LYP) =  -1654.63171663     A.U. after   12 cycles
 SCF Done:  E(RB3LYP) =  -1654.63172560     A.U. after   11 cycles
 SCF Done:  E(RB3LYP) =  -1654.63172945     A.U. after   10 cycles
 SCF Done:  E(RB3LYP) =  -1654.63172955     A.U. after   10 cycles
 SCF Done:  E(RB3LYP) =  -1654.63172976     A.U. after    9 cycles
 Optimization completed.
    -- Stationary point found.

                         Standard orientation:
 ---------------------------------------------------------------------
 Center     Atomic      Atomic             Coordinates (Angstroms)
 Number     Number       Type             X           Y           Z
 ---------------------------------------------------------------------
      1          6           0       -4.025916    0.343144   -0.247879
      2          6           0       -2.687792    0.826681   -0.334966
      3          6           0       -1.731189   -0.107567    0.000645
      4          6           0       -4.084640   -0.960388    0.152058
      5          1           0       -4.898409    0.941706   -0.480550
      6         16           0       -2.513470   -1.614647    0.447654
      7          1           0       -4.961220   -1.572176    0.298037
      8          6           0       -0.285672   -0.004139   -0.026245
      9         16           0        0.530808    1.480684    0.491527
     10          6           0        2.091008    0.741769    0.264345
     11          6           0        1.957524   -0.570437   -0.171230
     12          6           0        0.615332   -0.996433   -0.339227
     13          1           0        0.313912   -1.974880   -0.687195
     14         16           0        3.522712   -1.297904   -0.423498
     15          6           0        4.315539    0.184360    0.062521
     16          6           0        3.440174    1.178215    0.394252
     17          1           0        5.394075    0.221822    0.075786
     18          1           0        3.748102    2.162767    0.717974
     19          8           0       -2.341376    2.090587   -0.720798
     20          1           0       -3.132443    2.594719   -0.934231
 ---------------------------------------------------------------------

 The electronic state is 1-A.
 Alpha  occ. eigenvalues --  -88.88616 -88.87972 -88.87697 -19.16994 -10.24935
 Alpha  occ. eigenvalues --  -10.22113 -10.21454 -10.21397 -10.20647 -10.20578
 Alpha  occ. eigenvalues --  -10.20538 -10.19325 -10.18895 -10.18764  -7.97213
 Alpha  occ. eigenvalues --   -7.96546  -7.96256  -5.93519  -5.93143  -5.92859
 Alpha  occ. eigenvalues --   -5.92779  -5.92581  -5.92496  -5.92212  -5.92093
 Alpha  occ. eigenvalues --   -5.91778  -1.08058  -0.91203  -0.89357  -0.84605
 Alpha  occ. eigenvalues --   -0.77043  -0.76125  -0.74349  -0.70922  -0.70142
 Alpha  occ. eigenvalues --   -0.61893  -0.61084  -0.57206  -0.56025  -0.53323
 Alpha  occ. eigenvalues --   -0.52086  -0.49292  -0.48607  -0.45297  -0.43758
 Alpha  occ. eigenvalues --   -0.43592  -0.41275  -0.40904  -0.39464  -0.38920
 Alpha  occ. eigenvalues --   -0.37954  -0.36914  -0.36248  -0.35674  -0.33860
 Alpha  occ. eigenvalues --   -0.33589  -0.28722  -0.26574  -0.24716  -0.23170
 Alpha  occ. eigenvalues --   -0.20345
 Alpha virt. eigenvalues --   -0.05550  -0.01980  -0.01712  -0.00143   0.00027
 Alpha virt. eigenvalues --    0.00258   0.01106   0.01697   0.02275   0.02802
 Alpha virt. eigenvalues --    0.03139   0.03733   0.04138   0.04323   0.04703

 Mulliken charges:
               1
     1  C   -0.180177
     2  C   -0.300940
     3  C    0.630580
     4  C   -0.115688
     5  H    0.119180
     6  S   -0.376528
     7  H    0.164048
     8  C    0.511006
     9  S   -0.379873
    10  C    0.391633
    11  C    0.092639
    12  C   -0.210468
    13  H    0.139259
    14  S   -0.412785
    15  C   -0.137346
    16  C   -0.249800
    17  H    0.165639
    18  H    0.134135
    19  O   -0.239106
    20  H    0.254595
 Sum of Mulliken charges =  -0.00000

 Dipole moment (field-independent basis, Debye):
    X=             -2.2515    Y=              0.7804    Z=             -0.3577  Tot=              2.4096
 Quadrupole moment (field-independent basis, Debye-Ang):
   XX=            -78.1950   YY=            -96.0799   ZZ=           -107.4418
   XY=             -1.3888   XZ=              3.4290   YZ=             -0.0821

 Normal termination of Gaussian 16 at Sun Oct 17 02:11:13 2021.
