 Gaussian 16, Revision C.01,
 Gaussian 16:  ES64L-G16RevC.01  3-Jul-2019

 -------------------------------------
 # opt=modredundant b3lyp/6-311+g(d,p)
 -------------------------------------

 -------------
 pBTTT_105.pdb
 -------------
 Symbolic Z-matrix:
 Charge =  0 Multiplicity = 1

 SCF Done:  E(RB3LYP) =  -1654.53019963     A.U. after   17 cycles
 SCF Done:  E(RB3LYP) =  -1654.58348463     A.U. after   14 cycles
 SCF Done:  E(RB3LYP) =  -1654.61740337     A.U. after   15 cycles
 SCF Done:  E(RB3LYP) =  -1654.62656374     A.U. after   14 cycles
 SCF Done:  E(RB3LYP) =  -1654.62874944     A.U. after   15 cycles
 SCF Done:  E(RB3LYP) =  -1654.62930831     A.U. after   14 cycles
 SCF Done:  E(RB3LYP) =  -1654.62942532     A.U. after   14 cycles
 SCF Done:  E(RB3LYP) =  -1654.62956698     A.U. after   13 cycles
 SCF Done:  E(RB3LYP) =  -1654.62957683     A.U. after   12 cycles
 SCF Done:  E(RB3LYP) =  -1654.62958180     A.U. after   12 cycles
 SCF Done:  E(RB3LYP) =  -1654.62958480     A.U. after   11 cycles
 SCF Done:  E(RB3LYP) =  -1654.62958495     A.U. after   10 cycles
 SCF Done:  E(RB3LYP) =  -1654.62958500     A.U. after   10 cycles
 Optimization completed.
    -- Stationary point found.

                         Standard orientation:
 ---------------------------------------------------------------------
 Center     Atomic      Atomic             Coordinates (Angstroms)
 Number     Number       Type             X           Y           Z
 ---------------------------------------------------------------------
      1          6           0       -3.945486    0.732038    0.296551
      2          6           0       -2.550520    0.961161    0.497582
      3          6           0       -1.739969    0.035275   -0.116680
      4          6           0       -4.185504   -0.377274   -0.461379
      5          1           0       -4.725628    1.364861    0.702219
      6         16           0       -2.725291   -1.154230   -0.953286
      7          1           0       -5.140531   -0.778087   -0.764381
      8          6           0       -0.284717   -0.046843   -0.083610
      9         16           0        0.517710   -1.281496    0.904876
     10          6           0        2.084664   -0.668692    0.460154
     11          6           0        1.961068    0.429452   -0.381943
     12          6           0        0.620472    0.782226   -0.692428
     13          1           0        0.321165    1.602265   -1.330031
     14         16           0        3.531412    1.043573   -0.827615
     15          6           0        4.312645   -0.193995    0.129541
     16          6           0        3.431422   -1.029681    0.752586
     17          1           0        5.390839   -0.222282    0.170460
     18          1           0        3.732455   -1.852600    1.385829
     19          8           0       -2.030143    1.992062    1.225405
     20          1           0       -2.742901    2.481791    1.646828
 ---------------------------------------------------------------------

 The electronic state is 1-A.
 Alpha  occ. eigenvalues --  -88.88426 -88.88078 -88.87783 -19.16732 -10.24874
 Alpha  occ. eigenvalues --  -10.21805 -10.21387 -10.20995 -10.20750 -10.20721
 Alpha  occ. eigenvalues --  -10.20672 -10.19166 -10.19000 -10.18894  -7.97020
 Alpha  occ. eigenvalues --   -7.96652  -7.96355  -5.93318  -5.92964  -5.92944
 Alpha  occ. eigenvalues --   -5.92670  -5.92600  -5.92600  -5.92308  -5.92202
 Alpha  occ. eigenvalues --   -5.91890  -1.07816  -0.91216  -0.89189  -0.84618
 Alpha  occ. eigenvalues --   -0.76958  -0.76034  -0.74145  -0.70997  -0.70126
 Alpha  occ. eigenvalues --   -0.61724  -0.60807  -0.57125  -0.55794  -0.53881
 Alpha  occ. eigenvalues --   -0.51843  -0.49329  -0.48383  -0.45295  -0.43619
 Alpha  occ. eigenvalues --   -0.43289  -0.41334  -0.40911  -0.39514  -0.39015
 Alpha  occ. eigenvalues --   -0.37769  -0.36807  -0.36025  -0.35687  -0.33889
 Alpha  occ. eigenvalues --   -0.33437  -0.28645  -0.25881  -0.23909  -0.23155
 Alpha  occ. eigenvalues --   -0.21706
 Alpha virt. eigenvalues --   -0.04553  -0.03213  -0.01633  -0.00120   0.00155
 Alpha virt. eigenvalues --    0.00362   0.00787   0.01678   0.02056   0.02815
 Alpha virt. eigenvalues --    0.02998   0.03656   0.03858   0.04379   0.04719

 Mulliken charges:
               1
     1  C   -0.133892
     2  C   -0.300357
     3  C    0.288036
     4  C   -0.172978
     5  H    0.120324
     6  S   -0.169361
     7  H    0.163909
     8  C    0.126927
     9  S   -0.519058
    10  C    0.120870
    11  C   -0.373329
    12  C    0.632105
    13  H    0.130398
    14  S   -0.387052
    15  C   -0.219178
    16  C    0.362130
    17  H    0.166286
    18  H    0.134355
    19  O   -0.225328
    20  H    0.255194
 Sum of Mulliken charges =  -0.00000

 Dipole moment (field-independent basis, Debye):
    X=             -1.9202    Y=              0.8428    Z=              0.6452  Tot=              2.1940
 Quadrupole moment (field-independent basis, Debye-Ang):
   XX=            -79.5255   YY=            -99.1101   ZZ=           -103.2701
   XY=             -7.7113   XZ=             -1.1692   YZ=              0.3615

 Normal termination of Gaussian 16 at Sun Oct 17 02:20:51 2021.
