 Gaussian 16, Revision C.01,
 Gaussian 16:  ES64L-G16RevC.01  3-Jul-2019

 -------------------------------------
 # opt=modredundant b3lyp/6-311+g(d,p)
 -------------------------------------

 -------------
 pBTTT_-95.pdb
 -------------
 Symbolic Z-matrix:
 Charge =  0 Multiplicity = 1

 SCF Done:  E(RB3LYP) =  -1654.52965687     A.U. after   16 cycles
 SCF Done:  E(RB3LYP) =  -1654.58293164     A.U. after   14 cycles
 SCF Done:  E(RB3LYP) =  -1654.61716856     A.U. after   15 cycles
 SCF Done:  E(RB3LYP) =  -1654.62627217     A.U. after   15 cycles
 SCF Done:  E(RB3LYP) =  -1654.62839251     A.U. after   14 cycles
 SCF Done:  E(RB3LYP) =  -1654.62888715     A.U. after   13 cycles
 SCF Done:  E(RB3LYP) =  -1654.62910623     A.U. after   14 cycles
 SCF Done:  E(RB3LYP) =  -1654.62923760     A.U. after   13 cycles
 SCF Done:  E(RB3LYP) =  -1654.62925588     A.U. after   13 cycles
 SCF Done:  E(RB3LYP) =  -1654.62926861     A.U. after   12 cycles
 SCF Done:  E(RB3LYP) =  -1654.62927210     A.U. after   11 cycles
 SCF Done:  E(RB3LYP) =  -1654.62927230     A.U. after   10 cycles
 SCF Done:  E(RB3LYP) =  -1654.62927238     A.U. after   10 cycles
 Optimization completed.
    -- Stationary point found.

                         Standard orientation:
 ---------------------------------------------------------------------
 Center     Atomic      Atomic             Coordinates (Angstroms)
 Number     Number       Type             X           Y           Z
 ---------------------------------------------------------------------
      1          6           0        3.961962    0.679397    0.284484
      2          6           0        2.574225    0.906713    0.533606
      3          6           0        1.740815    0.024205   -0.111870
      4          6           0        4.172676   -0.383900   -0.544848
      5          1           0        4.757626    1.281970    0.705765
      6         16           0        2.693988   -1.121163   -1.041752
      7          1           0        5.116322   -0.771755   -0.896622
      8          6           0        0.283277   -0.039130   -0.062540
      9         16           0       -0.523011   -1.131692    1.077281
     10          6           0       -2.088067   -0.589145    0.544657
     11          6           0       -1.961583    0.378362   -0.444529
     12          6           0       -0.619398    0.689476   -0.791268
     13          1           0       -0.317142    1.413948   -1.534676
     14         16           0       -3.530195    0.923780   -0.977441
     15          6           0       -4.314847   -0.164964    0.143636
     16          6           0       -3.436209   -0.902642    0.882988
     17          1           0       -5.393198   -0.187482    0.184341
     18          1           0       -3.739720   -1.626619    1.626313
     19          8           0        2.079941    1.898590    1.329868
     20          1           0        2.806966    2.376195    1.740629
 ---------------------------------------------------------------------

 The electronic state is 1-A.
 Alpha  occ. eigenvalues --  -88.88405 -88.88090 -88.87754 -19.16710 -10.24858
 Alpha  occ. eigenvalues --  -10.21791 -10.21374 -10.20935 -10.20757 -10.20741
 Alpha  occ. eigenvalues --  -10.20673 -10.19144 -10.19006 -10.18946  -7.96997
 Alpha  occ. eigenvalues --   -7.96664  -7.96325  -5.93294  -5.92976  -5.92921
 Alpha  occ. eigenvalues --   -5.92640  -5.92612  -5.92578  -5.92277  -5.92214
 Alpha  occ. eigenvalues --   -5.91863  -1.07802  -0.91215  -0.89166  -0.84617
 Alpha  occ. eigenvalues --   -0.76941  -0.76017  -0.74117  -0.71002  -0.70138
 Alpha  occ. eigenvalues --   -0.61698  -0.60786  -0.57140  -0.55779  -0.53847
 Alpha  occ. eigenvalues --   -0.51867  -0.49349  -0.48356  -0.45266  -0.43627
 Alpha  occ. eigenvalues --   -0.43266  -0.41367  -0.40922  -0.39477  -0.39020
 Alpha  occ. eigenvalues --   -0.37748  -0.36836  -0.36030  -0.35659  -0.33880
 Alpha  occ. eigenvalues --   -0.33380  -0.28637  -0.25794  -0.23589  -0.23066
 Alpha  occ. eigenvalues --   -0.22135
 Alpha virt. eigenvalues --   -0.04288  -0.03458  -0.01639  -0.00173   0.00163
 Alpha virt. eigenvalues --    0.00327   0.00736   0.01664   0.02070   0.02807
 Alpha virt. eigenvalues --    0.03029   0.03635   0.03844   0.04304   0.04730

 Mulliken charges:
               1
     1  C   -0.099661
     2  C   -0.369075
     3  C    0.285881
     4  C   -0.185721
     5  H    0.120251
     6  S   -0.117036
     7  H    0.163806
     8  C    0.194308
     9  S   -0.482535
    10  C    0.155588
    11  C   -0.452842
    12  C    0.580114
    13  H    0.131267
    14  S   -0.383886
    15  C   -0.219560
    16  C    0.347564
    17  H    0.166390
    18  H    0.134638
    19  O   -0.227900
    20  H    0.258411
 Sum of Mulliken charges =  -0.00000

 Dipole moment (field-independent basis, Debye):
    X=              1.9221    Y=              0.8086    Z=              0.5922  Tot=              2.1677
 Quadrupole moment (field-independent basis, Debye-Ang):
   XX=            -79.2357   YY=           -100.4984   ZZ=           -102.0608
   XY=              7.3058   XZ=              0.8065   YZ=              0.2378

 Normal termination of Gaussian 16 at Sun Oct 17 01:52:18 2021.
