 Gaussian 16, Revision C.01,
 Gaussian 16:  ES64L-G16RevC.01  3-Jul-2019

 -------------------------------------
 # opt=modredundant b3lyp/6-311+g(d,p)
 -------------------------------------

 -------------
 pBTTT_-20.pdb
 -------------
 Symbolic Z-matrix:
 Charge =  0 Multiplicity = 1

 SCF Done:  E(RB3LYP) =  -1654.53601351     A.U. after   17 cycles
 SCF Done:  E(RB3LYP) =  -1654.58847848     A.U. after   15 cycles
 SCF Done:  E(RB3LYP) =  -1654.62082302     A.U. after   15 cycles
 SCF Done:  E(RB3LYP) =  -1654.62978319     A.U. after   17 cycles
 SCF Done:  E(RB3LYP) =  -1654.63174673     A.U. after   14 cycles
 SCF Done:  E(RB3LYP) =  -1654.63215887     A.U. after   13 cycles
 SCF Done:  E(RB3LYP) =  -1654.63223014     A.U. after   13 cycles
 SCF Done:  E(RB3LYP) =  -1654.63239804     A.U. after   12 cycles
 SCF Done:  E(RB3LYP) =  -1654.63241137     A.U. after   12 cycles
 SCF Done:  E(RB3LYP) =  -1654.63241421     A.U. after   10 cycles
 SCF Done:  E(RB3LYP) =  -1654.63241619     A.U. after   10 cycles
 Optimization completed.
    -- Stationary point found.

                         Standard orientation:
 ---------------------------------------------------------------------
 Center     Atomic      Atomic             Coordinates (Angstroms)
 Number     Number       Type             X           Y           Z
 ---------------------------------------------------------------------
      1          6           0       -4.027672    0.368766    0.125184
      2          6           0       -2.687738    0.851902    0.168860
      3          6           0       -1.728586   -0.125985    0.003564
      4          6           0       -4.088862   -0.978392   -0.077849
      5          1           0       -4.899271    1.001025    0.243613
      6         16           0       -2.515741   -1.679802   -0.229440
      7          1           0       -4.965582   -1.602504   -0.152486
      8          6           0       -0.286346   -0.019401    0.022390
      9         16           0        0.525353    1.536290   -0.239719
     10          6           0        2.087944    0.773556   -0.138493
     11          6           0        1.960851   -0.591390    0.083193
     12          6           0        0.621927   -1.044222    0.179089
     13          1           0        0.329950   -2.068983    0.363804
     14         16           0        3.529626   -1.343730    0.211670
     15          6           0        4.315601    0.200592   -0.036030
     16          6           0        3.434728    1.230390   -0.203746
     17          1           0        5.393912    0.244253   -0.046181
     18          1           0        3.737832    2.255133   -0.368366
     19          8           0       -2.338462    2.158301    0.363237
     20          1           0       -3.128034    2.705637    0.416566
 ---------------------------------------------------------------------

 The electronic state is 1-A.
 Alpha  occ. eigenvalues --  -88.88661 -88.87887 -88.87675 -19.17237 -10.25015
 Alpha  occ. eigenvalues --  -10.22210 -10.21608 -10.21546 -10.20589 -10.20479
 Alpha  occ. eigenvalues --  -10.20381 -10.19418 -10.18819 -10.18655  -7.97265
 Alpha  occ. eigenvalues --   -7.96461  -7.96221  -5.93576  -5.93198  -5.92821
 Alpha  occ. eigenvalues --   -5.92774  -5.92549  -5.92411  -5.92177  -5.92007
 Alpha  occ. eigenvalues --   -5.91739  -1.08285  -0.91155  -0.89420  -0.84559
 Alpha  occ. eigenvalues --   -0.77074  -0.76151  -0.74448  -0.70862  -0.70125
 Alpha  occ. eigenvalues --   -0.61969  -0.61264  -0.57232  -0.56111  -0.53132
 Alpha  occ. eigenvalues --   -0.52161  -0.49310  -0.48712  -0.45349  -0.43812
 Alpha  occ. eigenvalues --   -0.43740  -0.41125  -0.40956  -0.39456  -0.38900
 Alpha  occ. eigenvalues --   -0.38181  -0.36844  -0.36457  -0.35512  -0.34084
 Alpha  occ. eigenvalues --   -0.33352  -0.28810  -0.26806  -0.24917  -0.23142
 Alpha  occ. eigenvalues --   -0.19933
 Alpha virt. eigenvalues --   -0.05834  -0.01948  -0.01525  -0.00087   0.00090
 Alpha virt. eigenvalues --    0.00296   0.01437   0.01716   0.02262   0.02824
 Alpha virt. eigenvalues --    0.03121   0.03626   0.04192   0.04578   0.04754

 Mulliken charges:
               1
     1  C   -0.276672
     2  C    0.168981
     3  C    0.581077
     4  C   -0.113786
     5  H    0.118934
     6  S   -0.504285
     7  H    0.163536
     8  C    0.010521
     9  S   -0.416120
    10  C    0.243411
    11  C    0.323815
    12  C    0.014202
    13  H    0.134981
    14  S   -0.426683
    15  C   -0.139567
    16  C   -0.204724
    17  H    0.165325
    18  H    0.132659
    19  O   -0.236200
    20  H    0.260597
 Sum of Mulliken charges =  -0.00000

 Dipole moment (field-independent basis, Debye):
    X=             -2.4163    Y=              0.9306    Z=              0.1082  Tot=              2.5916
 Quadrupole moment (field-independent basis, Debye-Ang):
   XX=            -78.1939   YY=            -94.7714   ZZ=           -108.7586
   XY=             -1.7631   XZ=             -1.4523   YZ=             -0.2081

 Normal termination of Gaussian 16 at Sun Oct 17 02:04:10 2021.
