 Gaussian 16, Revision C.01,
 Gaussian 16:  ES64L-G16RevC.01  3-Jul-2019

 -------------------------------------
 # opt=modredundant b3lyp/6-311+g(d,p)
 -------------------------------------

 --------------
 pBTTT_-125.pdb
 --------------
 Symbolic Z-matrix:
 Charge =  0 Multiplicity = 1

 SCF Done:  E(RB3LYP) =  -1654.53191647     A.U. after   16 cycles
 SCF Done:  E(RB3LYP) =  -1654.58482521     A.U. after   14 cycles
 SCF Done:  E(RB3LYP) =  -1654.61856368     A.U. after   15 cycles
 SCF Done:  E(RB3LYP) =  -1654.62772459     A.U. after   15 cycles
 SCF Done:  E(RB3LYP) =  -1654.62995208     A.U. after   14 cycles
 SCF Done:  E(RB3LYP) =  -1654.63054458     A.U. after   14 cycles
 SCF Done:  E(RB3LYP) =  -1654.63065565     A.U. after   14 cycles
 SCF Done:  E(RB3LYP) =  -1654.63083962     A.U. after   13 cycles
 SCF Done:  E(RB3LYP) =  -1654.63085585     A.U. after   12 cycles
 SCF Done:  E(RB3LYP) =  -1654.63086434     A.U. after   11 cycles
 SCF Done:  E(RB3LYP) =  -1654.63086690     A.U. after   10 cycles
 SCF Done:  E(RB3LYP) =  -1654.63086701     A.U. after    9 cycles
 Optimization completed.
    -- Stationary point found.

                         Standard orientation:
 ---------------------------------------------------------------------
 Center     Atomic      Atomic             Coordinates (Angstroms)
 Number     Number       Type             X           Y           Z
 ---------------------------------------------------------------------
      1          6           0        3.927988    0.813492    0.251537
      2          6           0        2.528435    1.067330    0.362626
      3          6           0        1.736845    0.045168   -0.112442
      4          6           0        4.193941   -0.408087   -0.295727
      5          1           0        4.693911    1.509965    0.570788
      6         16           0        2.749846   -1.261245   -0.705813
      7          1           0        5.157650   -0.851916   -0.491795
      8          6           0        0.287694   -0.047533   -0.095988
      9         16           0       -0.512143   -1.448404    0.643226
     10          6           0       -2.080827   -0.759872    0.330675
     11          6           0       -1.958105    0.484034   -0.275443
     12          6           0       -0.619639    0.890011   -0.520109
     13          1           0       -0.323249    1.818984   -0.985655
     14         16           0       -3.529637    1.173395   -0.586584
     15          6           0       -4.309326   -0.231207    0.105146
     16          6           0       -3.425928   -1.173809    0.546985
     17          1           0       -5.387366   -0.267477    0.142368
     18          1           0       -3.725240   -2.107013    1.003495
     19          8           0        1.986379    2.208485    0.883083
     20          1           0        2.677728    2.732475    1.299324
 ---------------------------------------------------------------------

 The electronic state is 1-A.
 Alpha  occ. eigenvalues --  -88.88527 -88.88036 -88.87852 -19.16861 -10.24910
 Alpha  occ. eigenvalues --  -10.21909 -10.21420 -10.21227 -10.20723 -10.20664
 Alpha  occ. eigenvalues --  -10.20657 -10.19248 -10.18978 -10.18740  -7.97124
 Alpha  occ. eigenvalues --   -7.96611  -7.96426  -5.93425  -5.93051  -5.92923
 Alpha  occ. eigenvalues --   -5.92745  -5.92699  -5.92559  -5.92385  -5.92160
 Alpha  occ. eigenvalues --   -5.91954  -1.07902  -0.91231  -0.89283  -0.84628
 Alpha  occ. eigenvalues --   -0.77015  -0.76104  -0.74253  -0.70983  -0.70103
 Alpha  occ. eigenvalues --   -0.61825  -0.60905  -0.57087  -0.55908  -0.53880
 Alpha  occ. eigenvalues --   -0.51820  -0.49282  -0.48469  -0.45360  -0.43642
 Alpha  occ. eigenvalues --   -0.43410  -0.41280  -0.40866  -0.39645  -0.39003
 Alpha  occ. eigenvalues --   -0.37808  -0.36759  -0.35991  -0.35830  -0.33907
 Alpha  occ. eigenvalues --   -0.33623  -0.28698  -0.26258  -0.24506  -0.23286
 Alpha  occ. eigenvalues --   -0.20826
 Alpha virt. eigenvalues --   -0.05147  -0.02690  -0.01577  -0.00196   0.00189
 Alpha virt. eigenvalues --    0.00436   0.00962   0.01651   0.02083   0.02746
 Alpha virt. eigenvalues --    0.03099   0.03761   0.03804   0.04642   0.04693

 Mulliken charges:
               1
     1  C   -0.165197
     2  C   -0.290072
     3  C    0.411015
     4  C   -0.175050
     5  H    0.120495
     6  S   -0.267745
     7  H    0.164161
     8  C    0.152871
     9  S   -0.571848
    10  C    0.109522
    11  C   -0.256342
    12  C    0.632398
    13  H    0.135851
    14  S   -0.395688
    15  C   -0.206675
    16  C    0.287749
    17  H    0.166107
    18  H    0.133895
    19  O   -0.236289
    20  H    0.250842
 Sum of Mulliken charges =  -0.00000

 Dipole moment (field-independent basis, Debye):
    X=              1.9669    Y=              0.9047    Z=              0.6838  Tot=              2.2704
 Quadrupole moment (field-independent basis, Debye-Ang):
   XX=            -79.8973   YY=            -96.8343   ZZ=           -105.4184
   XY=              8.3239   XZ=              1.4389   YZ=              0.7386

 Normal termination of Gaussian 16 at Sun Oct 17 01:47:57 2021.
