 Gaussian 16, Revision C.01,
 Gaussian 16:  ES64L-G16RevC.01  3-Jul-2019

 -------------------------------------
 # opt=modredundant b3lyp/6-311+g(d,p)
 -------------------------------------

 -------------
 pBTTT_-85.pdb
 -------------
 Symbolic Z-matrix:
 Charge =  0 Multiplicity = 1

 SCF Done:  E(RB3LYP) =  -1654.52996649     A.U. after   17 cycles
 SCF Done:  E(RB3LYP) =  -1654.58321335     A.U. after   14 cycles
 SCF Done:  E(RB3LYP) =  -1654.61729264     A.U. after   15 cycles
 SCF Done:  E(RB3LYP) =  -1654.62635883     A.U. after   15 cycles
 SCF Done:  E(RB3LYP) =  -1654.62843564     A.U. after   14 cycles
 SCF Done:  E(RB3LYP) =  -1654.62890232     A.U. after   13 cycles
 SCF Done:  E(RB3LYP) =  -1654.62908895     A.U. after   14 cycles
 SCF Done:  E(RB3LYP) =  -1654.62923759     A.U. after   13 cycles
 SCF Done:  E(RB3LYP) =  -1654.62925197     A.U. after   12 cycles
 SCF Done:  E(RB3LYP) =  -1654.62926363     A.U. after   12 cycles
 SCF Done:  E(RB3LYP) =  -1654.62926799     A.U. after   11 cycles
 SCF Done:  E(RB3LYP) =  -1654.62926818     A.U. after   10 cycles
 SCF Done:  E(RB3LYP) =  -1654.62926825     A.U. after   11 cycles
 Optimization completed.
    -- Stationary point found.

                         Standard orientation:
 ---------------------------------------------------------------------
 Center     Atomic      Atomic             Coordinates (Angstroms)
 Number     Number       Type             X           Y           Z
 ---------------------------------------------------------------------
      1          6           0        3.983641    0.378342   -0.544230
      2          6           0        2.608222    0.722586   -0.714877
      3          6           0        1.740379   -0.097834   -0.033901
      4          6           0        4.150506   -0.703407    0.271242
      5          1           0        4.802045    0.912254   -1.012010
      6         16           0        2.644632   -1.321372    0.843335
      7          1           0        5.076210   -1.174726    0.563817
      8          6           0        0.282295   -0.038011    0.011331
      9         16           0       -0.528566    1.030172    1.170000
     10          6           0       -2.091467    0.515360    0.604808
     11          6           0       -1.961230   -0.425786   -0.409067
     12          6           0       -0.617548   -0.743182   -0.744075
     13          1           0       -0.312613   -1.447086   -1.506059
     14         16           0       -3.527736   -0.939443   -0.978618
     15          6           0       -4.316743    0.125492    0.162150
     16          6           0       -3.441017    0.834083    0.932703
     17          1           0       -5.395268    0.158665    0.188380
     18          1           0       -3.747494    1.541160    1.690930
     19          8           0        2.154989    1.756738   -1.481239
     20          1           0        2.901723    2.240257   -1.847108
 ---------------------------------------------------------------------

 The electronic state is 1-A.
 Alpha  occ. eigenvalues --  -88.88416 -88.88090 -88.87733 -19.16708 -10.24854
 Alpha  occ. eigenvalues --  -10.21813 -10.21368 -10.20937 -10.20751 -10.20741
 Alpha  occ. eigenvalues --  -10.20672 -10.19144 -10.19002 -10.18968  -7.97007
 Alpha  occ. eigenvalues --   -7.96665  -7.96303  -5.93305  -5.92977  -5.92930
 Alpha  occ. eigenvalues --   -5.92619  -5.92613  -5.92588  -5.92255  -5.92214
 Alpha  occ. eigenvalues --   -5.91841  -1.07802  -0.91216  -0.89169  -0.84619
 Alpha  occ. eigenvalues --   -0.76937  -0.76019  -0.74118  -0.71003  -0.70149
 Alpha  occ. eigenvalues --   -0.61699  -0.60790  -0.57152  -0.55798  -0.53784
 Alpha  occ. eigenvalues --   -0.51899  -0.49357  -0.48356  -0.45247  -0.43649
 Alpha  occ. eigenvalues --   -0.43272  -0.41388  -0.40925  -0.39468  -0.39006
 Alpha  occ. eigenvalues --   -0.37736  -0.36862  -0.36047  -0.35654  -0.33865
 Alpha  occ. eigenvalues --   -0.33373  -0.28636  -0.25801  -0.23441  -0.23194
 Alpha  occ. eigenvalues --   -0.22141
 Alpha virt. eigenvalues --   -0.04307  -0.03406  -0.01648  -0.00220   0.00138
 Alpha virt. eigenvalues --    0.00293   0.00727   0.01648   0.02091   0.02822
 Alpha virt. eigenvalues --    0.03070   0.03629   0.03825   0.04304   0.04719

 Mulliken charges:
               1
     1  C   -0.058346
     2  C   -0.468060
     3  C    0.322850
     4  C   -0.207870
     5  H    0.120044
     6  S   -0.107731
     7  H    0.163850
     8  C    0.348663
     9  S   -0.469583
    10  C    0.194493
    11  C   -0.483955
    12  C    0.470189
    13  H    0.133261
    14  S   -0.382838
    15  C   -0.217594
    16  C    0.321985
    17  H    0.166446
    18  H    0.134772
    19  O   -0.238923
    20  H    0.258348
 Sum of Mulliken charges =  -0.00000

 Dipole moment (field-independent basis, Debye):
    X=              1.9583    Y=              0.6741    Z=             -0.6168  Tot=              2.1610
 Quadrupole moment (field-independent basis, Debye-Ang):
   XX=            -78.8511   YY=           -100.7014   ZZ=           -102.1266
   XY=              1.8066   XZ=             -6.5270   YZ=             -0.0948

 Normal termination of Gaussian 16 at Sun Oct 17 01:58:04 2021.
