 Gaussian 16, Revision C.01,
 Gaussian 16:  ES64L-G16RevC.01  3-Jul-2019

 -------------------------------------
 # opt=modredundant b3lyp/6-311+g(d,p)
 -------------------------------------

 -------------
 pBTTT_-55.pdb
 -------------
 Symbolic Z-matrix:
 Charge =  0 Multiplicity = 1

 SCF Done:  E(RB3LYP) =  -1654.53282175     A.U. after   17 cycles
 SCF Done:  E(RB3LYP) =  -1654.58574432     A.U. after   14 cycles
 SCF Done:  E(RB3LYP) =  -1654.61893604     A.U. after   15 cycles
 SCF Done:  E(RB3LYP) =  -1654.62805173     A.U. after   14 cycles
 SCF Done:  E(RB3LYP) =  -1654.63010905     A.U. after   14 cycles
 SCF Done:  E(RB3LYP) =  -1654.63057773     A.U. after   13 cycles
 SCF Done:  E(RB3LYP) =  -1654.63071325     A.U. after   13 cycles
 SCF Done:  E(RB3LYP) =  -1654.63087016     A.U. after   13 cycles
 SCF Done:  E(RB3LYP) =  -1654.63087863     A.U. after   12 cycles
 SCF Done:  E(RB3LYP) =  -1654.63088757     A.U. after   12 cycles
 SCF Done:  E(RB3LYP) =  -1654.63089034     A.U. after   10 cycles
 SCF Done:  E(RB3LYP) =  -1654.63089048     A.U. after    9 cycles
 Optimization completed.
    -- Stationary point found.

                         Standard orientation:
 ---------------------------------------------------------------------
 Center     Atomic      Atomic             Coordinates (Angstroms)
 Number     Number       Type             X           Y           Z
 ---------------------------------------------------------------------
      1          6           0       -4.020998    0.330139    0.340373
      2          6           0       -2.678514    0.795450    0.464853
      3          6           0       -1.734428   -0.093466    0.000644
      4          6           0       -4.091914   -0.916003   -0.212564
      5          1           0       -4.887211    0.898320    0.657504
      6         16           0       -2.529532   -1.535842   -0.606594
      7          1           0       -4.974678   -1.502155   -0.416059
      8          6           0       -0.284672    0.003665    0.022639
      9         16           0        0.535417    1.403931   -0.687364
     10          6           0        2.093895    0.701524   -0.358771
     11          6           0        1.956060   -0.544153    0.240685
     12          6           0        0.611354   -0.943579    0.456799
     13          1           0        0.304017   -1.870170    0.921813
     14         16           0        3.518680   -1.238429    0.585023
     15          6           0        4.316312    0.167084   -0.084782
     16          6           0        3.445004    1.113586   -0.541410
     17          1           0        5.395009    0.199771   -0.100290
     18          1           0        3.756538    2.048002   -0.987181
     19          8           0       -2.319428    1.999753    0.999475
     20          1           0       -3.103891    2.468164    1.300567
 ---------------------------------------------------------------------

 The electronic state is 1-A.
 Alpha  occ. eigenvalues --  -88.88563 -88.88027 -88.87710 -19.16838 -10.24888
 Alpha  occ. eigenvalues --  -10.22013 -10.21403 -10.21216 -10.20685 -10.20648
 Alpha  occ. eigenvalues --  -10.20622 -10.19252 -10.18943 -10.18857  -7.97155
 Alpha  occ. eigenvalues --   -7.96602  -7.96275  -5.93458  -5.93082  -5.92914
 Alpha  occ. eigenvalues --   -5.92729  -5.92596  -5.92550  -5.92230  -5.92149
 Alpha  occ. eigenvalues --   -5.91802  -1.07917  -0.91218  -0.89291  -0.84621
 Alpha  occ. eigenvalues --   -0.77003  -0.76088  -0.74259  -0.70959  -0.70149
 Alpha  occ. eigenvalues --   -0.61819  -0.60951  -0.57184  -0.55946  -0.53483
 Alpha  occ. eigenvalues --   -0.52022  -0.49314  -0.48498  -0.45261  -0.43726
 Alpha  occ. eigenvalues --   -0.43460  -0.41352  -0.40903  -0.39467  -0.38937
 Alpha  occ. eigenvalues --   -0.37804  -0.36926  -0.36125  -0.35733  -0.33766
 Alpha  occ. eigenvalues --   -0.33612  -0.28666  -0.26290  -0.24442  -0.23203
 Alpha  occ. eigenvalues --   -0.20823
 Alpha virt. eigenvalues --   -0.05207  -0.02330  -0.01709  -0.00215   0.00019
 Alpha virt. eigenvalues --    0.00234   0.00920   0.01670   0.02207   0.02801
 Alpha virt. eigenvalues --    0.03137   0.03730   0.04001   0.04291   0.04679

 Mulliken charges:
               1
     1  C   -0.079786
     2  C   -0.443667
     3  C    0.408953
     4  C   -0.205227
     5  H    0.119509
     6  S   -0.213070
     7  H    0.164471
     8  C    0.342149
     9  S   -0.444877
    10  C    0.211234
    11  C   -0.611432
    12  C    0.641287
    13  H    0.138345
    14  S   -0.394531
    15  C   -0.213662
    16  C    0.269557
    17  H    0.165906
    18  H    0.134355
    19  O   -0.241427
    20  H    0.251915
 Sum of Mulliken charges =  -0.00000

 Dipole moment (field-independent basis, Debye):
    X=             -2.1393    Y=              0.6605    Z=              0.4818  Tot=              2.2902
 Quadrupole moment (field-independent basis, Debye-Ang):
   XX=            -78.2657   YY=            -97.4295   ZZ=           -105.9825
   XY=             -1.1517   XZ=             -4.6866   YZ=              0.1131

 Normal termination of Gaussian 16 at Sun Oct 17 01:57:24 2021.
