 Gaussian 16, Revision C.01,
 Gaussian 16:  ES64L-G16RevC.01  3-Jul-2019

 -------------------------------------
 # opt=modredundant b3lyp/6-311+g(d,p)
 -------------------------------------

 ------------
 pBTTT_80.pdb
 ------------
 Symbolic Z-matrix:
 Charge =  0 Multiplicity = 1

 SCF Done:  E(RB3LYP) =  -1654.52999445     A.U. after   17 cycles
 SCF Done:  E(RB3LYP) =  -1654.58318168     A.U. after   14 cycles
 SCF Done:  E(RB3LYP) =  -1654.61713200     A.U. after   15 cycles
 SCF Done:  E(RB3LYP) =  -1654.62629652     A.U. after   15 cycles
 SCF Done:  E(RB3LYP) =  -1654.62850199     A.U. after   15 cycles
 SCF Done:  E(RB3LYP) =  -1654.62909010     A.U. after   13 cycles
 SCF Done:  E(RB3LYP) =  -1654.62923364     A.U. after   14 cycles
 SCF Done:  E(RB3LYP) =  -1654.62938257     A.U. after   13 cycles
 SCF Done:  E(RB3LYP) =  -1654.62939546     A.U. after   12 cycles
 SCF Done:  E(RB3LYP) =  -1654.62939918     A.U. after   11 cycles
 SCF Done:  E(RB3LYP) =  -1654.62940198     A.U. after   11 cycles
 SCF Done:  E(RB3LYP) =  -1654.62940229     A.U. after   10 cycles
 SCF Done:  E(RB3LYP) =  -1654.62940242     A.U. after   10 cycles
 Optimization completed.
    -- Stationary point found.

                         Standard orientation:
 ---------------------------------------------------------------------
 Center     Atomic      Atomic             Coordinates (Angstroms)
 Number     Number       Type             X           Y           Z
 ---------------------------------------------------------------------
      1          6           0        3.993947    0.347874    0.516779
      2          6           0        2.625829    0.716164    0.694293
      3          6           0        1.739764   -0.094114    0.024300
      4          6           0        4.137359   -0.743944   -0.289797
      5          1           0        4.824228    0.871511    0.975168
      6         16           0        2.617481   -1.339730   -0.848389
      7          1           0        5.053063   -1.233277   -0.584216
      8          6           0        0.282305   -0.022778   -0.003045
      9         16           0       -0.531574    1.148498   -1.054678
     10          6           0       -2.093028    0.574315   -0.545239
     11          6           0       -1.960175   -0.463678    0.368814
     12          6           0       -0.615680   -0.806158    0.674189
     13          1           0       -0.309140   -1.581115    1.363130
     14         16           0       -3.525241   -1.036338    0.883451
     15          6           0       -4.317247    0.136953   -0.143359
     16          6           0       -3.443431    0.921693   -0.838618
     17          1           0       -5.395859    0.169073   -0.167102
     18          1           0       -3.751866    1.701021   -1.521499
     19          8           0        2.194925    1.761418    1.458527
     20          1           0        2.951660    2.224609    1.830251
 ---------------------------------------------------------------------

 The electronic state is 1-A.
 Alpha  occ. eigenvalues --  -88.88435 -88.88085 -88.87724 -19.16717 -10.24854
 Alpha  occ. eigenvalues --  -10.21836 -10.21369 -10.20960 -10.20742 -10.20733
 Alpha  occ. eigenvalues --  -10.20670 -10.19154 -10.18996 -10.18965  -7.97024
 Alpha  occ. eigenvalues --   -7.96660  -7.96294  -5.93323  -5.92972  -5.92948
 Alpha  occ. eigenvalues --   -5.92610  -5.92608  -5.92605  -5.92246  -5.92209
 Alpha  occ. eigenvalues --   -5.91831  -1.07811  -0.91216  -0.89181  -0.84620
 Alpha  occ. eigenvalues --   -0.76940  -0.76025  -0.74131  -0.70999  -0.70152
 Alpha  occ. eigenvalues --   -0.61709  -0.60805  -0.57156  -0.55817  -0.53741
 Alpha  occ. eigenvalues --   -0.51918  -0.49354  -0.48367  -0.45242  -0.43663
 Alpha  occ. eigenvalues --   -0.43288  -0.41392  -0.40922  -0.39468  -0.38993
 Alpha  occ. eigenvalues --   -0.37732  -0.36877  -0.36058  -0.35666  -0.33852
 Alpha  occ. eigenvalues --   -0.33389  -0.28635  -0.25842  -0.23543  -0.23262
 Alpha  occ. eigenvalues --   -0.21946
 Alpha virt. eigenvalues --   -0.04439  -0.03246  -0.01655  -0.00234   0.00116
 Alpha virt. eigenvalues --    0.00275   0.00739   0.01645   0.02103   0.02827
 Alpha virt. eigenvalues --    0.03092   0.03635   0.03832   0.04318   0.04702

 Mulliken charges:
               1
     1  C   -0.041783
     2  C   -0.499754
     3  C    0.328873
     4  C   -0.221135
     5  H    0.119897
     6  S   -0.120908
     7  H    0.163977
     8  C    0.416398
     9  S   -0.461581
    10  C    0.205085
    11  C   -0.492573
    12  C    0.448045
    13  H    0.134571
    14  S   -0.383663
    15  C   -0.217210
    16  C    0.308424
    17  H    0.166409
    18  H    0.134770
    19  O   -0.244371
    20  H    0.256528
 Sum of Mulliken charges =  -0.00000

 Dipole moment (field-independent basis, Debye):
    X=              1.9869    Y=              0.6241    Z=              0.6088  Tot=              2.1698
 Quadrupole moment (field-independent basis, Debye-Ang):
   XX=            -78.6656   YY=           -100.1105   ZZ=           -102.8533
   XY=              1.4252   XZ=              6.3153   YZ=              0.0613

 Normal termination of Gaussian 16 at Sun Oct 17 02:17:27 2021.
