 Gaussian 16, Revision C.01,
 Gaussian 16:  ES64L-G16RevC.01  3-Jul-2019

 -------------------------------------
 # opt=modredundant b3lyp/6-311+g(d,p)
 -------------------------------------

 --------------
 pBTTT_-120.pdb
 --------------
 Symbolic Z-matrix:
 Charge =  0 Multiplicity = 1

 SCF Done:  E(RB3LYP) =  -1654.53142123     A.U. after   16 cycles
 SCF Done:  E(RB3LYP) =  -1654.58436559     A.U. after   14 cycles
 SCF Done:  E(RB3LYP) =  -1654.61817000     A.U. after   15 cycles
 SCF Done:  E(RB3LYP) =  -1654.62734577     A.U. after   14 cycles
 SCF Done:  E(RB3LYP) =  -1654.62956831     A.U. after   14 cycles
 SCF Done:  E(RB3LYP) =  -1654.63015378     A.U. after   14 cycles
 SCF Done:  E(RB3LYP) =  -1654.63028582     A.U. after   14 cycles
 SCF Done:  E(RB3LYP) =  -1654.63046308     A.U. after   13 cycles
 SCF Done:  E(RB3LYP) =  -1654.63048016     A.U. after   12 cycles
 SCF Done:  E(RB3LYP) =  -1654.63048951     A.U. after   12 cycles
 SCF Done:  E(RB3LYP) =  -1654.63049225     A.U. after   10 cycles
 SCF Done:  E(RB3LYP) =  -1654.63049238     A.U. after    9 cycles
 Optimization completed.
    -- Stationary point found.

                         Standard orientation:
 ---------------------------------------------------------------------
 Center     Atomic      Atomic             Coordinates (Angstroms)
 Number     Number       Type             X           Y           Z
 ---------------------------------------------------------------------
      1          6           0        3.930839    0.796653    0.266499
      2          6           0        2.531638    1.045393    0.396649
      3          6           0        1.737569    0.044579   -0.116634
      4          6           0        4.193040   -0.400974   -0.333012
      5          1           0        4.698885    1.479159    0.609914
      6         16           0        2.746664   -1.237206   -0.767944
      7          1           0        5.155720   -0.835736   -0.553233
      8          6           0        0.286938   -0.047990   -0.097151
      9         16           0       -0.512161   -1.414287    0.704632
     10          6           0       -2.081031   -0.741383    0.361971
     11          6           0       -1.959280    0.473031   -0.301527
     12          6           0       -0.620661    0.867726   -0.564383
     13          1           0       -0.324597    1.774191   -1.072853
     14         16           0       -3.531121    1.146570   -0.644071
     15          6           0       -4.309888   -0.224500    0.112678
     16          6           0       -3.426173   -1.145222    0.597627
     17          1           0       -5.387915   -0.259368    0.151925
     18          1           0       -3.725049   -2.056222    1.097226
     19          8           0        1.992804    2.162335    0.969425
     20          1           0        2.688468    2.674181    1.393433
 ---------------------------------------------------------------------

 The electronic state is 1-A.
 Alpha  occ. eigenvalues --  -88.88499 -88.88048 -88.87836 -19.16816 -10.24902
 Alpha  occ. eigenvalues --  -10.21878 -10.21412 -10.21164 -10.20730 -10.20674
 Alpha  occ. eigenvalues --  -10.20668 -10.19225 -10.18984 -10.18783  -7.97096
 Alpha  occ. eigenvalues --   -7.96622  -7.96410  -5.93395  -5.93021  -5.92934
 Alpha  occ. eigenvalues --   -5.92728  -5.92672  -5.92570  -5.92367  -5.92172
 Alpha  occ. eigenvalues --   -5.91940  -1.07871  -0.91227  -0.89257  -0.84624
 Alpha  occ. eigenvalues --   -0.76999  -0.76085  -0.74222  -0.70986  -0.70108
 Alpha  occ. eigenvalues --   -0.61797  -0.60872  -0.57098  -0.55873  -0.53887
 Alpha  occ. eigenvalues --   -0.51823  -0.49292  -0.48449  -0.45346  -0.43632
 Alpha  occ. eigenvalues --   -0.43373  -0.41293  -0.40880  -0.39607  -0.39003
 Alpha  occ. eigenvalues --   -0.37799  -0.36764  -0.36002  -0.35785  -0.33900
 Alpha  occ. eigenvalues --   -0.33577  -0.28679  -0.26150  -0.24389  -0.23261
 Alpha  occ. eigenvalues --   -0.21022
 Alpha virt. eigenvalues --   -0.05009  -0.02804  -0.01599  -0.00143   0.00161
 Alpha virt. eigenvalues --    0.00418   0.00915   0.01665   0.02071   0.02768
 Alpha virt. eigenvalues --    0.03055   0.03726   0.03823   0.04588   0.04696

 Mulliken charges:
               1
     1  C   -0.161949
     2  C   -0.294556
     3  C    0.395597
     4  C   -0.177461
     5  H    0.120457
     6  S   -0.249382
     7  H    0.164147
     8  C    0.154657
     9  S   -0.557990
    10  C    0.088251
    11  C   -0.246839
    12  C    0.602656
    13  H    0.133729
    14  S   -0.393886
    15  C   -0.210735
    16  C    0.313944
    17  H    0.166148
    18  H    0.133980
    19  O   -0.232059
    20  H    0.251290
 Sum of Mulliken charges =  -0.00000

 Dipole moment (field-independent basis, Debye):
    X=              1.9519    Y=              0.8826    Z=              0.6889  Tot=              2.2503
 Quadrupole moment (field-independent basis, Debye-Ang):
   XX=            -79.8322   YY=            -97.3756   ZZ=           -104.8936
   XY=              8.1622   XZ=              1.4133   YZ=              0.6427

 Normal termination of Gaussian 16 at Sun Oct 17 01:45:40 2021.
