 Gaussian 16, Revision C.01,
 Gaussian 16:  ES64L-G16RevC.01  3-Jul-2019

 -------------------------------------
 # opt=modredundant b3lyp/6-311+g(d,p)
 -------------------------------------

 ------------
 pBTTT_75.pdb
 ------------
 Symbolic Z-matrix:
 Charge =  0 Multiplicity = 1

 SCF Done:  E(RB3LYP) =  -1654.53035077     A.U. after   17 cycles
 SCF Done:  E(RB3LYP) =  -1654.58344926     A.U. after   14 cycles
 SCF Done:  E(RB3LYP) =  -1654.61728638     A.U. after   15 cycles
 SCF Done:  E(RB3LYP) =  -1654.62646556     A.U. after   15 cycles
 SCF Done:  E(RB3LYP) =  -1654.62869134     A.U. after   14 cycles
 SCF Done:  E(RB3LYP) =  -1654.62929423     A.U. after   13 cycles
 SCF Done:  E(RB3LYP) =  -1654.62944677     A.U. after   14 cycles
 SCF Done:  E(RB3LYP) =  -1654.62959648     A.U. after   13 cycles
 SCF Done:  E(RB3LYP) =  -1654.62960968     A.U. after   12 cycles
 SCF Done:  E(RB3LYP) =  -1654.62961356     A.U. after   11 cycles
 SCF Done:  E(RB3LYP) =  -1654.62961501     A.U. after   11 cycles
 SCF Done:  E(RB3LYP) =  -1654.62961556     A.U. after   10 cycles
 SCF Done:  E(RB3LYP) =  -1654.62961563     A.U. after   10 cycles
 Optimization completed.
    -- Stationary point found.

                         Standard orientation:
 ---------------------------------------------------------------------
 Center     Atomic      Atomic             Coordinates (Angstroms)
 Number     Number       Type             X           Y           Z
 ---------------------------------------------------------------------
      1          6           0        4.002439    0.336393    0.479675
      2          6           0        2.641332    0.731593    0.651032
      3          6           0        1.738948   -0.090279    0.017227
      4          6           0        4.124837   -0.788869   -0.283356
      5          1           0        4.843185    0.865171    0.912388
      6         16           0        2.592672   -1.381946   -0.810777
      7          1           0        5.031309   -1.302979   -0.563692
      8          6           0        0.282628   -0.010903    0.004896
      9         16           0       -0.534240    1.221787   -0.971060
     10          6           0       -2.094238    0.610264   -0.501837
     11          6           0       -1.958763   -0.486363    0.340537
     12          6           0       -0.613578   -0.842666    0.625598
     13          1           0       -0.305481   -1.660259    1.262646
     14         16           0       -3.522409   -1.095332    0.816338
     15          6           0       -4.317390    0.143068   -0.128603
     16          6           0       -3.445397    0.974656   -0.769635
     17          1           0       -5.396071    0.173965   -0.150374
     18          1           0       -3.755732    1.797611   -1.398329
     19          8           0        2.230740    1.811027    1.378381
     20          1           0        2.995578    2.264756    1.745113
 ---------------------------------------------------------------------

 The electronic state is 1-A.
 Alpha  occ. eigenvalues --  -88.88459 -88.88077 -88.87718 -19.16728 -10.24857
 Alpha  occ. eigenvalues --  -10.21865 -10.21371 -10.20996 -10.20731 -10.20720
 Alpha  occ. eigenvalues --  -10.20666 -10.19169 -10.18988 -10.18953  -7.97049
 Alpha  occ. eigenvalues --   -7.96652  -7.96287  -5.93348  -5.92973  -5.92964
 Alpha  occ. eigenvalues --   -5.92629  -5.92605  -5.92600  -5.92240  -5.92201
 Alpha  occ. eigenvalues --   -5.91822  -1.07820  -0.91217  -0.89199  -0.84621
 Alpha  occ. eigenvalues --   -0.76948  -0.76034  -0.74150  -0.70993  -0.70153
 Alpha  occ. eigenvalues --   -0.61725  -0.60825  -0.57160  -0.55840  -0.53693
 Alpha  occ. eigenvalues --   -0.51937  -0.49349  -0.48383  -0.45240  -0.43677
 Alpha  occ. eigenvalues --   -0.43313  -0.41392  -0.40918  -0.39467  -0.38978
 Alpha  occ. eigenvalues --   -0.37730  -0.36893  -0.36067  -0.35684  -0.33836
 Alpha  occ. eigenvalues --   -0.33419  -0.28635  -0.25905  -0.23751  -0.23256
 Alpha  occ. eigenvalues --   -0.21707
 Alpha virt. eigenvalues --   -0.04598  -0.03056  -0.01663  -0.00242   0.00092
 Alpha virt. eigenvalues --    0.00258   0.00762   0.01645   0.02119   0.02826
 Alpha virt. eigenvalues --    0.03110   0.03651   0.03849   0.04331   0.04687

 Mulliken charges:
               1
     1  C   -0.032049
     2  C   -0.507576
     3  C    0.324848
     4  C   -0.234821
     5  H    0.119762
     6  S   -0.136492
     7  H    0.164135
     8  C    0.456231
     9  S   -0.449444
    10  C    0.204439
    11  C   -0.502713
    12  C    0.455865
    13  H    0.135782
    14  S   -0.385067
    15  C   -0.217502
    16  C    0.295614
    17  H    0.166339
    18  H    0.134730
    19  O   -0.246858
    20  H    0.254778
 Sum of Mulliken charges =  -0.00000

 Dipole moment (field-independent basis, Debye):
    X=              2.0172    Y=              0.6000    Z=              0.5899  Tot=              2.1857
 Quadrupole moment (field-independent basis, Debye-Ang):
   XX=            -78.5209   YY=            -99.5500   ZZ=           -103.5327
   XY=              1.2514   XZ=              6.0508   YZ=              0.0529

 Normal termination of Gaussian 16 at Sun Oct 17 02:17:03 2021.
