 Gaussian 16, Revision C.01,
 Gaussian 16:  ES64L-G16RevC.01  3-Jul-2019

 -------------------------------------
 # opt=modredundant b3lyp/6-311+g(d,p)
 -------------------------------------

 --------------
 pBTTT_-130.pdb
 --------------
 Symbolic Z-matrix:
 Charge =  0 Multiplicity = 1

 SCF Done:  E(RB3LYP) =  -1654.53246483     A.U. after   16 cycles
 SCF Done:  E(RB3LYP) =  -1654.58532291     A.U. after   14 cycles
 SCF Done:  E(RB3LYP) =  -1654.61897932     A.U. after   15 cycles
 SCF Done:  E(RB3LYP) =  -1654.62811428     A.U. after   15 cycles
 SCF Done:  E(RB3LYP) =  -1654.63033721     A.U. after   14 cycles
 SCF Done:  E(RB3LYP) =  -1654.63088610     A.U. after   12 cycles
 SCF Done:  E(RB3LYP) =  -1654.63098900     A.U. after   13 cycles
 SCF Done:  E(RB3LYP) =  -1654.63117199     A.U. after   13 cycles
 SCF Done:  E(RB3LYP) =  -1654.63118725     A.U. after   11 cycles
 SCF Done:  E(RB3LYP) =  -1654.63119547     A.U. after   11 cycles
 SCF Done:  E(RB3LYP) =  -1654.63119791     A.U. after   10 cycles
 SCF Done:  E(RB3LYP) =  -1654.63119801     A.U. after    9 cycles
 Optimization completed.
    -- Stationary point found.

                         Standard orientation:
 ---------------------------------------------------------------------
 Center     Atomic      Atomic             Coordinates (Angstroms)
 Number     Number       Type             X           Y           Z
 ---------------------------------------------------------------------
      1          6           0        3.926354    0.827984    0.233756
      2          6           0        2.526821    1.085754    0.330017
      3          6           0        1.736267    0.044497   -0.105161
      4          6           0        4.194423   -0.414281   -0.263651
      5          1           0        4.691065    1.536948    0.527373
      6         16           0        2.751435   -1.282876   -0.645479
      7          1           0        5.158536   -0.865782   -0.438832
      8          6           0        0.288393   -0.046856   -0.090914
      9         16           0       -0.513319   -1.477894    0.585776
     10          6           0       -2.081325   -0.775694    0.300217
     11          6           0       -1.956781    0.493525   -0.250412
     12          6           0       -0.618129    0.909472   -0.475049
     13          1           0       -0.320661    1.857883   -0.898463
     14         16           0       -3.527551    1.197095   -0.532366
     15          6           0       -4.309104   -0.236008    0.096161
     16          6           0       -3.426673   -1.197733    0.497131
     17          1           0       -5.387197   -0.273144    0.130444
     18          1           0       -3.727023   -2.149884    0.911928
     19          8           0        1.982923    2.247918    0.800500
     20          1           0        2.671374    2.785485    1.204101
 ---------------------------------------------------------------------

 The electronic state is 1-A.
 Alpha  occ. eigenvalues --  -88.88554 -88.88026 -88.87863 -19.16911 -10.24915
 Alpha  occ. eigenvalues --  -10.21942 -10.21427 -10.21287 -10.20716 -10.20660
 Alpha  occ. eigenvalues --  -10.20641 -10.19271 -10.18973 -10.18697  -7.97152
 Alpha  occ. eigenvalues --   -7.96600  -7.96439  -5.93453  -5.93079  -5.92912
 Alpha  occ. eigenvalues --   -5.92759  -5.92725  -5.92548  -5.92398  -5.92150
 Alpha  occ. eigenvalues --   -5.91964  -1.07940  -0.91237  -0.89308  -0.84632
 Alpha  occ. eigenvalues --   -0.77032  -0.76123  -0.74284  -0.70980  -0.70098
 Alpha  occ. eigenvalues --   -0.61854  -0.60942  -0.57078  -0.55945  -0.53871
 Alpha  occ. eigenvalues --   -0.51821  -0.49278  -0.48484  -0.45372  -0.43656
 Alpha  occ. eigenvalues --   -0.43448  -0.41268  -0.40854  -0.39684  -0.39008
 Alpha  occ. eigenvalues --   -0.37814  -0.36759  -0.35990  -0.35867  -0.33920
 Alpha  occ. eigenvalues --   -0.33662  -0.28720  -0.26366  -0.24600  -0.23306
 Alpha  occ. eigenvalues --   -0.20654
 Alpha virt. eigenvalues --   -0.05273  -0.02595  -0.01540  -0.00257   0.00237
 Alpha virt. eigenvalues --    0.00454   0.01008   0.01634   0.02097   0.02728
 Alpha virt. eigenvalues --    0.03155   0.03788   0.03831   0.04674   0.04701

 Mulliken charges:
               1
     1  C   -0.166694
     2  C   -0.319454
     3  C    0.548075
     4  C   -0.176236
     5  H    0.120525
     6  S   -0.305072
     7  H    0.164036
     8  C    0.544848
     9  S   -0.475911
    10  C    0.352798
    11  C    0.160365
    12  C   -0.059661
    13  H    0.137234
    14  S   -0.401940
    15  C   -0.132123
    16  C   -0.298547
    17  H    0.166050
    18  H    0.134345
    19  O   -0.245466
    20  H    0.252827
 Sum of Mulliken charges =  -0.00000

 Dipole moment (field-independent basis, Debye):
    X=              1.9832    Y=              0.9300    Z=              0.6662  Tot=              2.2895
 Quadrupole moment (field-independent basis, Debye-Ang):
   XX=            -79.9291   YY=            -96.3267   ZZ=           -105.9206
   XY=              8.4939   XZ=              1.4311   YZ=              0.8217

 Normal termination of Gaussian 16 at Sun Oct 17 01:45:38 2021.
