 Gaussian 16, Revision C.01,
 Gaussian 16:  ES64L-G16RevC.01  3-Jul-2019

 -------------------------------------
 # opt=modredundant b3lyp/6-311+g(d,p)
 -------------------------------------

 -------------
 pBTTT_170.pdb
 -------------
 Symbolic Z-matrix:
 Charge =  0 Multiplicity = 1

 SCF Done:  E(RB3LYP) =  -1654.53495232     A.U. after   17 cycles
 SCF Done:  E(RB3LYP) =  -1654.58755695     A.U. after   15 cycles
 SCF Done:  E(RB3LYP) =  -1654.62068005     A.U. after   15 cycles
 SCF Done:  E(RB3LYP) =  -1654.62970705     A.U. after   15 cycles
 SCF Done:  E(RB3LYP) =  -1654.63177099     A.U. after   14 cycles
 SCF Done:  E(RB3LYP) =  -1654.63232716     A.U. after   13 cycles
 SCF Done:  E(RB3LYP) =  -1654.63244390     A.U. after   13 cycles
 SCF Done:  E(RB3LYP) =  -1654.63258737     A.U. after   12 cycles
 SCF Done:  E(RB3LYP) =  -1654.63259367     A.U. after   12 cycles
 SCF Done:  E(RB3LYP) =  -1654.63259858     A.U. after   11 cycles
 SCF Done:  E(RB3LYP) =  -1654.63260017     A.U. after   10 cycles
 SCF Done:  E(RB3LYP) =  -1654.63260026     A.U. after    9 cycles
 Optimization completed.
    -- Stationary point found.

                         Standard orientation:
 ---------------------------------------------------------------------
 Center     Atomic      Atomic             Coordinates (Angstroms)
 Number     Number       Type             X           Y           Z
 ---------------------------------------------------------------------
      1          6           0       -3.930696    0.886082    0.043177
      2          6           0       -2.534194    1.162370    0.071994
      3          6           0       -1.734073    0.038803   -0.012053
      4          6           0       -4.197517   -0.447264   -0.066820
      5          1           0       -4.696015    1.650673    0.101491
      6         16           0       -2.750111   -1.387840   -0.148284
      7          1           0       -5.158514   -0.935045   -0.110684
      8          6           0       -0.290206   -0.036744   -0.006165
      9         16           0        0.527385   -1.605604    0.140318
     10          6           0        2.090743   -0.839579    0.065313
     11          6           0        1.953944    0.537030   -0.050368
     12          6           0        0.613966    0.999879   -0.092425
     13          1           0        0.310879    2.031076   -0.183914
     14         16           0        3.519793    1.302881   -0.120092
     15          6           0        4.313551   -0.250871    0.008481
     16          6           0        3.437676   -1.295300    0.099225
     17          1           0        5.392018   -0.291030    0.008810
     18          1           0        3.745114   -2.328219    0.185342
     19          8           0       -1.997992    2.417017    0.172203
     20          1           0       -2.701777    3.058996    0.308112
 ---------------------------------------------------------------------

 The electronic state is 1-A.
 Alpha  occ. eigenvalues --  -88.88687 -88.87958 -88.87879 -19.17398 -10.25015
 Alpha  occ. eigenvalues --  -10.22205 -10.21691 -10.21487 -10.20674 -10.20611
 Alpha  occ. eigenvalues --  -10.20556 -10.19403 -10.18940 -10.18381  -7.97295
 Alpha  occ. eigenvalues --   -7.96532  -7.96469  -5.93605  -5.93227  -5.92852
 Alpha  occ. eigenvalues --   -5.92844  -5.92796  -5.92481  -5.92436  -5.92081
 Alpha  occ. eigenvalues --   -5.91979  -1.08350  -0.91250  -0.89452  -0.84632
 Alpha  occ. eigenvalues --   -0.77111  -0.76214  -0.74462  -0.70941  -0.70094
 Alpha  occ. eigenvalues --   -0.62029  -0.61252  -0.57019  -0.56217  -0.53776
 Alpha  occ. eigenvalues --   -0.51872  -0.49432  -0.48445  -0.45431  -0.43802
 Alpha  occ. eigenvalues --   -0.43657  -0.41164  -0.40865  -0.39886  -0.39128
 Alpha  occ. eigenvalues --   -0.37819  -0.36749  -0.36598  -0.35603  -0.34186
 Alpha  occ. eigenvalues --   -0.33616  -0.28901  -0.26938  -0.24954  -0.23320
 Alpha  occ. eigenvalues --   -0.19863
 Alpha virt. eigenvalues --   -0.05933  -0.02394  -0.01162  -0.00905   0.00384
 Alpha virt. eigenvalues --    0.00575   0.01328   0.01455   0.02151   0.02686
 Alpha virt. eigenvalues --    0.03408   0.03783   0.04199   0.04716   0.04847

 Mulliken charges:
               1
     1  C   -0.328565
     2  C    0.391321
     3  C    0.497730
     4  C   -0.089377
     5  H    0.118565
     6  S   -0.528115
     7  H    0.162079
     8  C    0.022386
     9  S   -0.600678
    10  C    0.311968
    11  C    0.285028
    12  C    0.030262
    13  H    0.150609
    14  S   -0.407475
    15  C   -0.152986
    16  C   -0.175103
    17  H    0.166016
    18  H    0.132947
    19  O   -0.246016
    20  H    0.259404
 Sum of Mulliken charges =  -0.00000

 Dipole moment (field-independent basis, Debye):
    X=             -2.1499    Y=              1.1281    Z=              0.1970  Tot=              2.4359
 Quadrupole moment (field-independent basis, Debye-Ang):
   XX=            -79.5876   YY=            -93.3757   ZZ=           -108.8913
   XY=             -9.7358   XZ=             -0.5306   YZ=              0.5615

 Normal termination of Gaussian 16 at Sun Oct 17 02:37:21 2021.
