 Gaussian 16, Revision C.01,
 Gaussian 16:  ES64L-G16RevC.01  3-Jul-2019

 -------------------------------------
 # opt=modredundant b3lyp/6-311+g(d,p)
 -------------------------------------

 ------------
 pBTTT_95.pdb
 ------------
 Symbolic Z-matrix:
 Charge =  0 Multiplicity = 1

 SCF Done:  E(RB3LYP) =  -1654.52977618     A.U. after   17 cycles
 SCF Done:  E(RB3LYP) =  -1654.58306781     A.U. after   14 cycles
 SCF Done:  E(RB3LYP) =  -1654.61708642     A.U. after   15 cycles
 SCF Done:  E(RB3LYP) =  -1654.62624155     A.U. after   14 cycles
 SCF Done:  E(RB3LYP) =  -1654.62842214     A.U. after   15 cycles
 SCF Done:  E(RB3LYP) =  -1654.62897965     A.U. after   14 cycles
 SCF Done:  E(RB3LYP) =  -1654.62911035     A.U. after   14 cycles
 SCF Done:  E(RB3LYP) =  -1654.62925266     A.U. after   13 cycles
 SCF Done:  E(RB3LYP) =  -1654.62926363     A.U. after   12 cycles
 SCF Done:  E(RB3LYP) =  -1654.62926893     A.U. after   12 cycles
 SCF Done:  E(RB3LYP) =  -1654.62927238     A.U. after   11 cycles
 SCF Done:  E(RB3LYP) =  -1654.62927254     A.U. after   10 cycles
 SCF Done:  E(RB3LYP) =  -1654.62927264     A.U. after   10 cycles
 Optimization completed.
    -- Stationary point found.

                         Standard orientation:
 ---------------------------------------------------------------------
 Center     Atomic      Atomic             Coordinates (Angstroms)
 Number     Number       Type             X           Y           Z
 ---------------------------------------------------------------------
      1          6           0       -3.961859    0.679364    0.285054
      2          6           0       -2.574058    0.906581    0.533918
      3          6           0       -1.740819    0.024220   -0.111992
      4          6           0       -4.172777   -0.383595   -0.544658
      5          1           0       -4.757410    1.281944    0.706536
      6         16           0       -2.694236   -1.120932   -1.041881
      7          1           0       -5.116496   -0.771233   -0.896474
      8          6           0       -0.283297   -0.039188   -0.062696
      9         16           0        0.522978   -1.132551    1.076421
     10          6           0        2.088041   -0.589619    0.544207
     11          6           0        1.961582    0.378867   -0.444021
     12          6           0        0.619408    0.690292   -0.790512
     13          1           0        0.317186    1.415627   -1.533096
     14         16           0        3.530200    0.924496   -0.976681
     15          6           0        4.314830   -0.164980    0.143699
     16          6           0        3.436179   -0.903816    0.881888
     17          1           0        5.393185   -0.187848    0.184103
     18          1           0        3.739680   -1.628572    1.624461
     19          8           0       -2.079520    1.898568    1.329876
     20          1           0       -2.806434    2.376562    1.740393
 ---------------------------------------------------------------------

 The electronic state is 1-A.
 Alpha  occ. eigenvalues --  -88.88405 -88.88089 -88.87754 -19.16710 -10.24858
 Alpha  occ. eigenvalues --  -10.21791 -10.21374 -10.20935 -10.20757 -10.20741
 Alpha  occ. eigenvalues --  -10.20673 -10.19144 -10.19006 -10.18946  -7.96997
 Alpha  occ. eigenvalues --   -7.96664  -7.96325  -5.93295  -5.92976  -5.92921
 Alpha  occ. eigenvalues --   -5.92640  -5.92612  -5.92578  -5.92277  -5.92214
 Alpha  occ. eigenvalues --   -5.91862  -1.07803  -0.91214  -0.89166  -0.84617
 Alpha  occ. eigenvalues --   -0.76941  -0.76017  -0.74117  -0.71002  -0.70138
 Alpha  occ. eigenvalues --   -0.61698  -0.60787  -0.57140  -0.55778  -0.53847
 Alpha  occ. eigenvalues --   -0.51867  -0.49349  -0.48357  -0.45266  -0.43627
 Alpha  occ. eigenvalues --   -0.43266  -0.41367  -0.40923  -0.39477  -0.39019
 Alpha  occ. eigenvalues --   -0.37748  -0.36836  -0.36030  -0.35659  -0.33880
 Alpha  occ. eigenvalues --   -0.33380  -0.28637  -0.25794  -0.23590  -0.23066
 Alpha  occ. eigenvalues --   -0.22134
 Alpha virt. eigenvalues --   -0.04289  -0.03458  -0.01640  -0.00173   0.00163
 Alpha virt. eigenvalues --    0.00327   0.00736   0.01665   0.02070   0.02806
 Alpha virt. eigenvalues --    0.03029   0.03635   0.03844   0.04304   0.04730

 Mulliken charges:
               1
     1  C   -0.099691
     2  C   -0.369204
     3  C    0.286179
     4  C   -0.185722
     5  H    0.120250
     6  S   -0.117229
     7  H    0.163810
     8  C    0.194237
     9  S   -0.482297
    10  C    0.155580
    11  C   -0.452519
    12  C    0.579877
    13  H    0.131255
    14  S   -0.383880
    15  C   -0.219513
    16  C    0.347265
    17  H    0.166389
    18  H    0.134637
    19  O   -0.227823
    20  H    0.258400
 Sum of Mulliken charges =  -0.00000

 Dipole moment (field-independent basis, Debye):
    X=             -1.9221    Y=              0.8092    Z=              0.5917  Tot=              2.1678
 Quadrupole moment (field-independent basis, Debye-Ang):
   XX=            -79.2378   YY=           -100.4884   ZZ=           -102.0686
   XY=             -7.3126   XZ=             -0.8099   YZ=              0.2381

 Normal termination of Gaussian 16 at Sun Oct 17 02:24:37 2021.
