 Gaussian 16, Revision C.01,
 Gaussian 16:  ES64L-G16RevC.01  3-Jul-2019

 -------------------------------------
 # opt=modredundant b3lyp/6-311+g(d,p)
 -------------------------------------

 ------------
 pBTTT_45.pdb
 ------------
 Symbolic Z-matrix:
 Charge =  0 Multiplicity = 1

 SCF Done:  E(RB3LYP) =  -1654.53312602     A.U. after   16 cycles
 SCF Done:  E(RB3LYP) =  -1654.58578213     A.U. after   15 cycles
 SCF Done:  E(RB3LYP) =  -1654.61894843     A.U. after   15 cycles
 SCF Done:  E(RB3LYP) =  -1654.62824122     A.U. after   15 cycles
 SCF Done:  E(RB3LYP) =  -1654.63053982     A.U. after   15 cycles
 SCF Done:  E(RB3LYP) =  -1654.63111130     A.U. after   13 cycles
 SCF Done:  E(RB3LYP) =  -1654.63131248     A.U. after   13 cycles
 SCF Done:  E(RB3LYP) =  -1654.63145302     A.U. after   12 cycles
 SCF Done:  E(RB3LYP) =  -1654.63146209     A.U. after   11 cycles
 SCF Done:  E(RB3LYP) =  -1654.63146570     A.U. after   10 cycles
 SCF Done:  E(RB3LYP) =  -1654.63146673     A.U. after   10 cycles
 SCF Done:  E(RB3LYP) =  -1654.63146702     A.U. after    9 cycles
 Optimization completed.
    -- Stationary point found.

                         Standard orientation:
 ---------------------------------------------------------------------
 Center     Atomic      Atomic             Coordinates (Angstroms)
 Number     Number       Type             X           Y           Z
 ---------------------------------------------------------------------
      1          6           0       -4.024714    0.337960   -0.278363
      2          6           0       -2.685804    0.817661   -0.377676
      3          6           0       -1.732189   -0.102517    0.000960
      4          6           0       -4.085843   -0.949053    0.172096
      5          1           0       -4.895898    0.926675   -0.539403
      6         16           0       -2.516757   -1.591355    0.500950
      7          1           0       -4.963723   -1.554236    0.336883
      8          6           0       -0.285384   -0.000863   -0.025301
      9         16           0        0.532482    1.458823    0.556534
     10          6           0        2.092020    0.730163    0.295412
     11          6           0        1.956849   -0.562807   -0.194111
     12          6           0        0.613736   -0.980531   -0.378116
     13          1           0        0.309998   -1.943428   -0.765216
     14         16           0        3.521060   -1.280882   -0.477169
     15          6           0        4.315733    0.178974    0.069319
     16          6           0        3.441877    1.159338    0.442394
     17          1           0        5.394330    0.214742    0.083151
     18          1           0        3.751145    2.129299    0.806348
     19          8           0       -2.336942    2.064409   -0.813502
     20          1           0       -3.126547    2.556353   -1.058456
 ---------------------------------------------------------------------

 The electronic state is 1-A.
 Alpha  occ. eigenvalues --  -88.88600 -88.87992 -88.87702 -19.16936 -10.24917
 Alpha  occ. eigenvalues --  -10.22082 -10.21434 -10.21337 -10.20660 -10.20603
 Alpha  occ. eigenvalues --  -10.20571 -10.19300 -10.18913 -10.18796  -7.97195
 Alpha  occ. eigenvalues --   -7.96567  -7.96264  -5.93500  -5.93124  -5.92880
 Alpha  occ. eigenvalues --   -5.92764  -5.92588  -5.92516  -5.92220  -5.92114
 Alpha  occ. eigenvalues --   -5.91787  -1.08005  -0.91211  -0.89337  -0.84614
 Alpha  occ. eigenvalues --   -0.77031  -0.76114  -0.74319  -0.70936  -0.70145
 Alpha  occ. eigenvalues --   -0.61869  -0.61037  -0.57199  -0.55999  -0.53377
 Alpha  occ. eigenvalues --   -0.52065  -0.49298  -0.48571  -0.45284  -0.43749
 Alpha  occ. eigenvalues --   -0.43546  -0.41305  -0.40902  -0.39466  -0.38926
 Alpha  occ. eigenvalues --   -0.37896  -0.36923  -0.36200  -0.35703  -0.33805
 Alpha  occ. eigenvalues --   -0.33629  -0.28701  -0.26488  -0.24641  -0.23180
 Alpha  occ. eigenvalues --   -0.20489
 Alpha virt. eigenvalues --   -0.05447  -0.02066  -0.01720  -0.00166   0.00020
 Alpha virt. eigenvalues --    0.00251   0.01037   0.01688   0.02257   0.02799
 Alpha virt. eigenvalues --    0.03145   0.03748   0.04104   0.04291   0.04697

 Mulliken charges:
               1
     1  C   -0.162564
     2  C   -0.391464
     3  C    0.635538
     4  C   -0.128151
     5  H    0.119265
     6  S   -0.344123
     7  H    0.164146
     8  C    0.641298
     9  S   -0.367434
    10  C    0.401563
    11  C    0.046534
    12  C   -0.262688
    13  H    0.139577
    14  S   -0.409222
    15  C   -0.139963
    16  C   -0.255975
    17  H    0.165727
    18  H    0.134416
    19  O   -0.239944
    20  H    0.253465
 Sum of Mulliken charges =  -0.00000

 Dipole moment (field-independent basis, Debye):
    X=             -2.2110    Y=              0.7389    Z=             -0.4031  Tot=              2.3658
 Quadrupole moment (field-independent basis, Debye-Ang):
   XX=            -78.2125   YY=            -96.5002   ZZ=           -106.9977
   XY=             -1.2968   XZ=              3.8661   YZ=             -0.1006

 Normal termination of Gaussian 16 at Sun Oct 17 02:12:28 2021.
