 Gaussian 16, Revision C.01,
 Gaussian 16:  ES64L-G16RevC.01  3-Jul-2019

 -------------------------------------
 # opt=modredundant b3lyp/6-311+g(d,p)
 -------------------------------------

 --------------
 pBTTT_-145.pdb
 --------------
 Symbolic Z-matrix:
 Charge =  0 Multiplicity = 1

 SCF Done:  E(RB3LYP) =  -1654.53422292     A.U. after   16 cycles
 SCF Done:  E(RB3LYP) =  -1654.58684839     A.U. after   14 cycles
 SCF Done:  E(RB3LYP) =  -1654.62020088     A.U. after   15 cycles
 SCF Done:  E(RB3LYP) =  -1654.62915092     A.U. after   14 cycles
 SCF Done:  E(RB3LYP) =  -1654.63127678     A.U. after   14 cycles
 SCF Done:  E(RB3LYP) =  -1654.63184062     A.U. after   13 cycles
 SCF Done:  E(RB3LYP) =  -1654.63194776     A.U. after   13 cycles
 SCF Done:  E(RB3LYP) =  -1654.63212213     A.U. after   12 cycles
 SCF Done:  E(RB3LYP) =  -1654.63213538     A.U. after   11 cycles
 SCF Done:  E(RB3LYP) =  -1654.63214323     A.U. after   11 cycles
 SCF Done:  E(RB3LYP) =  -1654.63214542     A.U. after   10 cycles
 SCF Done:  E(RB3LYP) =  -1654.63214550     A.U. after    8 cycles
 Optimization completed.
    -- Stationary point found.

                         Standard orientation:
 ---------------------------------------------------------------------
 Center     Atomic      Atomic             Coordinates (Angstroms)
 Number     Number       Type             X           Y           Z
 ---------------------------------------------------------------------
      1          6           0        3.926644    0.859519    0.167311
      2          6           0        2.528351    1.126530    0.234984
      3          6           0        1.734985    0.040554   -0.071998
      4          6           0        4.194877   -0.430810   -0.186812
      5          1           0        4.691264    1.597864    0.376644
      6         16           0        2.750488   -1.336409   -0.467491
      7          1           0        5.157939   -0.900707   -0.311132
      8          6           0        0.289806   -0.042547   -0.060448
      9         16           0       -0.519560   -1.545259    0.424870
     10          6           0       -2.084914   -0.810421    0.212770
     11          6           0       -1.953704    0.516557   -0.175754
     12          6           0       -0.613962    0.956641   -0.333907
     13          1           0       -0.312535    1.949184   -0.633913
     14         16           0       -3.521624    1.253014   -0.379570
     15          6           0       -4.310088   -0.244902    0.061967
     16          6           0       -3.431436   -1.250490    0.348192
     17          1           0       -5.388425   -0.283959    0.082667
     18          1           0       -3.735892   -2.245863    0.640439
     19          8           0        1.985291    2.337572    0.564579
     20          1           0        2.673096    2.917575    0.905890
 ---------------------------------------------------------------------

 The electronic state is 1-A.
 Alpha  occ. eigenvalues --  -88.88623 -88.87997 -88.87886 -19.17095 -10.24937
 Alpha  occ. eigenvalues --  -10.22049 -10.21464 -10.21444 -10.20701 -10.20644
 Alpha  occ. eigenvalues --  -10.20599 -10.19330 -10.18958 -10.18568  -7.97224
 Alpha  occ. eigenvalues --   -7.96571  -7.96467  -5.93529  -5.93153  -5.92883
 Alpha  occ. eigenvalues --   -5.92790  -5.92790  -5.92519  -5.92430  -5.92120
 Alpha  occ. eigenvalues --   -5.91986  -1.08082  -0.91249  -0.89375  -0.84639
 Alpha  occ. eigenvalues --   -0.77073  -0.76170  -0.74367  -0.70970  -0.70089
 Alpha  occ. eigenvalues --   -0.61933  -0.61062  -0.57050  -0.56060  -0.53833
 Alpha  occ. eigenvalues --   -0.51831  -0.49307  -0.48493  -0.45400  -0.43709
 Alpha  occ. eigenvalues --   -0.43550  -0.41239  -0.40819  -0.39795  -0.39049
 Alpha  occ. eigenvalues --   -0.37817  -0.36764  -0.36163  -0.35812  -0.34007
 Alpha  occ. eigenvalues --   -0.33699  -0.28796  -0.26652  -0.24795  -0.23340
 Alpha  occ. eigenvalues --   -0.20243
 Alpha virt. eigenvalues --   -0.05597  -0.02421  -0.01419  -0.00492   0.00322
 Alpha virt. eigenvalues --    0.00504   0.01141   0.01562   0.02132   0.02691
 Alpha virt. eigenvalues --    0.03306   0.03747   0.03966   0.04680   0.04769

 Mulliken charges:
               1
     1  C   -0.188466
     2  C   -0.193254
     3  C    0.530354
     4  C   -0.150615
     5  H    0.120288
     6  S   -0.373448
     7  H    0.163472
     8  C    0.438065
     9  S   -0.527344
    10  C    0.397789
    11  C    0.166351
    12  C   -0.009176
    13  H    0.142625
    14  S   -0.405542
    15  C   -0.134672
    16  C   -0.280996
    17  H    0.166010
    18  H    0.133828
    19  O   -0.250948
    20  H    0.255681
 Sum of Mulliken charges =  -0.00000

 Dipole moment (field-independent basis, Debye):
    X=              2.0407    Y=              1.0075    Z=              0.5521  Tot=              2.3419
 Quadrupole moment (field-independent basis, Debye-Ang):
   XX=            -79.8922   YY=            -94.9806   ZZ=           -107.2789
   XY=              9.0110   XZ=              1.2749   YZ=              0.9759

 Normal termination of Gaussian 16 at Sun Oct 17 01:40:24 2021.
