 Gaussian 16, Revision C.01,
 Gaussian 16:  ES64L-G16RevC.01  3-Jul-2019

 -------------------------------------
 # opt=modredundant b3lyp/6-311+g(d,p)
 -------------------------------------

 -------------
 pBTTT_135.pdb
 -------------
 Symbolic Z-matrix:
 Charge =  0 Multiplicity = 1

 SCF Done:  E(RB3LYP) =  -1654.53300848     A.U. after   17 cycles
 SCF Done:  E(RB3LYP) =  -1654.58593320     A.U. after   14 cycles
 SCF Done:  E(RB3LYP) =  -1654.61922157     A.U. after   15 cycles
 SCF Done:  E(RB3LYP) =  -1654.62850297     A.U. after   14 cycles
 SCF Done:  E(RB3LYP) =  -1654.63076058     A.U. after   14 cycles
 SCF Done:  E(RB3LYP) =  -1654.63131392     A.U. after   13 cycles
 SCF Done:  E(RB3LYP) =  -1654.63139543     A.U. after   13 cycles
 SCF Done:  E(RB3LYP) =  -1654.63154325     A.U. after   12 cycles
 SCF Done:  E(RB3LYP) =  -1654.63155041     A.U. after   11 cycles
 SCF Done:  E(RB3LYP) =  -1654.63155511     A.U. after   11 cycles
 SCF Done:  E(RB3LYP) =  -1654.63155704     A.U. after   10 cycles
 SCF Done:  E(RB3LYP) =  -1654.63155722     A.U. after    9 cycles
 Optimization completed.
    -- Stationary point found.

                         Standard orientation:
 ---------------------------------------------------------------------
 Center     Atomic      Atomic             Coordinates (Angstroms)
 Number     Number       Type             X           Y           Z
 ---------------------------------------------------------------------
      1          6           0       -3.925594    0.840417    0.214110
      2          6           0       -2.526313    1.101692    0.297777
      3          6           0       -1.735748    0.043321   -0.095793
      4          6           0       -4.194695   -0.420092   -0.234418
      5          1           0       -4.689720    1.560640    0.480582
      6         16           0       -2.752008   -1.302630   -0.585401
      7          1           0       -5.158824   -0.878366   -0.390593
      8          6           0       -0.289007   -0.045835   -0.083295
      9         16           0        0.515067   -1.503956    0.529925
     10          6           0        2.082235   -0.789327    0.270393
     11          6           0        1.955520    0.502122   -0.225157
     12          6           0        0.616567    0.926900   -0.429015
     13          1           0        0.317788    1.892386   -0.810393
     14         16           0        3.525362    1.218352   -0.479298
     15          6           0        4.309171   -0.239802    0.085833
     16          6           0        3.427958   -1.218403    0.446992
     17          1           0        5.387338   -0.277699    0.116353
     18          1           0        3.729643   -2.187252    0.820059
     19          8           0       -1.981628    2.282667    0.718827
     20          1           0       -2.668507    2.834763    1.105174
 ---------------------------------------------------------------------

 The electronic state is 1-A.
 Alpha  occ. eigenvalues --  -88.88579 -88.88015 -88.87873 -19.16970 -10.24922
 Alpha  occ. eigenvalues --  -10.21976 -10.21433 -10.21348 -10.20711 -10.20655
 Alpha  occ. eigenvalues --  -10.20625 -10.19292 -10.18967 -10.18653  -7.97178
 Alpha  occ. eigenvalues --   -7.96590  -7.96450  -5.93481  -5.93106  -5.92901
 Alpha  occ. eigenvalues --   -5.92771  -5.92749  -5.92538  -5.92411  -5.92139
 Alpha  occ. eigenvalues --   -5.91974  -1.07985  -0.91241  -0.89333  -0.84635
 Alpha  occ. eigenvalues --   -0.77047  -0.76140  -0.74314  -0.70977  -0.70094
 Alpha  occ. eigenvalues --   -0.61881  -0.60981  -0.57068  -0.55984  -0.53859
 Alpha  occ. eigenvalues --   -0.51822  -0.49280  -0.48493  -0.45383  -0.43672
 Alpha  occ. eigenvalues --   -0.43485  -0.41256  -0.40840  -0.39723  -0.39017
 Alpha  occ. eigenvalues --   -0.37818  -0.36760  -0.36024  -0.35872  -0.33941
 Alpha  occ. eigenvalues --   -0.33687  -0.28744  -0.26469  -0.24678  -0.23321
 Alpha  occ. eigenvalues --   -0.20499
 Alpha virt. eigenvalues --   -0.05391  -0.02518  -0.01506  -0.00331   0.00269
 Alpha virt. eigenvalues --    0.00471   0.01053   0.01611   0.02110   0.02712
 Alpha virt. eigenvalues --    0.03206   0.03771   0.03873   0.04680   0.04724

 Mulliken charges:
               1
     1  C   -0.171354
     2  C   -0.293821
     3  C    0.548531
     4  C   -0.169574
     5  H    0.120516
     6  S   -0.325974
     7  H    0.163906
     8  C    0.522272
     9  S   -0.493752
    10  C    0.371800
    11  C    0.154462
    12  C   -0.041426
    13  H    0.139213
    14  S   -0.403479
    15  C   -0.131906
    16  C   -0.294931
    17  H    0.166031
    18  H    0.134183
    19  O   -0.248327
    20  H    0.253630
 Sum of Mulliken charges =  -0.00000

 Dipole moment (field-independent basis, Debye):
    X=             -2.0015    Y=              0.9569    Z=              0.6372  Tot=              2.3082
 Quadrupole moment (field-independent basis, Debye-Ang):
   XX=            -79.9404   YY=            -95.8404   ZZ=           -106.4052
   XY=             -8.6695   XZ=             -1.3983   YZ=              0.8926

 Normal termination of Gaussian 16 at Sun Oct 17 02:27:58 2021.
