 Gaussian 16, Revision C.01,
 Gaussian 16:  ES64L-G16RevC.01  3-Jul-2019

 --------------------------------------
 # opt=modredundant wb97xd/6-311+g(d,p)
 --------------------------------------

 ------------
 NDI_-105.pdb
 ------------
 Symbolic Z-matrix:
 Charge =  0 Multiplicity = 1

 SCF Done:  E(RwB97XD) =  -2358.76387584     A.U. after   20 cycles
 SCF Done:  E(RwB97XD) =  -2358.77212947     A.U. after   17 cycles
 SCF Done:  E(RwB97XD) =  -2358.77299390     A.U. after   17 cycles
 SCF Done:  E(RwB97XD) =  -2358.77319130     A.U. after   17 cycles
 SCF Done:  E(RwB97XD) =  -2358.77332804     A.U. after   15 cycles
 SCF Done:  E(RwB97XD) =  -2358.77334935     A.U. after   14 cycles
 SCF Done:  E(RwB97XD) =  -2358.77335510     A.U. after   14 cycles
 SCF Done:  E(RwB97XD) =  -2358.77335862     A.U. after   12 cycles
 SCF Done:  E(RwB97XD) =  -2358.77335911     A.U. after   13 cycles
 SCF Done:  E(RwB97XD) =  -2358.77335978     A.U. after   10 cycles
 SCF Done:  E(RwB97XD) =  -2358.77336001     A.U. after   11 cycles
 SCF Done:  E(RwB97XD) =  -2358.77336014     A.U. after   11 cycles
 Optimization completed.
    -- Stationary point found.

                         Standard orientation:
 ---------------------------------------------------------------------
 Center     Atomic      Atomic             Coordinates (Angstroms)
 Number     Number       Type             X           Y           Z
 ---------------------------------------------------------------------
      1          6           0        3.338639   -2.807811   -0.113080
      2          6           0        2.660678   -1.490389    0.012435
      3          6           0        3.402413   -0.297970   -0.101163
      4          6           0        4.793396   -0.335598   -0.331498
      5          6           0        5.498549   -1.640466   -0.460432
      6          6           0        1.312661   -1.438710    0.245733
      7          6           0        2.740194    0.940567    0.034012
      8          6           0        1.340420    0.979522    0.266087
      9          6           0        0.625361   -0.206293    0.368733
     10          6           0        0.689999    2.308508    0.481182
     11          6           0        2.862018    3.455057    0.095521
     12          6           0        3.504597    2.124915   -0.064106
     13          6           0        4.859467    2.068561   -0.295501
     14          6           0        5.510468    0.832730   -0.431489
     15          1           0        6.577608    0.781617   -0.609178
     16          1           0        5.411691    2.997682   -0.365284
     17          1           0        0.752473   -2.362845    0.323337
     18          7           0        1.499189    3.447129    0.372673
     19          7           0        4.716388   -2.791301   -0.330659
     20          8           0        2.740590   -3.856736   -0.040566
     21          8           0        6.689154   -1.705124   -0.664140
     22          8           0        3.489517    4.486010   -0.000745
     23          8           0       -0.482889    2.443857    0.731511
     24          6           0        0.819820    4.727871    0.567666
     25          1           0        0.027446    4.841229   -0.172267
     26          1           0        0.372668    4.760199    1.561115
     27          1           0        1.557335    5.517032    0.457103
     28          6           0        5.365038   -4.096557   -0.451724
     29          1           0        5.189804   -4.678110    0.453258
     30          1           0        4.946911   -4.639494   -1.299692
     31          1           0        6.428295   -3.930774   -0.596593
     32          6           0       -0.836650   -0.293327    0.574062
     33          6           0       -1.481486   -0.620991    1.727729
     34         16           0       -1.925977   -0.100434   -0.745995
     35          6           0       -2.890947   -0.680717    1.551559
     36          1           0       -0.967676   -0.784937    2.664474
     37          6           0       -3.306748   -0.426171    0.264833
     38          8           0       -3.802773   -0.970539    2.510288
     39          6           0       -4.663927   -0.424058   -0.241162
     40          6           0       -3.336582   -1.102388    3.836212
     41          6           0       -5.073644   -0.183681   -1.534150
     42         16           0       -6.051025   -0.730110    0.766466
     43          1           0       -4.217140   -1.281199    4.450830
     44          1           0       -2.651099   -1.951710    3.933757
     45          1           0       -2.837998   -0.186828    4.172832
     46          6           0       -6.483454   -0.242897   -1.715156
     47          8           0       -4.152319    0.083059   -2.491622
     48          6           0       -7.128674   -0.529907   -0.550809
     49          1           0       -6.991646   -0.082559   -2.655133
     50          6           0       -4.617821    0.289215   -3.807945
     51          1           0       -8.191840   -0.636128   -0.397625
     52          1           0       -5.281247    1.159445   -3.862358
     53          1           0       -3.734247    0.472700   -4.416921
     54          1           0       -5.141295   -0.595725   -4.186395
 ---------------------------------------------------------------------

 The electronic state is 1-A.
 Alpha  occ. eigenvalues --  -89.04275 -89.04024 -19.28453 -19.28449 -19.25278
 Alpha  occ. eigenvalues --  -19.25223 -19.24918 -19.24850 -14.50825 -14.50476
 Alpha  occ. eigenvalues --  -10.43079 -10.42852 -10.42711 -10.42699 -10.35203
 Alpha  occ. eigenvalues --  -10.34777 -10.34737 -10.34688 -10.34648 -10.34505
 Alpha  occ. eigenvalues --  -10.34162 -10.34148 -10.34143 -10.34096 -10.34096
 Alpha  occ. eigenvalues --  -10.33214 -10.33133 -10.33119 -10.32694 -10.32410
 Alpha  occ. eigenvalues --  -10.32094 -10.31945 -10.31772 -10.31103 -10.29409
 Alpha  occ. eigenvalues --  -10.29092  -8.08289  -8.08047  -6.03149  -6.02889
 Alpha  occ. eigenvalues --   -6.02748  -6.02494  -6.02346  -6.02136  -1.19740
 Alpha  occ. eigenvalues --   -1.19517  -1.18186  -1.18099  -1.17836  -1.17585
 Alpha  occ. eigenvalues --   -1.06999  -1.06600  -1.03553  -1.00149  -0.98589
 Alpha  occ. eigenvalues --   -0.97193  -0.95044  -0.90540  -0.88981  -0.87027
 Alpha  occ. eigenvalues --   -0.85648  -0.85441  -0.84172  -0.82709  -0.82244
 Alpha  occ. eigenvalues --   -0.81308  -0.79334  -0.78147  -0.77077  -0.75827
 Alpha  occ. eigenvalues --   -0.75332  -0.74459  -0.70119  -0.68637  -0.67731
 Alpha  occ. eigenvalues --   -0.66868  -0.65621  -0.64557  -0.64500  -0.63065
 Alpha  occ. eigenvalues --   -0.62887  -0.60938  -0.59961  -0.59356  -0.59099
 Alpha  occ. eigenvalues --   -0.57894  -0.57824  -0.57477  -0.56978  -0.56637
 Alpha  occ. eigenvalues --   -0.56372  -0.56166  -0.55642  -0.55392  -0.54211
 Alpha  occ. eigenvalues --   -0.53983  -0.53745  -0.53471  -0.53098  -0.52479
 Alpha  occ. eigenvalues --   -0.51720  -0.51338  -0.51213  -0.50414  -0.50053
 Alpha  occ. eigenvalues --   -0.49686  -0.49575  -0.49201  -0.48923  -0.48471
 Alpha  occ. eigenvalues --   -0.48383  -0.46947  -0.46694  -0.45886  -0.44995
 Alpha  occ. eigenvalues --   -0.44148  -0.43535  -0.42005  -0.41239  -0.41010
 Alpha  occ. eigenvalues --   -0.40793  -0.40527  -0.39800  -0.38645  -0.37612
 Alpha  occ. eigenvalues --   -0.37571  -0.37171  -0.36919  -0.35984  -0.34997
 Alpha  occ. eigenvalues --   -0.33552  -0.31406  -0.31072  -0.25285
 Alpha virt. eigenvalues --   -0.07317  -0.00052   0.00598   0.02231   0.02725
 Alpha virt. eigenvalues --    0.04967   0.05978   0.06208   0.06577   0.06880
 Alpha virt. eigenvalues --    0.07303   0.07425   0.07588   0.07616   0.08017

 Mulliken charges:
               1
     1  C    0.456060
     2  C    0.103407
     3  C    0.141316
     4  C    0.218348
     5  C    0.338285
     6  C   -0.806088
     7  C    0.152049
     8  C   -0.074462
     9  C    0.332412
    10  C   -0.125491
    11  C    0.356391
    12  C    0.214787
    13  C   -0.616349
    14  C   -0.767681
    15  H    0.189004
    16  H    0.189975
    17  H    0.197873
    18  N   -0.097434
    19  N   -0.095720
    20  O   -0.256705
    21  O   -0.268160
    22  O   -0.269079
    23  O   -0.124571
    24  C   -0.296430
    25  H    0.199304
    26  H    0.195019
    27  H    0.201911
    28  C   -0.284768
    29  H    0.192825
    30  H    0.195761
    31  H    0.200905
    32  C    0.390866
    33  C   -0.640299
    34  S   -0.207166
    35  C   -0.206124
    36  H    0.142979
    37  C    0.221929
    38  O   -0.102991
    39  C    0.947738
    40  C   -0.304018
    41  C    0.052619
    42  S   -0.281994
    43  H    0.181602
    44  H    0.157149
    45  H    0.167883
    46  C   -0.530913
    47  O   -0.127359
    48  C   -0.383083
    49  H    0.153993
    50  C   -0.299380
    51  H    0.184080
    52  H    0.155914
    53  H    0.177626
    54  H    0.156254
 Sum of Mulliken charges =  -0.00000

 Dipole moment (field-independent basis, Debye):
    X=             -1.0054    Y=              0.1245    Z=              0.0626  Tot=              1.0150
 Quadrupole moment (field-independent basis, Debye-Ang):
   XX=           -217.5628   YY=           -231.2610   ZZ=           -195.5821
   XY=             -4.5022   XZ=             10.0514   YZ=             -4.0999

 Normal termination of Gaussian 16 at Sun Nov 29 20:53:17 2020.
