 Gaussian 16, Revision C.01,
 Gaussian 16:  ES64L-G16RevC.01  3-Jul-2019

 --------------------------------------
 # opt=modredundant wb97xd/6-311+g(d,p)
 --------------------------------------

 -----------
 NDI_-20.pdb
 -----------
 Symbolic Z-matrix:
 Charge =  0 Multiplicity = 1

 SCF Done:  E(RwB97XD) =  -2358.76461779     A.U. after   20 cycles
 SCF Done:  E(RwB97XD) =  -2358.75073210     A.U. after   20 cycles
 SCF Done:  E(RwB97XD) =  -2358.76823825     A.U. after   17 cycles
 SCF Done:  E(RwB97XD) =  -2358.77048356     A.U. after   19 cycles
 SCF Done:  E(RwB97XD) =  -2358.77100324     A.U. after   18 cycles
 SCF Done:  E(RwB97XD) =  -2358.77135864     A.U. after   16 cycles
 SCF Done:  E(RwB97XD) =  -2358.77150681     A.U. after   15 cycles
 SCF Done:  E(RwB97XD) =  -2358.77159605     A.U. after   14 cycles
 SCF Done:  E(RwB97XD) =  -2358.77161668     A.U. after   14 cycles
 SCF Done:  E(RwB97XD) =  -2358.77162213     A.U. after   13 cycles
 SCF Done:  E(RwB97XD) =  -2358.77162312     A.U. after   11 cycles
 SCF Done:  E(RwB97XD) =  -2358.77162358     A.U. after   10 cycles
 Optimization completed.
    -- Stationary point found.

                         Standard orientation:
 ---------------------------------------------------------------------
 Center     Atomic      Atomic             Coordinates (Angstroms)
 Number     Number       Type             X           Y           Z
 ---------------------------------------------------------------------
      1          6           0        2.551504   -3.008279    0.253756
      2          6           0        2.243459   -1.558793    0.126016
      3          6           0        3.283616   -0.608439    0.079112
      4          6           0        4.627120   -1.019044    0.155029
      5          6           0        4.967285   -2.461903    0.291662
      6          6           0        0.945343   -1.153318    0.086980
      7          6           0        2.947503    0.754465   -0.065909
      8          6           0        1.582546    1.172880   -0.124560
      9          6           0        0.556834    0.217160   -0.016118
     10          6           0        1.333254    2.593393   -0.506263
     11          6           0        3.756568    3.121215   -0.342032
     12          6           0        4.015450    1.678165   -0.140138
     13          6           0        5.326978    1.262961   -0.049571
     14          6           0        5.642287   -0.091341    0.099979
     15          1           0        6.670158   -0.425383    0.164203
     16          1           0        6.106474    2.012803   -0.105711
     17          1           0        0.186320   -1.920698    0.178498
     18          7           0        2.428332    3.466689   -0.552917
     19          7           0        3.897317   -3.361301    0.324684
     20          8           0        1.689505   -3.856428    0.301730
     21          8           0        6.112725   -2.843646    0.367067
     22          8           0        4.643372    3.947001   -0.351707
     23          8           0        0.242490    3.045624   -0.776867
     24          6           0        2.117972    4.858466   -0.877016
     25          1           0        1.640901    4.912651   -1.855371
     26          1           0        1.431843    5.267975   -0.135221
     27          1           0        3.049877    5.415620   -0.875545
     28          6           0        4.185136   -4.788987    0.454226
     29          1           0        3.705416   -5.180983    1.351084
     30          1           0        3.793828   -5.323821   -0.411480
     31          1           0        5.262523   -4.908996    0.517044
     32          6           0       -0.876970    0.458438    0.162460
     33          6           0       -1.553499    1.560962    0.620565
     34         16           0       -2.001771   -0.795458   -0.287752
     35          6           0       -2.949807    1.387225    0.635435
     36          1           0       -1.063973    2.462351    0.945025
     37          6           0       -3.372319    0.158816    0.159675
     38          8           0       -3.863277    2.293001    1.052496
     39          6           0       -4.731365   -0.309975    0.024399
     40          6           0       -3.392550    3.583868    1.387865
     41          6           0       -5.146109   -1.543574   -0.435094
     42         16           0       -6.117986    0.662033    0.435545
     43          1           0       -4.276049    4.177290    1.616004
     44          1           0       -2.742732    3.549851    2.269178
     45          1           0       -2.851725    4.035583    0.549723
     46          6           0       -6.558221   -1.705723   -0.456525
     47          8           0       -4.227538   -2.458295   -0.815063
     48          6           0       -7.198434   -0.588602   -0.011432
     49          1           0       -7.071531   -2.598749   -0.782451
     50          6           0       -4.693376   -3.720861   -1.247214
     51          1           0       -8.263330   -0.436116    0.078800
     52          1           0       -5.319540   -3.625672   -2.140752
     53          1           0       -3.806252   -4.303350   -1.488498
     54          1           0       -5.255113   -4.226361   -0.454545
 ---------------------------------------------------------------------

 The electronic state is 1-A.
 Alpha  occ. eigenvalues --  -89.05072 -89.04891 -19.29324 -19.28983 -19.24915
 Alpha  occ. eigenvalues --  -19.24901 -19.24347 -19.24344 -14.50488 -14.50088
 Alpha  occ. eigenvalues --  -10.42691 -10.42505 -10.42477 -10.42060 -10.35752
 Alpha  occ. eigenvalues --  -10.35606 -10.35451 -10.34691 -10.34336 -10.34276
 Alpha  occ. eigenvalues --  -10.34036 -10.33725 -10.33579 -10.33553 -10.33442
 Alpha  occ. eigenvalues --  -10.33313 -10.33168 -10.32683 -10.32627 -10.32439
 Alpha  occ. eigenvalues --  -10.32363 -10.32156 -10.32083 -10.31951 -10.29925
 Alpha  occ. eigenvalues --  -10.29898  -8.09109  -8.08911  -6.03957  -6.03754
 Alpha  occ. eigenvalues --   -6.03559  -6.03357  -6.03182  -6.03000  -1.19399
 Alpha  occ. eigenvalues --   -1.19119  -1.19052  -1.18715  -1.17482  -1.17086
 Alpha  occ. eigenvalues --   -1.06648  -1.06161  -1.02957  -1.00795  -0.99143
 Alpha  occ. eigenvalues --   -0.97015  -0.94485  -0.90529  -0.88498  -0.87564
 Alpha  occ. eigenvalues --   -0.86142  -0.85150  -0.84961  -0.82892  -0.82221
 Alpha  occ. eigenvalues --   -0.81495  -0.79708  -0.78352  -0.76807  -0.75380
 Alpha  occ. eigenvalues --   -0.75133  -0.74149  -0.70300  -0.69003  -0.67959
 Alpha  occ. eigenvalues --   -0.66488  -0.65796  -0.65346  -0.64480  -0.63786
 Alpha  occ. eigenvalues --   -0.62339  -0.60596  -0.59659  -0.59168  -0.58697
 Alpha  occ. eigenvalues --   -0.58389  -0.57638  -0.57543  -0.57234  -0.57084
 Alpha  occ. eigenvalues --   -0.56703  -0.55764  -0.55378  -0.55033  -0.54486
 Alpha  occ. eigenvalues --   -0.53857  -0.53656  -0.53254  -0.53126  -0.51841
 Alpha  occ. eigenvalues --   -0.51672  -0.51096  -0.50933  -0.50619  -0.50388
 Alpha  occ. eigenvalues --   -0.50140  -0.49485  -0.49392  -0.48774  -0.48347
 Alpha  occ. eigenvalues --   -0.47869  -0.47761  -0.46899  -0.45902  -0.45404
 Alpha  occ. eigenvalues --   -0.44514  -0.44208  -0.42526  -0.41910  -0.41419
 Alpha  occ. eigenvalues --   -0.41245  -0.40013  -0.39536  -0.38491  -0.37827
 Alpha  occ. eigenvalues --   -0.37243  -0.37053  -0.36706  -0.36287  -0.34497
 Alpha  occ. eigenvalues --   -0.33117  -0.31828  -0.31707  -0.25687
 Alpha virt. eigenvalues --   -0.07176  -0.01058   0.00533   0.02539   0.03617
 Alpha virt. eigenvalues --    0.05277   0.05720   0.06099   0.06763   0.07108
 Alpha virt. eigenvalues --    0.07146   0.07426   0.07820   0.08029   0.08046

 Mulliken charges:
               1
     1  C    0.303677
     2  C   -0.031719
     3  C    0.223610
     4  C    0.222530
     5  C    0.331035
     6  C    0.021960
     7  C    0.238559
     8  C    0.432666
     9  C    0.267544
    10  C   -0.878888
    11  C    0.252662
    12  C    0.108038
    13  C   -0.551455
    14  C   -0.671370
    15  H    0.186520
    16  H    0.188373
    17  H    0.192252
    18  N   -0.043187
    19  N   -0.089184
    20  O   -0.268645
    21  O   -0.265132
    22  O   -0.275557
    23  O   -0.233927
    24  C   -0.261655
    25  H    0.198439
    26  H    0.188270
    27  H    0.201314
    28  C   -0.283133
    29  H    0.192739
    30  H    0.192940
    31  H    0.199470
    32  C   -0.057558
    33  C   -0.363876
    34  S   -0.736185
    35  C   -0.214895
    36  H    0.166627
    37  C    0.696297
    38  O   -0.106906
    39  C    0.929608
    40  C   -0.313532
    41  C    0.035881
    42  S   -0.263358
    43  H    0.182291
    44  H    0.157148
    45  H    0.179680
    46  C   -0.655362
    47  O   -0.110021
    48  C   -0.353808
    49  H    0.157522
    50  C   -0.308302
    51  H    0.188289
    52  H    0.156881
    53  H    0.185095
    54  H    0.159738
 Sum of Mulliken charges =  -0.00000

 Dipole moment (field-independent basis, Debye):
    X=             -3.4465    Y=             -0.4779    Z=              0.1218  Tot=              3.4816
 Quadrupole moment (field-independent basis, Debye-Ang):
   XX=           -214.7018   YY=           -206.6656   ZZ=           -219.5802
   XY=              4.4959   XZ=              1.5568   YZ=              9.8823

 Normal termination of Gaussian 16 at Sun Nov 29 22:05:21 2020.
