 Gaussian 16, Revision C.01,
 Gaussian 16:  ES64L-G16RevC.01  3-Jul-2019

 --------------------------------------
 # opt=modredundant wb97xd/6-311+g(d,p)
 --------------------------------------

 ------------
 NDI_-145.pdb
 ------------
 Symbolic Z-matrix:
 Charge =  0 Multiplicity = 1

 SCF Done:  E(RwB97XD) =  -2358.75000205     A.U. after   19 cycles
 SCF Done:  E(RwB97XD) =  -2358.75718914     A.U. after   20 cycles
 SCF Done:  E(RwB97XD) =  -2358.76620346     A.U. after   18 cycles
 SCF Done:  E(RwB97XD) =  -2358.76908378     A.U. after   16 cycles
 SCF Done:  E(RwB97XD) =  -2358.76986610     A.U. after   17 cycles
 SCF Done:  E(RwB97XD) =  -2358.77024161     A.U. after   17 cycles
 SCF Done:  E(RwB97XD) =  -2358.77059112     A.U. after   17 cycles
 SCF Done:  E(RwB97XD) =  -2358.77081342     A.U. after   17 cycles
 SCF Done:  E(RwB97XD) =  -2358.77126214     A.U. after   17 cycles
 SCF Done:  E(RwB97XD) =  -2358.77172012     A.U. after   16 cycles
 SCF Done:  E(RwB97XD) =  -2358.77182936     A.U. after   14 cycles
 SCF Done:  E(RwB97XD) =  -2358.77180108     A.U. after   16 cycles
 SCF Done:  E(RwB97XD) =  -2358.77185917     A.U. after   15 cycles
 SCF Done:  E(RwB97XD) =  -2358.77185157     A.U. after   13 cycles
 SCF Done:  E(RwB97XD) =  -2358.77186008     A.U. after   15 cycles
 SCF Done:  E(RwB97XD) =  -2358.77185945     A.U. after   13 cycles
 SCF Done:  E(RwB97XD) =  -2358.77186158     A.U. after   13 cycles
 SCF Done:  E(RwB97XD) =  -2358.77186167     A.U. after    9 cycles
 SCF Done:  E(RwB97XD) =  -2358.77186171     A.U. after    9 cycles
 SCF Done:  E(RwB97XD) =  -2358.77186172     A.U. after    8 cycles
 Optimization completed.
    -- Stationary point found.

                         Standard orientation:
 ---------------------------------------------------------------------
 Center     Atomic      Atomic             Coordinates (Angstroms)
 Number     Number       Type             X           Y           Z
 ---------------------------------------------------------------------
      1          6           0       -3.368260   -2.735381    0.408081
      2          6           0       -2.676059   -1.451769    0.118407
      3          6           0       -3.387969   -0.235766    0.155420
      4          6           0       -4.762805   -0.219191    0.460900
      5          6           0       -5.482721   -1.488701    0.753549
      6          6           0       -1.343313   -1.456525   -0.176521
      7          6           0       -2.706709    0.962230   -0.146252
      8          6           0       -1.316246    0.947128   -0.447991
      9          6           0       -0.619650   -0.262467   -0.447558
     10          6           0       -0.705421    2.208511   -0.960880
     11          6           0       -2.807995    3.451631   -0.505544
     12          6           0       -3.449719    2.164412   -0.140815
     13          6           0       -4.790379    2.165015    0.173882
     14          6           0       -5.454839    0.969506    0.479140
     15          1           0       -6.510996    0.962093    0.718129
     16          1           0       -5.320305    3.109614    0.169601
     17          1           0       -0.814114   -2.401012   -0.155991
     18          7           0       -1.487201    3.370949   -0.929423
     19          7           0       -4.731791   -2.666762    0.688493
     20          8           0       -2.791115   -3.799211    0.417610
     21          8           0       -6.660285   -1.506814    1.029486
     22          8           0       -3.404181    4.505164   -0.461425
     23          8           0        0.423760    2.280563   -1.384779
     24          6           0       -0.826600    4.591805   -1.389890
     25          1           0        0.049088    4.793460   -0.772647
     26          1           0       -0.500346    4.467169   -2.422254
     27          1           0       -1.539952    5.406648   -1.311668
     28          6           0       -5.397125   -3.937947    0.971214
     29          1           0       -5.277581   -4.610459    0.121887
     30          1           0       -4.947451   -4.403646    1.848547
     31          1           0       -6.448696   -3.734145    1.149168
     32          6           0        0.834110   -0.442992   -0.582624
     33          6           0        1.437540   -1.490655   -1.232251
     34         16           0        1.974436    0.441904    0.362868
     35          6           0        2.831548   -1.541453   -1.008324
     36          1           0        0.895344   -2.180826   -1.864048
     37          6           0        3.290985   -0.569464   -0.141908
     38          8           0        3.698909   -2.437425   -1.535932
     39          6           0        4.651294   -0.363823    0.304415
     40          6           0        3.199918   -3.335623   -2.504637
     41          6           0        5.105469    0.596517    1.183618
     42         16           0        5.986136   -1.345985   -0.233594
     43          1           0        4.052250   -3.923521   -2.840473
     44          1           0        2.447421   -4.005972   -2.074457
     45          1           0        2.769810   -2.798261   -3.356926
     46          6           0        6.506944    0.547151    1.419770
     47          8           0        4.231481    1.474939    1.726186
     48          6           0        7.100144   -0.456642    0.715885
     49          1           0        7.045924    1.216156    2.074957
     50          6           0        4.735822    2.419449    2.646986
     51          1           0        8.146348   -0.722419    0.707359
     52          1           0        5.474452    3.076702    2.175428
     53          1           0        3.882055    3.012167    2.970497
     54          1           0        5.184208    1.924780    3.515433
 ---------------------------------------------------------------------

 The electronic state is 1-A.
 Alpha  occ. eigenvalues --  -89.04565 -89.04503 -19.28936 -19.28833 -19.25090
 Alpha  occ. eigenvalues --  -19.25087 -19.24521 -19.24382 -14.50660 -14.50127
 Alpha  occ. eigenvalues --  -10.42875 -10.42701 -10.42356 -10.42279 -10.35297
 Alpha  occ. eigenvalues --  -10.35261 -10.35186 -10.34491 -10.34423 -10.34395
 Alpha  occ. eigenvalues --  -10.34165 -10.34053 -10.33819 -10.33802 -10.33635
 Alpha  occ. eigenvalues --  -10.33012 -10.32911 -10.32766 -10.32759 -10.32705
 Alpha  occ. eigenvalues --  -10.32293 -10.32237 -10.31857 -10.31649 -10.30005
 Alpha  occ. eigenvalues --  -10.29540  -8.08582  -8.08525  -6.03437  -6.03368
 Alpha  occ. eigenvalues --   -6.03033  -6.02971  -6.02645  -6.02614  -1.19569
 Alpha  occ. eigenvalues --   -1.19150  -1.18666  -1.18539  -1.17660  -1.17187
 Alpha  occ. eigenvalues --   -1.06813  -1.06255  -1.03204  -1.00506  -0.98887
 Alpha  occ. eigenvalues --   -0.97125  -0.94705  -0.90558  -0.88674  -0.87277
 Alpha  occ. eigenvalues --   -0.85978  -0.85247  -0.84651  -0.82740  -0.82396
 Alpha  occ. eigenvalues --   -0.81140  -0.79690  -0.78294  -0.76843  -0.75544
 Alpha  occ. eigenvalues --   -0.75115  -0.74389  -0.70096  -0.68887  -0.67907
 Alpha  occ. eigenvalues --   -0.66644  -0.65751  -0.64949  -0.64163  -0.63532
 Alpha  occ. eigenvalues --   -0.62839  -0.60693  -0.59745  -0.59107  -0.58908
 Alpha  occ. eigenvalues --   -0.58141  -0.57684  -0.57346  -0.57307  -0.56978
 Alpha  occ. eigenvalues --   -0.56500  -0.55945  -0.55382  -0.55275  -0.54235
 Alpha  occ. eigenvalues --   -0.53868  -0.53671  -0.53414  -0.53174  -0.52451
 Alpha  occ. eigenvalues --   -0.51574  -0.51157  -0.50918  -0.50398  -0.50177
 Alpha  occ. eigenvalues --   -0.50022  -0.49511  -0.49454  -0.48841  -0.48354
 Alpha  occ. eigenvalues --   -0.48057  -0.47441  -0.46627  -0.45810  -0.45325
 Alpha  occ. eigenvalues --   -0.44384  -0.43996  -0.42301  -0.41636  -0.41259
 Alpha  occ. eigenvalues --   -0.41142  -0.40175  -0.39595  -0.38371  -0.37658
 Alpha  occ. eigenvalues --   -0.37379  -0.37121  -0.36667  -0.36265  -0.34762
 Alpha  occ. eigenvalues --   -0.33201  -0.31704  -0.31270  -0.25512
 Alpha virt. eigenvalues --   -0.07212  -0.00497   0.00473   0.02301   0.03433
 Alpha virt. eigenvalues --    0.05218   0.05806   0.06107   0.06751   0.06892
 Alpha virt. eigenvalues --    0.07123   0.07542   0.07672   0.07761   0.07936

 Mulliken charges:
               1
     1  C    0.368282
     2  C    0.000538
     3  C    0.179742
     4  C    0.239344
     5  C    0.298494
     6  C   -0.244750
     7  C    0.150545
     8  C    0.009607
     9  C    0.257994
    10  C   -0.347075
    11  C    0.343506
    12  C    0.083232
    13  C   -0.543378
    14  C   -0.720945
    15  H    0.187589
    16  H    0.188826
    17  H    0.194964
    18  N   -0.045516
    19  N   -0.092798
    20  O   -0.263887
    21  O   -0.267540
    22  O   -0.275937
    23  O   -0.207985
    24  C   -0.265356
    25  H    0.197687
    26  H    0.197463
    27  H    0.200160
    28  C   -0.279024
    29  H    0.191219
    30  H    0.195105
    31  H    0.200212
    32  C    0.194386
    33  C   -0.732839
    34  S   -0.651023
    35  C    0.000754
    36  H    0.162662
    37  C    0.679735
    38  O   -0.118963
    39  C    0.936079
    40  C   -0.297799
    41  C    0.044254
    42  S   -0.277231
    43  H    0.182954
    44  H    0.160669
    45  H    0.165486
    46  C   -0.645358
    47  O   -0.116383
    48  C   -0.349134
    49  H    0.155690
    50  C   -0.305719
    51  H    0.186174
    52  H    0.157490
    53  H    0.180087
    54  H    0.157711
 Sum of Mulliken charges =  -0.00000

 Dipole moment (field-independent basis, Debye):
    X=              2.3217    Y=             -0.2539    Z=              0.1678  Tot=              2.3416
 Quadrupole moment (field-independent basis, Debye-Ang):
   XX=           -213.7204   YY=           -218.3832   ZZ=           -210.3335
   XY=              9.0371   XZ=             10.2844   YZ=             14.1260

 Normal termination of Gaussian 16 at Mon Nov 30 02:30:58 2020.
