 Gaussian 16, Revision C.01,
 Gaussian 16:  ES64L-G16RevC.01  3-Jul-2019

 --------------------------------------
 # opt=modredundant wb97xd/6-311+g(d,p)
 --------------------------------------

 -----------
 NDI_130.pdb
 -----------
 Symbolic Z-matrix:
 Charge =  0 Multiplicity = 1

 SCF Done:  E(RwB97XD) =  -2358.76176695     A.U. after   23 cycles
 SCF Done:  E(RwB97XD) =  -2358.76681288     A.U. after   20 cycles
 SCF Done:  E(RwB97XD) =  -2358.77174577     A.U. after   17 cycles
 SCF Done:  E(RwB97XD) =  -2358.77283406     A.U. after   16 cycles
 SCF Done:  E(RwB97XD) =  -2358.77291870     A.U. after   16 cycles
 SCF Done:  E(RwB97XD) =  -2358.77312903     A.U. after   15 cycles
 SCF Done:  E(RwB97XD) =  -2358.77316096     A.U. after   14 cycles
 SCF Done:  E(RwB97XD) =  -2358.77316964     A.U. after   13 cycles
 SCF Done:  E(RwB97XD) =  -2358.77317214     A.U. after   11 cycles
 SCF Done:  E(RwB97XD) =  -2358.77317287     A.U. after   11 cycles
 SCF Done:  E(RwB97XD) =  -2358.77317335     A.U. after   11 cycles
 SCF Done:  E(RwB97XD) =  -2358.77317357     A.U. after   10 cycles
 SCF Done:  E(RwB97XD) =  -2358.77317367     A.U. after   10 cycles
 SCF Done:  E(RwB97XD) =  -2358.77317372     A.U. after   10 cycles
 Optimization completed.
    -- Stationary point found.

                         Standard orientation:
 ---------------------------------------------------------------------
 Center     Atomic      Atomic             Coordinates (Angstroms)
 Number     Number       Type             X           Y           Z
 ---------------------------------------------------------------------
      1          6           0        3.395747   -2.737640    0.414617
      2          6           0        2.690321   -1.461663    0.123452
      3          6           0        3.395458   -0.241318    0.139858
      4          6           0        4.773171   -0.211523    0.435193
      5          6           0        5.501949   -1.471764    0.745938
      6          6           0        1.349101   -1.474237   -0.141354
      7          6           0        2.707132    0.951990   -0.164309
      8          6           0        1.315736    0.925055   -0.449688
      9          6           0        0.626475   -0.283657   -0.414057
     10          6           0        0.678145    2.179321   -0.950640
     11          6           0        2.775034    3.442575   -0.523636
     12          6           0        3.438281    2.161082   -0.172158
     13          6           0        4.781593    2.172729    0.127540
     14          6           0        5.456024    0.982142    0.435469
     15          1           0        6.513762    0.984148    0.667811
     16          1           0        5.305765    3.120463    0.115037
     17          1           0        0.816831   -2.417311   -0.111864
     18          7           0        1.443337    3.352518   -0.912816
     19          7           0        4.755927   -2.653796    0.709441
     20          8           0        2.833565   -3.809156    0.405409
     21          8           0        6.681517   -1.478335    1.013753
     22          8           0        3.363611    4.500557   -0.493926
     23          8           0       -0.451499    2.230686   -1.374085
     24          6           0        0.762072    4.568558   -1.355954
     25          1           0        0.430554    4.450745   -2.387556
     26          1           0       -0.112921    4.748499   -0.731146
     27          1           0        1.463156    5.393451   -1.272683
     28          6           0        5.431087   -3.917512    1.002636
     29          1           0        4.949175   -4.403110    1.851170
     30          1           0        5.364657   -4.580058    0.139392
     31          1           0        6.469658   -3.697924    1.231019
     32          6           0       -0.830047   -0.445840   -0.557622
     33          6           0       -1.461119   -1.315057   -1.402862
     34         16           0       -1.936946    0.295152    0.537003
     35          6           0       -2.863087   -1.344890   -1.195893
     36          1           0       -0.937374   -1.887628   -2.155904
     37          6           0       -3.293144   -0.534994   -0.166424
     38          8           0       -3.761630   -2.069726   -1.903433
     39          6           0       -4.648716   -0.361724    0.310314
     40          6           0       -3.258249   -2.983809   -2.854564
     41          6           0       -5.072935    0.437262    1.350152
     42         16           0       -6.015077   -1.178318   -0.397572
     43          1           0       -4.124193   -3.494040   -3.272591
     44          1           0       -2.722800   -2.465461   -3.657710
     45          1           0       -2.595194   -3.718934   -2.385094
     46          6           0       -6.476712    0.396744    1.575220
     47          8           0       -4.169729    1.164681    2.048973
     48          6           0       -7.102600   -0.437903    0.699928
     49          1           0       -6.994228    0.953925    2.342787
     50          6           0       -4.655928    1.997023    3.080500
     51          1           0       -8.157775   -0.658171    0.642936
     52          1           0       -5.148897    1.410616    3.863655
     53          1           0       -3.785805    2.498296    3.500816
     54          1           0       -5.352242    2.746740    2.689185
 ---------------------------------------------------------------------

 The electronic state is 1-A.
 Alpha  occ. eigenvalues --  -89.04454 -89.04306 -19.28747 -19.28692 -19.25175
 Alpha  occ. eigenvalues --  -19.25150 -19.24690 -19.24574 -14.50735 -14.50258
 Alpha  occ. eigenvalues --  -10.42967 -10.42772 -10.42485 -10.42463 -10.35198
 Alpha  occ. eigenvalues --  -10.35048 -10.35006 -10.34515 -10.34366 -10.34365
 Alpha  occ. eigenvalues --  -10.34319 -10.34253 -10.33970 -10.33945 -10.33839
 Alpha  occ. eigenvalues --  -10.33028 -10.32967 -10.32894 -10.32888 -10.32435
 Alpha  occ. eigenvalues --  -10.32346 -10.32055 -10.31946 -10.31423 -10.29772
 Alpha  occ. eigenvalues --  -10.29357  -8.08474  -8.08328  -6.03331  -6.03171
 Alpha  occ. eigenvalues --   -6.02931  -6.02775  -6.02532  -6.02417  -1.19644
 Alpha  occ. eigenvalues --   -1.19286  -1.18470  -1.18383  -1.17739  -1.17344
 Alpha  occ. eigenvalues --   -1.06893  -1.06396  -1.03361  -1.00365  -0.98763
 Alpha  occ. eigenvalues --   -0.97176  -0.94855  -0.90554  -0.88809  -0.87185
 Alpha  occ. eigenvalues --   -0.85840  -0.85337  -0.84462  -0.82659  -0.82412
 Alpha  occ. eigenvalues --   -0.81208  -0.79561  -0.78247  -0.76941  -0.75660
 Alpha  occ. eigenvalues --   -0.75201  -0.74427  -0.70101  -0.68798  -0.67842
 Alpha  occ. eigenvalues --   -0.66740  -0.65730  -0.64781  -0.64291  -0.63352
 Alpha  occ. eigenvalues --   -0.62879  -0.60804  -0.59835  -0.59196  -0.58977
 Alpha  occ. eigenvalues --   -0.58069  -0.57758  -0.57390  -0.57191  -0.56846
 Alpha  occ. eigenvalues --   -0.56386  -0.56103  -0.55480  -0.55347  -0.54196
 Alpha  occ. eigenvalues --   -0.53906  -0.53746  -0.53385  -0.53210  -0.52513
 Alpha  occ. eigenvalues --   -0.51644  -0.51223  -0.51033  -0.50348  -0.50141
 Alpha  occ. eigenvalues --   -0.49872  -0.49561  -0.49385  -0.48881  -0.48404
 Alpha  occ. eigenvalues --   -0.48192  -0.47278  -0.46584  -0.45866  -0.45331
 Alpha  occ. eigenvalues --   -0.44268  -0.43784  -0.42214  -0.41538  -0.41133
 Alpha  occ. eigenvalues --   -0.40915  -0.40349  -0.39686  -0.38502  -0.37618
 Alpha  occ. eigenvalues --   -0.37456  -0.37094  -0.36791  -0.36173  -0.34918
 Alpha  occ. eigenvalues --   -0.33320  -0.31607  -0.31219  -0.25431
 Alpha virt. eigenvalues --   -0.07255  -0.00228   0.00445   0.02211   0.03219
 Alpha virt. eigenvalues --    0.05144   0.05864   0.06152   0.06676   0.06879
 Alpha virt. eigenvalues --    0.07173   0.07555   0.07578   0.07712   0.07934

 Mulliken charges:
               1
     1  C    0.405909
     2  C   -0.038298
     3  C    0.167576
     4  C    0.199805
     5  C    0.328306
     6  C   -0.458679
     7  C    0.170045
     8  C   -0.044329
     9  C    0.267553
    10  C   -0.316958
    11  C    0.327914
    12  C    0.086172
    13  C   -0.512262
    14  C   -0.713484
    15  H    0.188137
    16  H    0.188956
    17  H    0.196557
    18  N   -0.046747
    19  N   -0.093093
    20  O   -0.261978
    21  O   -0.268462
    22  O   -0.274172
    23  O   -0.187421
    24  C   -0.264889
    25  H    0.197075
    26  H    0.198704
    27  H    0.201064
    28  C   -0.280361
    29  H    0.193844
    30  H    0.193164
    31  H    0.200758
    32  C    0.364938
    33  C   -0.566540
    34  S   -0.516752
    35  C   -0.044309
    36  H    0.155215
    37  C    0.466009
    38  O   -0.112511
    39  C    0.901745
    40  C   -0.295521
    41  C    0.048688
    42  S   -0.291527
    43  H    0.182484
    44  H    0.158813
    45  H    0.166053
    46  C   -0.612309
    47  O   -0.121130
    48  C   -0.362690
    49  H    0.154971
    50  C   -0.303745
    51  H    0.185009
    52  H    0.155528
    53  H    0.178890
    54  H    0.158282
 Sum of Mulliken charges =  -0.00000

 Dipole moment (field-independent basis, Debye):
    X=             -1.7550    Y=             -0.2425    Z=              0.2878  Tot=              1.7949
 Quadrupole moment (field-independent basis, Debye-Ang):
   XX=           -215.3704   YY=           -221.2473   ZZ=           -206.7649
   XY=             -7.2917   XZ=            -10.7056   YZ=             13.6357

 Normal termination of Gaussian 16 at Sun Nov 29 23:39:56 2020.
