 Gaussian 16, Revision C.01,
 Gaussian 16:  ES64L-G16RevC.01  3-Jul-2019

 --------------------------------------
 # opt=modredundant wb97xd/6-311+g(d,p)
 --------------------------------------

 ------------
 NDI_-130.pdb
 ------------
 Symbolic Z-matrix:
 Charge =  0 Multiplicity = 1

 SCF Done:  E(RwB97XD) =  -2358.75950142     A.U. after   21 cycles
 SCF Done:  E(RwB97XD) =  -2358.76398335     A.U. after   19 cycles
 SCF Done:  E(RwB97XD) =  -2358.77022008     A.U. after   17 cycles
 SCF Done:  E(RwB97XD) =  -2358.77156710     A.U. after   15 cycles
 SCF Done:  E(RwB97XD) =  -2358.77216812     A.U. after   18 cycles
 SCF Done:  E(RwB97XD) =  -2358.77251898     A.U. after   17 cycles
 SCF Done:  E(RwB97XD) =  -2358.77278574     A.U. after   15 cycles
 SCF Done:  E(RwB97XD) =  -2358.77285080     A.U. after   16 cycles
 SCF Done:  E(RwB97XD) =  -2358.77287339     A.U. after   14 cycles
 SCF Done:  E(RwB97XD) =  -2358.77287894     A.U. after   12 cycles
 SCF Done:  E(RwB97XD) =  -2358.77287923     A.U. after   13 cycles
 SCF Done:  E(RwB97XD) =  -2358.77287949     A.U. after   11 cycles
 SCF Done:  E(RwB97XD) =  -2358.77287958     A.U. after   11 cycles
 Optimization completed.
    -- Stationary point found.

                         Standard orientation:
 ---------------------------------------------------------------------
 Center     Atomic      Atomic             Coordinates (Angstroms)
 Number     Number       Type             X           Y           Z
 ---------------------------------------------------------------------
      1          6           0       -3.374158   -2.746654    0.421007
      2          6           0       -2.678303   -1.463831    0.136401
      3          6           0       -3.393434   -0.249370    0.152726
      4          6           0       -4.774663   -0.233436    0.432714
      5          6           0       -5.497293   -1.502353    0.722024
      6          6           0       -1.339355   -1.466513   -0.139299
      7          6           0       -2.713058    0.950741   -0.143089
      8          6           0       -1.319453    0.936767   -0.420731
      9          6           0       -0.624444   -0.269303   -0.404193
     10          6           0       -0.686926    2.201068   -0.903278
     11          6           0       -2.806096    3.439262   -0.512063
     12          6           0       -3.456632    2.152256   -0.157845
     13          6           0       -4.802596    2.150865    0.129976
     14          6           0       -5.468778    0.953632    0.429392
     15          1           0       -6.529278    0.944782    0.648589
     16          1           0       -5.335925    3.093368    0.110873
     17          1           0       -0.801229   -2.406495   -0.119421
     18          7           0       -1.471101    3.362257   -0.891995
     19          7           0       -4.742428   -2.678395    0.680321
     20          8           0       -2.796525   -3.809640    0.443409
     21          8           0       -6.679759   -1.520431    0.976242
     22          8           0       -3.406981    4.490551   -0.492183
     23          8           0        0.456523    2.272483   -1.284778
     24          6           0       -0.797413    4.586128   -1.325141
     25          1           0        0.057241    4.785564   -0.678468
     26          1           0       -0.437558    4.466689   -2.346927
     27          1           0       -1.513925    5.399853   -1.266633
     28          6           0       -5.409774   -3.949310    0.959979
     29          1           0       -5.276299   -4.626389    0.116384
     30          1           0       -4.972502   -4.409099    1.846615
     31          1           0       -6.464265   -3.746467    1.120944
     32          6           0        0.832579   -0.426301   -0.556235
     33          6           0        1.459691   -1.283464   -1.416757
     34         16           0        1.942749    0.286899    0.553283
     35          6           0        2.861846   -1.321865   -1.212333
     36          1           0        0.932804   -1.842538   -2.177756
     37          6           0        3.295662   -0.532762   -0.168555
     38          8           0        3.754220   -2.054362   -1.920094
     39          6           0        4.652891   -0.370068    0.307464
     40          6           0        3.275621   -2.751117   -3.051034
     41          6           0        5.080370    0.404734    1.364099
     42         16           0        6.018068   -1.163517   -0.428463
     43          1           0        4.144213   -3.224365   -3.505516
     44          1           0        2.553168   -3.523867   -2.765290
     45          1           0        2.815905   -2.066063   -3.771796
     46          6           0        6.485736    0.364758    1.579314
     47          8           0        4.179408    1.116185    2.081977
     48          6           0        7.109458   -0.445704    0.680092
     49          1           0        7.005781    0.904988    2.357226
     50          6           0        4.659980    1.868831    3.175444
     51          1           0        8.165004   -0.660926    0.611803
     52          1           0        5.366707    2.638647    2.846703
     53          1           0        3.789026    2.347179    3.620054
     54          1           0        5.138925    1.223742    3.920174
 ---------------------------------------------------------------------

 The electronic state is 1-A.
 Alpha  occ. eigenvalues --  -89.04419 -89.04285 -19.28718 -19.28672 -19.25176
 Alpha  occ. eigenvalues --  -19.25149 -19.24694 -19.24574 -14.50735 -14.50270
 Alpha  occ. eigenvalues --  -10.42968 -10.42771 -10.42500 -10.42465 -10.35217
 Alpha  occ. eigenvalues --  -10.35022 -10.34980 -10.34533 -10.34395 -10.34343
 Alpha  occ. eigenvalues --  -10.34306 -10.34265 -10.33976 -10.33950 -10.33843
 Alpha  occ. eigenvalues --  -10.33020 -10.32972 -10.32897 -10.32876 -10.32401
 Alpha  occ. eigenvalues --  -10.32347 -10.32031 -10.31949 -10.31400 -10.29759
 Alpha  occ. eigenvalues --  -10.29335  -8.08437  -8.08307  -6.03295  -6.03150
 Alpha  occ. eigenvalues --   -6.02894  -6.02754  -6.02495  -6.02396  -1.19647
 Alpha  occ. eigenvalues --   -1.19298  -1.18443  -1.18357  -1.17740  -1.17353
 Alpha  occ. eigenvalues --   -1.06896  -1.06400  -1.03362  -1.00345  -0.98746
 Alpha  occ. eigenvalues --   -0.97170  -0.94859  -0.90548  -0.88812  -0.87169
 Alpha  occ. eigenvalues --   -0.85821  -0.85340  -0.84438  -0.82651  -0.82405
 Alpha  occ. eigenvalues --   -0.81207  -0.79537  -0.78231  -0.76944  -0.75666
 Alpha  occ. eigenvalues --   -0.75204  -0.74424  -0.70093  -0.68782  -0.67834
 Alpha  occ. eigenvalues --   -0.66741  -0.65712  -0.64757  -0.64289  -0.63331
 Alpha  occ. eigenvalues --   -0.62873  -0.60804  -0.59838  -0.59208  -0.58979
 Alpha  occ. eigenvalues --   -0.58049  -0.57758  -0.57393  -0.57168  -0.56822
 Alpha  occ. eigenvalues --   -0.56371  -0.56110  -0.55478  -0.55345  -0.54198
 Alpha  occ. eigenvalues --   -0.53908  -0.53736  -0.53377  -0.53193  -0.52504
 Alpha  occ. eigenvalues --   -0.51634  -0.51226  -0.51036  -0.50344  -0.50131
 Alpha  occ. eigenvalues --   -0.49887  -0.49557  -0.49363  -0.48877  -0.48402
 Alpha  occ. eigenvalues --   -0.48187  -0.47227  -0.46650  -0.45834  -0.45217
 Alpha  occ. eigenvalues --   -0.44268  -0.43787  -0.42177  -0.41472  -0.41093
 Alpha  occ. eigenvalues --   -0.41050  -0.40343  -0.39685  -0.38485  -0.37602
 Alpha  occ. eigenvalues --   -0.37461  -0.37104  -0.36781  -0.36175  -0.34906
 Alpha  occ. eigenvalues --   -0.33330  -0.31580  -0.31186  -0.25413
 Alpha virt. eigenvalues --   -0.07261  -0.00217   0.00443   0.02208   0.03215
 Alpha virt. eigenvalues --    0.05108   0.05858   0.06140   0.06666   0.06873
 Alpha virt. eigenvalues --    0.07180   0.07520   0.07590   0.07664   0.07948

 Mulliken charges:
               1
     1  C    0.406686
     2  C   -0.026969
     3  C    0.172889
     4  C    0.264704
     5  C    0.400990
     6  C   -0.513496
     7  C    0.115659
     8  C   -0.012786
     9  C    0.203865
    10  C   -0.204650
    11  C    0.313980
    12  C    0.167340
    13  C   -0.502104
    14  C   -0.792174
    15  H    0.188679
    16  H    0.189261
    17  H    0.201518
    18  N   -0.060528
    19  N   -0.091109
    20  O   -0.261034
    21  O   -0.268308
    22  O   -0.273771
    23  O   -0.186243
    24  C   -0.267296
    25  H    0.199065
    26  H    0.196796
    27  H    0.201115
    28  C   -0.282060
    29  H    0.192177
    30  H    0.195391
    31  H    0.200754
    32  C    0.190199
    33  C   -0.494250
    34  S   -0.501031
    35  C   -0.143157
    36  H    0.156080
    37  C    0.386937
    38  O   -0.100082
    39  C    0.978827
    40  C   -0.310689
    41  C    0.029319
    42  S   -0.265434
    43  H    0.182531
    44  H    0.159749
    45  H    0.166551
    46  C   -0.556553
    47  O   -0.122434
    48  C   -0.354201
    49  H    0.154937
    50  C   -0.303487
    51  H    0.185235
    52  H    0.156800
    53  H    0.178899
    54  H    0.156912
 Sum of Mulliken charges =  -0.00000

 Dipole moment (field-independent basis, Debye):
    X=              1.7156    Y=             -0.1065    Z=              0.0563  Tot=              1.7198
 Quadrupole moment (field-independent basis, Debye-Ang):
   XX=           -215.4302   YY=           -223.3076   ZZ=           -204.5796
   XY=              7.7174   XZ=             10.1110   YZ=             13.5749

 Normal termination of Gaussian 16 at Sun Nov 29 21:10:03 2020.
