 Gaussian 16, Revision C.01,
 Gaussian 16:  ES64L-G16RevC.01  3-Jul-2019

 --------------------------------------
 # opt=modredundant wb97xd/6-311+g(d,p)
 --------------------------------------

 ------------
 NDI_-120.pdb
 ------------
 Symbolic Z-matrix:
 Charge =  0 Multiplicity = 1

 SCF Done:  E(RwB97XD) =  -2358.76239417     A.U. after   21 cycles
 SCF Done:  E(RwB97XD) =  -2358.77074911     A.U. after   19 cycles
 SCF Done:  E(RwB97XD) =  -2358.77213102     A.U. after   17 cycles
 SCF Done:  E(RwB97XD) =  -2358.77291194     A.U. after   17 cycles
 SCF Done:  E(RwB97XD) =  -2358.77309602     A.U. after   16 cycles
 SCF Done:  E(RwB97XD) =  -2358.77314499     A.U. after   15 cycles
 SCF Done:  E(RwB97XD) =  -2358.77318131     A.U. after   14 cycles
 SCF Done:  E(RwB97XD) =  -2358.77318821     A.U. after   15 cycles
 SCF Done:  E(RwB97XD) =  -2358.77318960     A.U. after   11 cycles
 SCF Done:  E(RwB97XD) =  -2358.77319020     A.U. after   11 cycles
 SCF Done:  E(RwB97XD) =  -2358.77319052     A.U. after   11 cycles
 SCF Done:  E(RwB97XD) =  -2358.77319066     A.U. after   10 cycles
 SCF Done:  E(RwB97XD) =  -2358.77319071     A.U. after   11 cycles
 SCF Done:  E(RwB97XD) =  -2358.77319073     A.U. after   11 cycles
 Optimization completed.
    -- Stationary point found.

                         Standard orientation:
 ---------------------------------------------------------------------
 Center     Atomic      Atomic             Coordinates (Angstroms)
 Number     Number       Type             X           Y           Z
 ---------------------------------------------------------------------
      1          6           0       -3.372638   -2.764742    0.357321
      2          6           0       -2.677736   -1.474107    0.107684
      3          6           0       -3.397853   -0.263165    0.139207
      4          6           0       -4.783015   -0.257618    0.402154
      5          6           0       -5.504571   -1.534675    0.656475
      6          6           0       -1.334897   -1.465808   -0.153842
      7          6           0       -2.719640    0.946579   -0.120204
      8          6           0       -1.323762    0.942776   -0.381808
      9          6           0       -0.626563   -0.260054   -0.387864
     10          6           0       -0.677842    2.225556   -0.794705
     11          6           0       -2.812089    3.444341   -0.422857
     12          6           0       -3.465769    2.146509   -0.114955
     13          6           0       -4.815253    2.133883    0.153778
     14          6           0       -5.480699    0.926946    0.416027
     15          1           0       -6.543887    0.909580    0.621471
     16          1           0       -5.352011    3.074622    0.150715
     17          1           0       -0.791254   -2.402923   -0.154728
     18          7           0       -1.466257    3.383479   -0.767093
     19          7           0       -4.744443   -2.706456    0.601723
     20          8           0       -2.791936   -3.826073    0.363235
     21          8           0       -6.690213   -1.561738    0.894682
     22          8           0       -3.418646    4.491955   -0.392767
     23          8           0        0.477477    2.311775   -1.134106
     24          6           0       -0.784400    4.623156   -1.138425
     25          1           0        0.050079    4.802386   -0.460298
     26          1           0       -0.394251    4.539483   -2.152642
     27          1           0       -1.505063    5.432707   -1.073672
     28          6           0       -5.410269   -3.985309    0.847007
     29          1           0       -5.264254   -4.644253   -0.008772
     30          1           0       -4.981732   -4.461810    1.729058
     31          1           0       -6.467342   -3.789536    0.999594
     32          6           0        0.832885   -0.397262   -0.557788
     33          6           0        1.471732   -1.079611   -1.551502
     34         16           0        1.928741    0.149417    0.654527
     35          6           0        2.877460   -1.118611   -1.355726
     36          1           0        0.953770   -1.511078   -2.396758
     37          6           0        3.298676   -0.502326   -0.198364
     38          8           0        3.782391   -1.704021   -2.175827
     39          6           0        4.654478   -0.387395    0.296565
     40          6           0        3.314095   -2.214807   -3.405869
     41          6           0        5.069382    0.216723    1.463326
     42         16           0        6.033436   -1.018929   -0.559800
     43          1           0        4.190425   -2.589571   -3.931838
     44          1           0        2.607816   -3.038204   -3.251133
     45          1           0        2.838708   -1.430031   -4.004430
     46          6           0        6.476498    0.175811    1.667497
     47          8           0        4.155321    0.781792    2.288068
     48          6           0        7.114266   -0.463762    0.648337
     49          1           0        6.987988    0.595829    2.521582
     50          6           0        4.624542    1.359330    3.487542
     51          1           0        8.174135   -0.639783    0.544339
     52          1           0        5.312595    2.187777    3.286179
     53          1           0        3.745560    1.740176    4.004743
     54          1           0        5.121531    0.613986    4.118207
 ---------------------------------------------------------------------

 The electronic state is 1-A.
 Alpha  occ. eigenvalues --  -89.04335 -89.04158 -19.28589 -19.28570 -19.25224
 Alpha  occ. eigenvalues --  -19.25185 -19.24799 -19.24702 -14.50778 -14.50364
 Alpha  occ. eigenvalues --  -10.43021 -10.42811 -10.42594 -10.42575 -10.35199
 Alpha  occ. eigenvalues --  -10.34908 -10.34816 -10.34619 -10.34538 -10.34382
 Alpha  occ. eigenvalues --  -10.34251 -10.34230 -10.34065 -10.34024 -10.33964
 Alpha  occ. eigenvalues --  -10.33089 -10.33077 -10.33005 -10.32794 -10.32377
 Alpha  occ. eigenvalues --  -10.32177 -10.32013 -10.31904 -10.31255 -10.29601
 Alpha  occ. eigenvalues --  -10.29218  -8.08353  -8.08181  -6.03212  -6.03024
 Alpha  occ. eigenvalues --   -6.02812  -6.02628  -6.02409  -6.02270  -1.19691
 Alpha  occ. eigenvalues --   -1.19397  -1.18319  -1.18237  -1.17786  -1.17459
 Alpha  occ. eigenvalues --   -1.06944  -1.06493  -1.03453  -1.00248  -0.98667
 Alpha  occ. eigenvalues --   -0.97185  -0.94947  -0.90542  -0.88893  -0.87103
 Alpha  occ. eigenvalues --   -0.85731  -0.85394  -0.84309  -0.82660  -0.82346
 Alpha  occ. eigenvalues --   -0.81251  -0.79443  -0.78190  -0.77006  -0.75742
 Alpha  occ. eigenvalues --   -0.75261  -0.74442  -0.70099  -0.68717  -0.67786
 Alpha  occ. eigenvalues --   -0.66801  -0.65678  -0.64642  -0.64388  -0.63205
 Alpha  occ. eigenvalues --   -0.62887  -0.60868  -0.59895  -0.59275  -0.59032
 Alpha  occ. eigenvalues --   -0.57964  -0.57805  -0.57435  -0.57073  -0.56728
 Alpha  occ. eigenvalues --   -0.56321  -0.56189  -0.55555  -0.55369  -0.54194
 Alpha  occ. eigenvalues --   -0.53944  -0.53746  -0.53415  -0.53152  -0.52506
 Alpha  occ. eigenvalues --   -0.51672  -0.51277  -0.51115  -0.50362  -0.50094
 Alpha  occ. eigenvalues --   -0.49772  -0.49591  -0.49287  -0.48899  -0.48436
 Alpha  occ. eigenvalues --   -0.48272  -0.47090  -0.46670  -0.45851  -0.45120
 Alpha  occ. eigenvalues --   -0.44209  -0.43667  -0.42097  -0.41365  -0.41045
 Alpha  occ. eigenvalues --   -0.40929  -0.40436  -0.39738  -0.38558  -0.37599
 Alpha  occ. eigenvalues --   -0.37510  -0.37120  -0.36842  -0.36084  -0.34974
 Alpha  occ. eigenvalues --   -0.33427  -0.31500  -0.31132  -0.25350
 Alpha virt. eigenvalues --   -0.07288  -0.00106   0.00484   0.02185   0.03029
 Alpha virt. eigenvalues --    0.05044   0.05912   0.06171   0.06623   0.06883
 Alpha virt. eigenvalues --    0.07226   0.07479   0.07587   0.07624   0.07975

 Mulliken charges:
               1
     1  C    0.435355
     2  C    0.008532
     3  C    0.150300
     4  C    0.245614
     5  C    0.365357
     6  C   -0.633589
     7  C    0.136849
     8  C   -0.055118
     9  C    0.233354
    10  C   -0.157006
    11  C    0.351251
    12  C    0.168675
    13  C   -0.527942
    14  C   -0.803433
    15  H    0.188913
    16  H    0.189605
    17  H    0.200883
    18  N   -0.075038
    19  N   -0.092035
    20  O   -0.259198
    21  O   -0.268722
    22  O   -0.272457
    23  O   -0.162257
    24  C   -0.276454
    25  H    0.199683
    26  H    0.196329
    27  H    0.201536
    28  C   -0.283278
    29  H    0.192469
    30  H    0.195550
    31  H    0.200924
    32  C    0.325205
    33  C   -0.539481
    34  S   -0.399704
    35  C   -0.153442
    36  H    0.149988
    37  C    0.332848
    38  O   -0.098744
    39  C    0.946527
    40  C   -0.310508
    41  C    0.024894
    42  S   -0.272565
    43  H    0.182085
    44  H    0.158366
    45  H    0.167266
    46  C   -0.545755
    47  O   -0.124745
    48  C   -0.365521
    49  H    0.154510
    50  C   -0.301439
    51  H    0.184614
    52  H    0.156210
    53  H    0.178182
    54  H    0.156555
 Sum of Mulliken charges =  -0.00000

 Dipole moment (field-independent basis, Debye):
    X=              1.3715    Y=              0.0009    Z=             -0.0149  Tot=              1.3716
 Quadrupole moment (field-independent basis, Debye-Ang):
   XX=           -216.4305   YY=           -226.9051   ZZ=           -200.5096
   XY=              6.6593   XZ=             10.0337   YZ=             11.3655

 Normal termination of Gaussian 16 at Sun Nov 29 22:11:11 2020.
