 Gaussian 16, Revision C.01,
 Gaussian 16:  ES64L-G16RevC.01  3-Jul-2019

 --------------------------------------
 # opt=modredundant wb97xd/6-311+g(d,p)
 --------------------------------------

 -----------
 NDI_135.pdb
 -----------
 Symbolic Z-matrix:
 Charge =  0 Multiplicity = 1

 SCF Done:  E(RwB97XD) =  -2358.75902348     A.U. after   20 cycles
 SCF Done:  E(RwB97XD) =  -2358.76119107     A.U. after   20 cycles
 SCF Done:  E(RwB97XD) =  -2358.76932833     A.U. after   18 cycles
 SCF Done:  E(RwB97XD) =  -2358.77199043     A.U. after   17 cycles
 SCF Done:  E(RwB97XD) =  -2358.77246188     A.U. after   17 cycles
 SCF Done:  E(RwB97XD) =  -2358.77284022     A.U. after   15 cycles
 SCF Done:  E(RwB97XD) =  -2358.77293921     A.U. after   15 cycles
 SCF Done:  E(RwB97XD) =  -2358.77295348     A.U. after   13 cycles
 SCF Done:  E(RwB97XD) =  -2358.77295630     A.U. after   11 cycles
 SCF Done:  E(RwB97XD) =  -2358.77295813     A.U. after   11 cycles
 SCF Done:  E(RwB97XD) =  -2358.77295829     A.U. after   11 cycles
 SCF Done:  E(RwB97XD) =  -2358.77295861     A.U. after    9 cycles
 SCF Done:  E(RwB97XD) =  -2358.77295866     A.U. after    9 cycles
 SCF Done:  E(RwB97XD) =  -2358.77295869     A.U. after   10 cycles
 Optimization completed.
    -- Stationary point found.

                         Standard orientation:
 ---------------------------------------------------------------------
 Center     Atomic      Atomic             Coordinates (Angstroms)
 Number     Number       Type             X           Y           Z
 ---------------------------------------------------------------------
      1          6           0        3.394244   -2.733628    0.413436
      2          6           0        2.689442   -1.458082    0.119020
      3          6           0        3.392742   -0.236685    0.142164
      4          6           0        4.767985   -0.205537    0.447320
      5          6           0        5.496229   -1.465305    0.761021
      6          6           0        1.350397   -1.472347   -0.153498
      7          6           0        2.704051    0.955314   -0.166128
      8          6           0        1.314120    0.927012   -0.460772
      9          6           0        0.624977   -0.283093   -0.428972
     10          6           0        0.684227    2.178310   -0.977486
     11          6           0        2.773478    3.445558   -0.526624
     12          6           0        3.434306    2.165020   -0.168406
     13          6           0        4.775421    2.178436    0.141803
     14          6           0        5.449454    0.989080    0.454017
     15          1           0        6.505456    0.992403    0.694014
     16          1           0        5.298057    3.127065    0.133461
     17          1           0        0.820932   -2.416909   -0.124173
     18          7           0        1.447527    3.352593   -0.933704
     19          7           0        4.752311   -2.648579    0.716720
     20          8           0        2.833096   -3.805761    0.400180
     21          8           0        6.673835   -1.470902    1.037320
     22          8           0        3.359461    4.504816   -0.488916
     23          8           0       -0.439037    2.227659   -1.418344
     24          6           0        0.771035    4.566168   -1.390528
     25          1           0        0.453665    4.444115   -2.426070
     26          1           0       -0.112577    4.747604   -0.778381
     27          1           0        1.470042    5.392151   -1.300833
     28          6           0        5.427260   -3.911774    1.012494
     29          1           0        4.940853   -4.399095    1.857478
     30          1           0        5.366968   -4.573283    0.148003
     31          1           0        6.464136   -3.691141    1.247476
     32          6           0       -0.830299   -0.452592   -0.565824
     33          6           0       -1.454600   -1.389637   -1.343571
     34         16           0       -1.945311    0.349220    0.476922
     35          6           0       -2.854171   -1.422991   -1.130378
     36          1           0       -0.926085   -2.009676   -2.054623
     37          6           0       -3.291282   -0.548057   -0.157693
     38          8           0       -3.745944   -2.206852   -1.781161
     39          6           0       -4.647371   -0.359213    0.310640
     40          6           0       -3.234214   -3.177659   -2.669666
     41          6           0       -5.079101    0.507009    1.292228
     42         16           0       -6.004479   -1.244402   -0.329496
     43          1           0       -4.095096   -3.725349   -3.048904
     44          1           0       -2.707146   -2.708804   -3.508000
     45          1           0       -2.561132   -3.871220   -2.153540
     46          6           0       -6.481234    0.463116    1.526220
     47          8           0       -4.183885    1.295214    1.932178
     48          6           0       -7.098058   -0.441812    0.716715
     49          1           0       -7.004074    1.067164    2.253664
     50          6           0       -4.677307    2.192335    2.904459
     51          1           0       -8.150181   -0.680435    0.680908
     52          1           0       -5.159577    1.656495    3.729346
     53          1           0       -3.812274    2.733277    3.284076
     54          1           0       -5.384787    2.903385    2.464162
 ---------------------------------------------------------------------

 The electronic state is 1-A.
 Alpha  occ. eigenvalues --  -89.04503 -89.04378 -19.28819 -19.28748 -19.25148
 Alpha  occ. eigenvalues --  -19.25130 -19.24635 -19.24509 -14.50711 -14.50210
 Alpha  occ. eigenvalues --  -10.42938 -10.42750 -10.42437 -10.42404 -10.35213
 Alpha  occ. eigenvalues --  -10.35107 -10.35097 -10.34469 -10.34416 -10.34358
 Alpha  occ. eigenvalues --  -10.34287 -10.34187 -10.33920 -10.33901 -10.33773
 Alpha  occ. eigenvalues --  -10.32996 -10.32932 -10.32902 -10.32834 -10.32556
 Alpha  occ. eigenvalues --  -10.32329 -10.32123 -10.31917 -10.31503 -10.29855
 Alpha  occ. eigenvalues --  -10.29424  -8.08524  -8.08400  -6.03380  -6.03243
 Alpha  occ. eigenvalues --   -6.02979  -6.02847  -6.02583  -6.02489  -1.19619
 Alpha  occ. eigenvalues --   -1.19236  -1.18542  -1.18446  -1.17713  -1.17289
 Alpha  occ. eigenvalues --   -1.06866  -1.06348  -1.03311  -1.00422  -0.98811
 Alpha  occ. eigenvalues --   -0.97165  -0.94807  -0.90558  -0.88765  -0.87222
 Alpha  occ. eigenvalues --   -0.85892  -0.85307  -0.84534  -0.82680  -0.82420
 Alpha  occ. eigenvalues --   -0.81187  -0.79612  -0.78270  -0.76908  -0.75621
 Alpha  occ. eigenvalues --   -0.75171  -0.74415  -0.70101  -0.68834  -0.67867
 Alpha  occ. eigenvalues --   -0.66709  -0.65746  -0.64846  -0.64245  -0.63420
 Alpha  occ. eigenvalues --   -0.62870  -0.60769  -0.59805  -0.59163  -0.58951
 Alpha  occ. eigenvalues --   -0.58108  -0.57734  -0.57369  -0.57244  -0.56897
 Alpha  occ. eigenvalues --   -0.56429  -0.56049  -0.55444  -0.55330  -0.54205
 Alpha  occ. eigenvalues --   -0.53886  -0.53736  -0.53382  -0.53219  -0.52504
 Alpha  occ. eigenvalues --   -0.51623  -0.51202  -0.50992  -0.50352  -0.50139
 Alpha  occ. eigenvalues --   -0.49947  -0.49541  -0.49423  -0.48871  -0.48389
 Alpha  occ. eigenvalues --   -0.48149  -0.47343  -0.46585  -0.45862  -0.45382
 Alpha  occ. eigenvalues --   -0.44304  -0.43850  -0.42256  -0.41599  -0.41169
 Alpha  occ. eigenvalues --   -0.40967  -0.40294  -0.39659  -0.38466  -0.37626
 Alpha  occ. eigenvalues --   -0.37430  -0.37098  -0.36757  -0.36208  -0.34875
 Alpha  occ. eigenvalues --   -0.33274  -0.31650  -0.31250  -0.25464
 Alpha virt. eigenvalues --   -0.07240  -0.00312   0.00446   0.02235   0.03301
 Alpha virt. eigenvalues --    0.05170   0.05841   0.06129   0.06700   0.06871
 Alpha virt. eigenvalues --    0.07151   0.07559   0.07609   0.07724   0.07920

 Mulliken charges:
               1
     1  C    0.397253
     2  C   -0.037754
     3  C    0.166491
     4  C    0.214558
     5  C    0.320284
     6  C   -0.407687
     7  C    0.162607
     8  C   -0.016279
     9  C    0.276575
    10  C   -0.346807
    11  C    0.327033
    12  C    0.083288
    13  C   -0.519833
    14  C   -0.702515
    15  H    0.187934
    16  H    0.188835
    17  H    0.195784
    18  N   -0.040396
    19  N   -0.093290
    20  O   -0.262920
    21  O   -0.268110
    22  O   -0.274754
    23  O   -0.195954
    24  C   -0.263909
    25  H    0.197365
    26  H    0.198234
    27  H    0.200767
    28  C   -0.279542
    29  H    0.193764
    30  H    0.192974
    31  H    0.200618
    32  C    0.316604
    33  C   -0.604770
    34  S   -0.564395
    35  C   -0.016972
    36  H    0.158012
    37  C    0.519483
    38  O   -0.114312
    39  C    0.912651
    40  C   -0.295758
    41  C    0.047158
    42  S   -0.287793
    43  H    0.182713
    44  H    0.158567
    45  H    0.166876
    46  C   -0.624972
    47  O   -0.119650
    48  C   -0.357566
    49  H    0.155222
    50  C   -0.304655
    51  H    0.185390
    52  H    0.155706
    53  H    0.179288
    54  H    0.158559
 Sum of Mulliken charges =  -0.00000

 Dipole moment (field-independent basis, Debye):
    X=             -1.9465    Y=             -0.2805    Z=              0.3348  Tot=              1.9949
 Quadrupole moment (field-independent basis, Debye-Ang):
   XX=           -214.8259   YY=           -219.5667   ZZ=           -208.7252
   XY=             -7.7854   XZ=            -10.8210   YZ=             13.7840

 Normal termination of Gaussian 16 at Mon Nov 30 06:26:03 2020.
