 Gaussian 16, Revision C.01,
 Gaussian 16:  ES64L-G16RevC.01  3-Jul-2019

 --------------------------------------
 # opt=modredundant wb97xd/6-311+g(d,p)
 --------------------------------------

 -----------
 NDI_175.pdb
 -----------
 Symbolic Z-matrix:
 Charge =  0 Multiplicity = 1

 SCF Done:  E(RwB97XD) =  -2358.72080467     A.U. after   19 cycles
 SCF Done:  E(RwB97XD) =  -2358.75249198     A.U. after   20 cycles
 SCF Done:  E(RwB97XD) =  -2358.76324173     A.U. after   18 cycles
 SCF Done:  E(RwB97XD) =  -2358.76560211     A.U. after   15 cycles
 SCF Done:  E(RwB97XD) =  -2358.76649095     A.U. after   17 cycles
 SCF Done:  E(RwB97XD) =  -2358.76682433     A.U. after   17 cycles
 SCF Done:  E(RwB97XD) =  -2358.76673163     A.U. after   18 cycles
 SCF Done:  E(RwB97XD) =  -2358.76726831     A.U. after   15 cycles
 SCF Done:  E(RwB97XD) =  -2358.76751247     A.U. after   17 cycles
 SCF Done:  E(RwB97XD) =  -2358.76769035     A.U. after   16 cycles
 SCF Done:  E(RwB97XD) =  -2358.76776247     A.U. after   15 cycles
 SCF Done:  E(RwB97XD) =  -2358.76778813     A.U. after   14 cycles
 SCF Done:  E(RwB97XD) =  -2358.76779891     A.U. after   14 cycles
 SCF Done:  E(RwB97XD) =  -2358.76780115     A.U. after   13 cycles
 SCF Done:  E(RwB97XD) =  -2358.76780222     A.U. after   12 cycles
 SCF Done:  E(RwB97XD) =  -2358.76780214     A.U. after   13 cycles
 SCF Done:  E(RwB97XD) =  -2358.76780266     A.U. after   13 cycles
 SCF Done:  E(RwB97XD) =  -2358.76780269     A.U. after   10 cycles
 Optimization completed.
    -- Stationary point found.

                         Standard orientation:
 ---------------------------------------------------------------------
 Center     Atomic      Atomic             Coordinates (Angstroms)
 Number     Number       Type             X           Y           Z
 ---------------------------------------------------------------------
      1          6           0       -3.476896   -2.681652   -0.111075
      2          6           0       -2.746018   -1.399007    0.065714
      3          6           0       -3.414143   -0.169496   -0.098693
      4          6           0       -4.779540   -0.135562   -0.431972
      5          6           0       -5.537740   -1.402220   -0.619319
      6          6           0       -1.417088   -1.425472    0.354391
      7          6           0       -2.682505    1.019202    0.095666
      8          6           0       -1.291623    0.980540    0.415600
      9          6           0       -0.621107   -0.250469    0.525063
     10          6           0       -0.664621    2.267010    0.814049
     11          6           0       -2.701222    3.534907    0.183680
     12          6           0       -3.380814    2.239962   -0.049484
     13          6           0       -4.717346    2.259730   -0.388625
     14          6           0       -5.426791    1.070023   -0.583855
     15          1           0       -6.477785    1.079118   -0.843904
     16          1           0       -5.204987    3.221183   -0.492925
     17          1           0       -0.959046   -2.401584    0.406451
     18          7           0       -1.392184    3.449307    0.637876
     19          7           0       -4.827601   -2.594804   -0.438696
     20          8           0       -2.941864   -3.760969    0.014710
     21          8           0       -6.711546   -1.408297   -0.911050
     22          8           0       -3.254173    4.600122    0.016436
     23          8           0        0.450788    2.348154    1.279281
     24          6           0       -0.694740    4.685030    0.990700
     25          1           0       -0.403993    4.658323    2.040725
     26          1           0        0.206580    4.785829    0.385740
     27          1           0       -1.371425    5.513134    0.802414
     28          6           0       -5.533453   -3.863521   -0.612359
     29          1           0       -5.052313   -4.447518   -1.396974
     30          1           0       -5.499966   -4.434137    0.316028
     31          1           0       -6.561556   -3.641154   -0.881741
     32          6           0        0.825024   -0.514061    0.625593
     33          6           0        1.359406   -1.776290    0.830314
     34         16           0        2.073382    0.563094    0.085731
     35          6           0        2.734430   -1.859830    0.568140
     36          1           0        0.787780   -2.619344    1.187438
     37          6           0        3.280305   -0.674070    0.109086
     38          8           0        3.523925   -2.947434    0.731752
     39          6           0        4.658774   -0.429367   -0.246051
     40          6           0        2.895276   -4.163544    1.079506
     41          6           0        5.205904    0.750365   -0.710174
     42         16           0        5.898232   -1.651161   -0.142684
     43          1           0        3.683986   -4.912684    1.116854
     44          1           0        2.416077   -4.095159    2.062482
     45          1           0        2.152835   -4.454052    0.327983
     46          6           0        6.600375    0.673990   -0.975954
     47          8           0        4.418956    1.835211   -0.870786
     48          6           0        7.094625   -0.567743   -0.712119
     49          1           0        7.203795    1.491511   -1.342977
     50          6           0        5.027214    3.032193   -1.310900
     51          1           0        8.114079   -0.904332   -0.825685
     52          1           0        5.467840    2.908907   -2.306083
     53          1           0        4.232552    3.774395   -1.357376
     54          1           0        5.795433    3.366920   -0.605762
 ---------------------------------------------------------------------

 The electronic state is 1-A.
 Alpha  occ. eigenvalues --  -89.04892 -89.04761 -19.29292 -19.29086 -19.24990
 Alpha  occ. eigenvalues --  -19.24945 -19.24256 -19.24234 -14.50536 -14.49959
 Alpha  occ. eigenvalues --  -10.42714 -10.42580 -10.42164 -10.41961 -10.35790
 Alpha  occ. eigenvalues --  -10.35720 -10.35379 -10.34719 -10.34596 -10.34145
 Alpha  occ. eigenvalues --  -10.33802 -10.33606 -10.33519 -10.33474 -10.33447
 Alpha  occ. eigenvalues --  -10.33257 -10.33243 -10.32696 -10.32592 -10.32379
 Alpha  occ. eigenvalues --  -10.32322 -10.32203 -10.32125 -10.31784 -10.30397
 Alpha  occ. eigenvalues --  -10.29905  -8.08913  -8.08740  -6.03755  -6.03591
 Alpha  occ. eigenvalues --   -6.03359  -6.03170  -6.03003  -6.02818  -1.19435
 Alpha  occ. eigenvalues --   -1.19070  -1.19013  -1.18812  -1.17524  -1.16985
 Alpha  occ. eigenvalues --   -1.06675  -1.06098  -1.02910  -1.00717  -0.99110
 Alpha  occ. eigenvalues --   -0.96993  -0.94432  -0.90557  -0.88433  -0.87449
 Alpha  occ. eigenvalues --   -0.86229  -0.85130  -0.84977  -0.82968  -0.82299
 Alpha  occ. eigenvalues --   -0.81076  -0.79946  -0.78392  -0.76699  -0.75375
 Alpha  occ. eigenvalues --   -0.74992  -0.74354  -0.70130  -0.69087  -0.68033
 Alpha  occ. eigenvalues --   -0.66524  -0.65809  -0.65263  -0.64210  -0.63737
 Alpha  occ. eigenvalues --   -0.62768  -0.60508  -0.59598  -0.59033  -0.58895
 Alpha  occ. eigenvalues --   -0.58103  -0.57630  -0.57586  -0.57261  -0.57184
 Alpha  occ. eigenvalues --   -0.56703  -0.55867  -0.55337  -0.55094  -0.54253
 Alpha  occ. eigenvalues --   -0.53965  -0.53637  -0.53411  -0.53052  -0.52263
 Alpha  occ. eigenvalues --   -0.51519  -0.51230  -0.50823  -0.50474  -0.50376
 Alpha  occ. eigenvalues --   -0.50040  -0.49594  -0.49348  -0.48842  -0.48358
 Alpha  occ. eigenvalues --   -0.47896  -0.47746  -0.46719  -0.45685  -0.45301
 Alpha  occ. eigenvalues --   -0.44634  -0.44188  -0.42521  -0.41971  -0.41402
 Alpha  occ. eigenvalues --   -0.41023  -0.39895  -0.39407  -0.38229  -0.37958
 Alpha  occ. eigenvalues --   -0.37239  -0.37150  -0.36452  -0.36277  -0.34497
 Alpha  occ. eigenvalues --   -0.33067  -0.31866  -0.31487  -0.25687
 Alpha virt. eigenvalues --   -0.07086  -0.01164   0.00634   0.02558   0.03588
 Alpha virt. eigenvalues --    0.05233   0.05725   0.06016   0.06737   0.07051
 Alpha virt. eigenvalues --    0.07119   0.07359   0.07781   0.07903   0.08222

 Mulliken charges:
               1
     1  C    0.375902
     2  C    0.004747
     3  C    0.240601
     4  C    0.224979
     5  C    0.331690
     6  C    0.140177
     7  C    0.061636
     8  C    0.215218
     9  C    0.354357
    10  C   -0.552296
    11  C    0.315512
    12  C    0.044199
    13  C   -0.536548
    14  C   -0.701187
    15  H    0.186199
    16  H    0.188429
    17  H    0.173339
    18  N   -0.035182
    19  N   -0.095410
    20  O   -0.270514
    21  O   -0.263573
    22  O   -0.278175
    23  O   -0.212414
    24  C   -0.267290
    25  H    0.199577
    26  H    0.193847
    27  H    0.200597
    28  C   -0.279387
    29  H    0.192035
    30  H    0.192753
    31  H    0.199883
    32  C   -0.062501
    33  C   -0.406346
    34  S   -0.770209
    35  C   -0.366924
    36  H    0.148171
    37  C    0.672173
    38  O   -0.113382
    39  C    0.913053
    40  C   -0.296968
    41  C   -0.030584
    42  S   -0.267604
    43  H    0.184762
    44  H    0.160247
    45  H    0.165315
    46  C   -0.551693
    47  O   -0.097233
    48  C   -0.359392
    49  H    0.156903
    50  C   -0.310064
    51  H    0.188020
    52  H    0.156837
    53  H    0.182530
    54  H    0.161184
 Sum of Mulliken charges =  -0.00000

 Dipole moment (field-independent basis, Debye):
    X=              3.4658    Y=             -0.5069    Z=             -0.5534  Tot=              3.5461
 Quadrupole moment (field-independent basis, Debye-Ang):
   XX=           -210.0247   YY=           -210.3067   ZZ=           -220.7695
   XY=             11.5906   XZ=            -10.0902   YZ=             -6.7374

 Normal termination of Gaussian 16 at Mon Nov 30 05:32:19 2020.
