 Gaussian 16, Revision C.01,
 Gaussian 16:  ES64L-G16RevC.01  3-Jul-2019

 --------------------------------------
 # opt=modredundant wb97xd/6-311+g(d,p)
 --------------------------------------

 -----------
 NDI_110.pdb
 -----------
 Symbolic Z-matrix:
 Charge =  0 Multiplicity = 1

 SCF Done:  E(RwB97XD) =  -2358.76550239     A.U. after   20 cycles
 SCF Done:  E(RwB97XD) =  -2358.77228224     A.U. after   17 cycles
 SCF Done:  E(RwB97XD) =  -2358.77285378     A.U. after   18 cycles
 SCF Done:  E(RwB97XD) =  -2358.77331543     A.U. after   15 cycles
 SCF Done:  E(RwB97XD) =  -2358.77340998     A.U. after   14 cycles
 SCF Done:  E(RwB97XD) =  -2358.77343963     A.U. after   14 cycles
 SCF Done:  E(RwB97XD) =  -2358.77344162     A.U. after   13 cycles
 SCF Done:  E(RwB97XD) =  -2358.77344687     A.U. after   13 cycles
 SCF Done:  E(RwB97XD) =  -2358.77344806     A.U. after   11 cycles
 SCF Done:  E(RwB97XD) =  -2358.77344890     A.U. after   11 cycles
 SCF Done:  E(RwB97XD) =  -2358.77344921     A.U. after   11 cycles
 SCF Done:  E(RwB97XD) =  -2358.77344928     A.U. after    9 cycles
 Optimization completed.
    -- Stationary point found.

                         Standard orientation:
 ---------------------------------------------------------------------
 Center     Atomic      Atomic             Coordinates (Angstroms)
 Number     Number       Type             X           Y           Z
 ---------------------------------------------------------------------
      1          6           0        3.370061   -2.782449    0.253311
      2          6           0        2.677728   -1.482480    0.049619
      3          6           0        3.403295   -0.276145    0.109381
      4          6           0        4.789611   -0.282754    0.367904
      5          6           0        5.506111   -1.568725    0.589839
      6          6           0        1.329238   -1.459677   -0.184461
      7          6           0        2.728305    0.944190   -0.104466
      8          6           0        1.331388    0.952695   -0.356142
      9          6           0        0.627628   -0.244512   -0.380383
     10          6           0        0.676797    2.254794   -0.688676
     11          6           0        2.818289    3.453541   -0.293461
     12          6           0        3.475774    2.142293   -0.056354
     13          6           0        4.826822    2.116603    0.202007
     14          6           0        5.490366    0.898821    0.416963
     15          1           0        6.554027    0.871893    0.619076
     16          1           0        5.365646    3.055626    0.233714
     17          1           0        0.779661   -2.393119   -0.206121
     18          7           0        1.463545    3.411116   -0.605114
     19          7           0        4.738929   -2.734753    0.516805
     20          8           0        2.791526   -3.843440    0.198049
     21          8           0        6.693051   -1.606756    0.819935
     22          8           0        3.428466    4.497455   -0.230863
     23          8           0       -0.480270    2.354314   -1.017402
     24          6           0        0.775565    4.667793   -0.900591
     25          1           0        0.375576    4.639898   -1.914143
     26          1           0       -0.053354    4.805126   -0.206166
     27          1           0        1.494331    5.474966   -0.797525
     28          6           0        5.400582   -4.022667    0.723089
     29          1           0        4.931880   -4.546600    1.556034
     30          1           0        5.301724   -4.635962   -0.172838
     31          1           0        6.447984   -3.831431    0.936175
     32          6           0       -0.833705   -0.360820   -0.565107
     33          6           0       -1.481586   -0.853769   -1.657393
     34         16           0       -1.920636    0.019322    0.716054
     35          6           0       -2.889721   -0.891830   -1.469849
     36          1           0       -0.970374   -1.148453   -2.563102
     37          6           0       -3.302432   -0.457579   -0.230604
     38          8           0       -3.805454   -1.296680   -2.381803
     39          6           0       -4.657220   -0.394444    0.277307
     40          6           0       -3.325016   -1.856408   -3.585442
     41          6           0       -5.063660    0.028551    1.523781
     42         16           0       -6.044941   -0.866140   -0.663456
     43          1           0       -4.204372   -2.159370   -4.151150
     44          1           0       -2.758602   -1.120418   -4.166777
     45          1           0       -2.697853   -2.733681   -3.391780
     46          6           0       -6.471256   -0.023882    1.722337
     47          8           0       -4.140823    0.440399    2.426587
     48          6           0       -7.118229   -0.489112    0.618105
     49          1           0       -6.976696    0.266601    2.632102
     50          6           0       -4.608114    0.899770    3.676665
     51          1           0       -8.180561   -0.630955    0.489989
     52          1           0       -5.137213    0.107572    4.217850
     53          1           0       -3.724794    1.192410    4.241752
     54          1           0       -5.266783    1.767323    3.559200
 ---------------------------------------------------------------------

 The electronic state is 1-A.
 Alpha  occ. eigenvalues --  -89.04316 -89.04076 -19.28511 -19.28499 -19.25261
 Alpha  occ. eigenvalues --  -19.25214 -19.24873 -19.24796 -14.50811 -14.50428
 Alpha  occ. eigenvalues --  -10.43061 -10.42842 -10.42660 -10.42655 -10.35189
 Alpha  occ. eigenvalues --  -10.34833 -10.34713 -10.34684 -10.34635 -10.34461
 Alpha  occ. eigenvalues --  -10.34197 -10.34178 -10.34128 -10.34071 -10.34052
 Alpha  occ. eigenvalues --  -10.33174 -10.33120 -10.33080 -10.32728 -10.32402
 Alpha  occ. eigenvalues --  -10.32057 -10.32032 -10.31827 -10.31161 -10.29470
 Alpha  occ. eigenvalues --  -10.29143  -8.08332  -8.08099  -6.03191  -6.02942
 Alpha  occ. eigenvalues --   -6.02791  -6.02546  -6.02389  -6.02188  -1.19724
 Alpha  occ. eigenvalues --   -1.19466  -1.18241  -1.18158  -1.17820  -1.17534
 Alpha  occ. eigenvalues --   -1.06981  -1.06558  -1.03520  -1.00190  -0.98621
 Alpha  occ. eigenvalues --   -0.97196  -0.95010  -0.90541  -0.88950  -0.87059
 Alpha  occ. eigenvalues --   -0.85680  -0.85427  -0.84229  -0.82688  -0.82286
 Alpha  occ. eigenvalues --   -0.81287  -0.79383  -0.78168  -0.77050  -0.75795
 Alpha  occ. eigenvalues --   -0.75305  -0.74457  -0.70113  -0.68668  -0.67753
 Alpha  occ. eigenvalues --   -0.66845  -0.65653  -0.64572  -0.64485  -0.63117
 Alpha  occ. eigenvalues --   -0.62893  -0.60916  -0.59936  -0.59319  -0.59074
 Alpha  occ. eigenvalues --   -0.57911  -0.57833  -0.57459  -0.57022  -0.56679
 Alpha  occ. eigenvalues --   -0.56336  -0.56196  -0.55615  -0.55386  -0.54198
 Alpha  occ. eigenvalues --   -0.53968  -0.53746  -0.53464  -0.53123  -0.52497
 Alpha  occ. eigenvalues --   -0.51713  -0.51309  -0.51180  -0.50392  -0.50090
 Alpha  occ. eigenvalues --   -0.49664  -0.49610  -0.49235  -0.48913  -0.48454
 Alpha  occ. eigenvalues --   -0.48351  -0.47061  -0.46605  -0.45882  -0.45102
 Alpha  occ. eigenvalues --   -0.44163  -0.43580  -0.42059  -0.41325  -0.41029
 Alpha  occ. eigenvalues --   -0.40734  -0.40518  -0.39779  -0.38632  -0.37625
 Alpha  occ. eigenvalues --   -0.37543  -0.37134  -0.36898  -0.36008  -0.35009
 Alpha  occ. eigenvalues --   -0.33504  -0.31452  -0.31111  -0.25317
 Alpha virt. eigenvalues --   -0.07301  -0.00057   0.00558   0.02202   0.02833
 Alpha virt. eigenvalues --    0.05032   0.05956   0.06230   0.06600   0.06901
 Alpha virt. eigenvalues --    0.07275   0.07442   0.07584   0.07693   0.07996

 Mulliken charges:
               1
     1  C    0.449367
     2  C    0.047048
     3  C    0.183230
     4  C    0.176201
     5  C    0.359958
     6  C   -0.634039
     7  C    0.169414
     8  C   -0.119460
     9  C    0.233418
    10  C   -0.227307
    11  C    0.325939
    12  C    0.147377
    13  C   -0.561392
    14  C   -0.736281
    15  H    0.188772
    16  H    0.189531
    17  H    0.197467
    18  N   -0.082197
    19  N   -0.094735
    20  O   -0.258697
    21  O   -0.268787
    22  O   -0.270901
    23  O   -0.141491
    24  C   -0.283780
    25  H    0.195823
    26  H    0.199448
    27  H    0.201759
    28  C   -0.283845
    29  H    0.194020
    30  H    0.194030
    31  H    0.200906
    32  C    0.366211
    33  C   -0.427778
    34  S   -0.303537
    35  C   -0.110013
    36  H    0.144185
    37  C    0.284004
    38  O   -0.111793
    39  C    0.855364
    40  C   -0.291645
    41  C    0.054871
    42  S   -0.303434
    43  H    0.181678
    44  H    0.159352
    45  H    0.163545
    46  C   -0.571056
    47  O   -0.125370
    48  C   -0.383241
    49  H    0.154102
    50  C   -0.300351
    51  H    0.183824
    52  H    0.154927
    53  H    0.177715
    54  H    0.157641
 Sum of Mulliken charges =  -0.00000

 Dipole moment (field-independent basis, Debye):
    X=             -1.1433    Y=             -0.0948    Z=              0.1121  Tot=              1.1527
 Quadrupole moment (field-independent basis, Debye-Ang):
   XX=           -217.2267   YY=           -228.5315   ZZ=           -198.5127
   XY=             -4.8226   XZ=            -10.3546   YZ=              8.8621

 Normal termination of Gaussian 16 at Sun Nov 29 21:38:56 2020.
