 Gaussian 16, Revision C.01,
 Gaussian 16:  ES64L-G16RevC.01  3-Jul-2019

 --------------------------------------
 # opt=modredundant wb97xd/6-311+g(d,p)
 --------------------------------------

 ----------
 NDI_45.pdb
 ----------
 Symbolic Z-matrix:
 Charge =  0 Multiplicity = 1

 SCF Done:  E(RwB97XD) =  -2358.76635782     A.U. after   19 cycles
 SCF Done:  E(RwB97XD) =  -2358.77105923     A.U. after   17 cycles
 SCF Done:  E(RwB97XD) =  -2358.77230211     A.U. after   16 cycles
 SCF Done:  E(RwB97XD) =  -2358.77328179     A.U. after   15 cycles
 SCF Done:  E(RwB97XD) =  -2358.77356517     A.U. after   16 cycles
 SCF Done:  E(RwB97XD) =  -2358.77364370     A.U. after   14 cycles
 SCF Done:  E(RwB97XD) =  -2358.77369673     A.U. after   14 cycles
 SCF Done:  E(RwB97XD) =  -2358.77370676     A.U. after   14 cycles
 SCF Done:  E(RwB97XD) =  -2358.77371208     A.U. after   13 cycles
 SCF Done:  E(RwB97XD) =  -2358.77371267     A.U. after   11 cycles
 SCF Done:  E(RwB97XD) =  -2358.77371298     A.U. after   11 cycles
 SCF Done:  E(RwB97XD) =  -2358.77371317     A.U. after   11 cycles
 SCF Done:  E(RwB97XD) =  -2358.77371324     A.U. after   11 cycles
 Optimization completed.
    -- Stationary point found.

                         Standard orientation:
 ---------------------------------------------------------------------
 Center     Atomic      Atomic             Coordinates (Angstroms)
 Number     Number       Type             X           Y           Z
 ---------------------------------------------------------------------
      1          6           0       -2.681931   -2.945964    0.531490
      2          6           0       -2.309825   -1.523645    0.305727
      3          6           0       -3.307272   -0.550389    0.095330
      4          6           0       -4.667982   -0.913816    0.087331
      5          6           0       -5.070857   -2.330623    0.304265
      6          6           0       -0.994323   -1.164983    0.310433
      7          6           0       -2.918223    0.788426   -0.126033
      8          6           0       -1.541105    1.157059   -0.113207
      9          6           0       -0.567207    0.180866    0.124611
     10          6           0       -1.198758    2.563808   -0.481654
     11          6           0       -3.609809    3.151023   -0.652174
     12          6           0       -3.940451    1.735464   -0.364679
     13          6           0       -5.267315    1.365363   -0.359789
     14          6           0       -5.639469    0.035073   -0.131000
     15          1           0       -6.680132   -0.264106   -0.132347
     16          1           0       -6.014154    2.127358   -0.545754
     17          1           0       -0.255851   -1.933628    0.503682
     18          7           0       -2.255683    3.451586   -0.726959
     19          7           0       -4.040643   -3.254989    0.497730
     20          8           0       -1.860563   -3.808156    0.745382
     21          8           0       -6.231938   -2.670185    0.310352
     22          8           0       -4.463487    3.992333   -0.828744
     23          8           0       -0.068922    2.983328   -0.583443
     24          6           0       -1.867635    4.819263   -1.070381
     25          1           0       -1.283836    5.254702   -0.259122
     26          1           0       -1.254644    4.812686   -1.971418
     27          1           0       -2.775838    5.391993   -1.231630
     28          6           0       -4.389277   -4.657931    0.717827
     29          1           0       -3.900277   -5.278628   -0.032874
     30          1           0       -4.048490   -4.973326    1.704323
     31          1           0       -5.468527   -4.751119    0.643376
     32          6           0        0.877823    0.401108    0.264256
     33          6           0        1.546550    1.357209    0.977027
     34         16           0        1.980535   -0.733975   -0.445674
     35          6           0        2.946105    1.175095    0.952418
     36          1           0        1.047766    2.162384    1.492602
     37          6           0        3.360725    0.084708    0.212259
     38          8           0        3.866630    1.970654    1.544682
     39          6           0        4.718259   -0.344819   -0.037308
     40          6           0        3.391327    3.010591    2.374745
     41          6           0        5.125057   -1.455307   -0.746908
     42         16           0        6.111776    0.521093    0.548923
     43          1           0        4.274329    3.501611    2.779797
     44          1           0        2.803241    3.735591    1.801777
     45          1           0        2.786596    2.613356    3.197395
     46          6           0        6.536680   -1.609356   -0.819164
     47          8           0        4.199160   -2.277103   -1.292003
     48          6           0        7.185523   -0.608854   -0.160843
     49          1           0        7.043631   -2.415930   -1.328834
     50          6           0        4.660753   -3.382804   -2.040348
     51          1           0        8.251623   -0.478598   -0.052593
     52          1           0        5.249415   -4.064297   -1.416772
     53          1           0        3.771353   -3.899328   -2.396628
     54          1           0        5.259867   -3.057148   -2.897549
 ---------------------------------------------------------------------

 The electronic state is 1-A.
 Alpha  occ. eigenvalues --  -89.04870 -89.04570 -19.29014 -19.28782 -19.25035
 Alpha  occ. eigenvalues --  -19.24999 -19.24535 -19.24472 -14.50597 -14.50217
 Alpha  occ. eigenvalues --  -10.42820 -10.42612 -10.42567 -10.42277 -10.35427
 Alpha  occ. eigenvalues --  -10.35343 -10.35221 -10.34505 -10.34450 -10.34297
 Alpha  occ. eigenvalues --  -10.34287 -10.34009 -10.33788 -10.33747 -10.33588
 Alpha  occ. eigenvalues --  -10.32909 -10.32879 -10.32780 -10.32698 -10.32641
 Alpha  occ. eigenvalues --  -10.32320 -10.32240 -10.31976 -10.31718 -10.29781
 Alpha  occ. eigenvalues --  -10.29601  -8.08897  -8.08591  -6.03747  -6.03434
 Alpha  occ. eigenvalues --   -6.03350  -6.03037  -6.02968  -6.02680  -1.19513
 Alpha  occ. eigenvalues --   -1.19242  -1.18722  -1.18510  -1.17598  -1.17248
 Alpha  occ. eigenvalues --   -1.06765  -1.06290  -1.03154  -1.00569  -0.98927
 Alpha  occ. eigenvalues --   -0.97100  -0.94677  -0.90511  -0.88652  -0.87366
 Alpha  occ. eigenvalues --   -0.85970  -0.85257  -0.84705  -0.82739  -0.82238
 Alpha  occ. eigenvalues --   -0.81494  -0.79540  -0.78293  -0.76893  -0.75531
 Alpha  occ. eigenvalues --   -0.75184  -0.74250  -0.70221  -0.68831  -0.67889
 Alpha  occ. eigenvalues --   -0.66606  -0.65707  -0.65072  -0.64562  -0.63507
 Alpha  occ. eigenvalues --   -0.62483  -0.60696  -0.59740  -0.59198  -0.58824
 Alpha  occ. eigenvalues --   -0.58277  -0.57675  -0.57330  -0.57289  -0.56937
 Alpha  occ. eigenvalues --   -0.56548  -0.55861  -0.55464  -0.55152  -0.54350
 Alpha  occ. eigenvalues --   -0.53995  -0.53465  -0.53315  -0.53271  -0.52171
 Alpha  occ. eigenvalues --   -0.51597  -0.51105  -0.51017  -0.50386  -0.50348
 Alpha  occ. eigenvalues --   -0.50077  -0.49508  -0.49366  -0.48826  -0.48301
 Alpha  occ. eigenvalues --   -0.48052  -0.47522  -0.46958  -0.45729  -0.45373
 Alpha  occ. eigenvalues --   -0.44244  -0.44023  -0.42333  -0.41690  -0.41335
 Alpha  occ. eigenvalues --   -0.41161  -0.40194  -0.39658  -0.38581  -0.37732
 Alpha  occ. eigenvalues --   -0.37356  -0.37075  -0.36838  -0.36245  -0.34589
 Alpha  occ. eigenvalues --   -0.33198  -0.31620  -0.31521  -0.25554
 Alpha virt. eigenvalues --   -0.07220  -0.00530   0.00448   0.02356   0.03397
 Alpha virt. eigenvalues --    0.05198   0.05793   0.06115   0.06810   0.07003
 Alpha virt. eigenvalues --    0.07258   0.07539   0.07676   0.07851   0.07903

 Mulliken charges:
               1
     1  C    0.360146
     2  C   -0.077162
     3  C    0.157464
     4  C    0.188168
     5  C    0.339299
     6  C   -0.543241
     7  C    0.178112
     8  C    0.290879
     9  C    0.518833
    10  C   -0.406628
    11  C    0.266244
    12  C    0.138648
    13  C   -0.560716
    14  C   -0.683623
    15  H    0.187281
    16  H    0.188616
    17  H    0.209302
    18  N   -0.085696
    19  N   -0.091501
    20  O   -0.262723
    21  O   -0.266897
    22  O   -0.273070
    23  O   -0.184309
    24  C   -0.288918
    25  H    0.190471
    26  H    0.196412
    27  H    0.201065
    28  C   -0.282650
    29  H    0.192284
    30  H    0.194627
    31  H    0.200333
    32  C    0.050707
    33  C   -0.508396
    34  S   -0.611323
    35  C   -0.107650
    36  H    0.163914
    37  C    0.719793
    38  O   -0.109499
    39  C    0.827539
    40  C   -0.299511
    41  C   -0.025342
    42  S   -0.276486
    43  H    0.181780
    44  H    0.167434
    45  H    0.160880
    46  C   -0.601152
    47  O   -0.113847
    48  C   -0.342444
    49  H    0.156119
    50  C   -0.307489
    51  H    0.186364
    52  H    0.157071
    53  H    0.181795
    54  H    0.158698
 Sum of Mulliken charges =  -0.00000

 Dipole moment (field-independent basis, Debye):
    X=              2.5406    Y=             -0.4374    Z=              0.1939  Tot=              2.5853
 Quadrupole moment (field-independent basis, Debye-Ang):
   XX=           -216.7515   YY=           -212.4130   ZZ=           -213.2370
   XY=             -4.1437   XZ=             -4.3207   YZ=             15.2858

 Normal termination of Gaussian 16 at Sun Nov 29 22:01:36 2020.
