 Gaussian 16, Revision C.01,
 Gaussian 16:  ES64L-G16RevC.01  3-Jul-2019

 --------------------------------------
 # opt=modredundant wb97xd/6-311+g(d,p)
 --------------------------------------

 -----------
 NDI_-45.pdb
 -----------
 Symbolic Z-matrix:
 Charge =  0 Multiplicity = 1

 SCF Done:  E(RwB97XD) =  -2358.76982979     A.U. after   19 cycles
 SCF Done:  E(RwB97XD) =  -2358.77303409     A.U. after   17 cycles
 SCF Done:  E(RwB97XD) =  -2358.77313744     A.U. after   16 cycles
 SCF Done:  E(RwB97XD) =  -2358.77395921     A.U. after   15 cycles
 SCF Done:  E(RwB97XD) =  -2358.77398299     A.U. after   14 cycles
 SCF Done:  E(RwB97XD) =  -2358.77404633     A.U. after   14 cycles
 SCF Done:  E(RwB97XD) =  -2358.77405620     A.U. after   14 cycles
 SCF Done:  E(RwB97XD) =  -2358.77406378     A.U. after   13 cycles
 SCF Done:  E(RwB97XD) =  -2358.77406464     A.U. after   13 cycles
 SCF Done:  E(RwB97XD) =  -2358.77406495     A.U. after   10 cycles
 SCF Done:  E(RwB97XD) =  -2358.77406498     A.U. after   10 cycles
 Optimization completed.
    -- Stationary point found.

                         Standard orientation:
 ---------------------------------------------------------------------
 Center     Atomic      Atomic             Coordinates (Angstroms)
 Number     Number       Type             X           Y           Z
 ---------------------------------------------------------------------
      1          6           0        2.718099   -2.952125    0.488353
      2          6           0        2.328708   -1.532864    0.272973
      3          6           0        3.315224   -0.544542    0.081178
      4          6           0        4.681220   -0.887678    0.091744
      5          6           0        5.101675   -2.298481    0.314009
      6          6           0        1.008977   -1.188727    0.286138
      7          6           0        2.910985    0.790512   -0.135315
      8          6           0        1.529526    1.139865   -0.133850
      9          6           0        0.568394    0.153051    0.107953
     10          6           0        1.169309    2.537654   -0.520152
     11          6           0        3.573159    3.169718   -0.620869
     12          6           0        3.921958    1.755025   -0.349832
     13          6           0        5.253757    1.404004   -0.329254
     14          6           0        5.641555    0.077019   -0.105764
     15          1           0        6.686477   -0.206628   -0.091804
     16          1           0        5.992506    2.178429   -0.495126
     17          1           0        0.278727   -1.966372    0.475129
     18          7           0        2.215581    3.449913   -0.716791
     19          7           0        4.082444   -3.237429    0.495224
     20          8           0        1.905118   -3.832673    0.654058
     21          8           0        6.267349   -2.621286    0.335361
     22          8           0        4.416030    4.027198   -0.768832
     23          8           0        0.035545    2.927992   -0.677619
     24          6           0        1.812058    4.811953   -1.064391
     25          1           0        1.235378    4.801288   -1.989103
     26          1           0        1.187969    5.227173   -0.272786
     27          1           0        2.713324    5.405432   -1.184430
     28          6           0        4.448623   -4.636264    0.713069
     29          1           0        4.046382   -4.976980    1.667104
     30          1           0        4.030384   -5.254952   -0.081216
     31          1           0        5.532459   -4.702627    0.712656
     32          6           0       -0.874931    0.368033    0.262725
     33          6           0       -1.531487    1.321689    0.989158
     34         16           0       -1.987861   -0.758908   -0.441900
     35          6           0       -2.932384    1.149074    0.972666
     36          1           0       -1.023289    2.118941    1.508728
     37          6           0       -3.358508    0.065131    0.229583
     38          8           0       -3.841988    1.933776    1.595249
     39          6           0       -4.720398   -0.355212   -0.011957
     40          6           0       -3.367528    3.111624    2.215718
     41          6           0       -5.138885   -1.459276   -0.724596
     42         16           0       -6.104419    0.518909    0.584368
     43          1           0       -4.247429    3.631739    2.590091
     44          1           0       -2.703579    2.876326    3.054927
     45          1           0       -2.841755    3.750096    1.497800
     46          6           0       -6.552061   -1.601795   -0.791616
     47          8           0       -4.222000   -2.282096   -1.283250
     48          6           0       -7.190183   -0.599359   -0.125905
     49          1           0       -7.067590   -2.401961   -1.302783
     50          6           0       -4.694403   -3.420018   -1.974347
     51          1           0       -8.254730   -0.461415   -0.012096
     52          1           0       -5.312666   -3.133248   -2.831879
     53          1           0       -3.810454   -3.947682   -2.327842
     54          1           0       -5.266981   -4.076301   -1.310135
 ---------------------------------------------------------------------

 The electronic state is 1-A.
 Alpha  occ. eigenvalues --  -89.04890 -89.04565 -19.29008 -19.28792 -19.25041
 Alpha  occ. eigenvalues --  -19.25001 -19.24567 -19.24487 -14.50600 -14.50234
 Alpha  occ. eigenvalues --  -10.42825 -10.42616 -10.42577 -10.42308 -10.35389
 Alpha  occ. eigenvalues --  -10.35335 -10.35235 -10.34496 -10.34445 -10.34276
 Alpha  occ. eigenvalues --  -10.34274 -10.34019 -10.33799 -10.33762 -10.33604
 Alpha  occ. eigenvalues --  -10.32905 -10.32872 -10.32801 -10.32717 -10.32659
 Alpha  occ. eigenvalues --  -10.32315 -10.32237 -10.32014 -10.31713 -10.29797
 Alpha  occ. eigenvalues --  -10.29597  -8.08916  -8.08586  -6.03765  -6.03429
 Alpha  occ. eigenvalues --   -6.03369  -6.03032  -6.02988  -6.02675  -1.19516
 Alpha  occ. eigenvalues --   -1.19251  -1.18716  -1.18517  -1.17602  -1.17264
 Alpha  occ. eigenvalues --   -1.06767  -1.06308  -1.03170  -1.00578  -0.98930
 Alpha  occ. eigenvalues --   -0.97112  -0.94691  -0.90519  -0.88665  -0.87365
 Alpha  occ. eigenvalues --   -0.85967  -0.85267  -0.84707  -0.82751  -0.82247
 Alpha  occ. eigenvalues --   -0.81498  -0.79542  -0.78302  -0.76903  -0.75541
 Alpha  occ. eigenvalues --   -0.75191  -0.74257  -0.70232  -0.68835  -0.67893
 Alpha  occ. eigenvalues --   -0.66617  -0.65705  -0.65068  -0.64572  -0.63518
 Alpha  occ. eigenvalues --   -0.62491  -0.60709  -0.59755  -0.59210  -0.58834
 Alpha  occ. eigenvalues --   -0.58262  -0.57691  -0.57328  -0.57301  -0.56939
 Alpha  occ. eigenvalues --   -0.56545  -0.55870  -0.55462  -0.55175  -0.54341
 Alpha  occ. eigenvalues --   -0.53990  -0.53468  -0.53343  -0.53279  -0.52201
 Alpha  occ. eigenvalues --   -0.51612  -0.51094  -0.51033  -0.50475  -0.50321
 Alpha  occ. eigenvalues --   -0.50016  -0.49518  -0.49373  -0.48844  -0.48327
 Alpha  occ. eigenvalues --   -0.48072  -0.47571  -0.46897  -0.45719  -0.45474
 Alpha  occ. eigenvalues --   -0.44264  -0.43986  -0.42363  -0.41696  -0.41291
 Alpha  occ. eigenvalues --   -0.41190  -0.40214  -0.39656  -0.38578  -0.37720
 Alpha  occ. eigenvalues --   -0.37359  -0.37071  -0.36878  -0.36250  -0.34605
 Alpha  occ. eigenvalues --   -0.33197  -0.31635  -0.31524  -0.25553
 Alpha virt. eigenvalues --   -0.07233  -0.00538   0.00450   0.02343   0.03393
 Alpha virt. eigenvalues --    0.05171   0.05792   0.06095   0.06803   0.06989
 Alpha virt. eigenvalues --    0.07283   0.07528   0.07688   0.07815   0.07914

 Mulliken charges:
               1
     1  C    0.369562
     2  C   -0.093973
     3  C    0.143227
     4  C    0.192430
     5  C    0.337191
     6  C   -0.536010
     7  C    0.182204
     8  C    0.290970
     9  C    0.488079
    10  C   -0.411094
    11  C    0.264640
    12  C    0.130438
    13  C   -0.546437
    14  C   -0.683269
    15  H    0.187390
    16  H    0.188437
    17  H    0.207704
    18  N   -0.073350
    19  N   -0.092211
    20  O   -0.263507
    21  O   -0.266306
    22  O   -0.273162
    23  O   -0.181166
    24  C   -0.284599
    25  H    0.196781
    26  H    0.190004
    27  H    0.201047
    28  C   -0.282690
    29  H    0.193186
    30  H    0.193669
    31  H    0.200163
    32  C    0.093066
    33  C   -0.457391
    34  S   -0.609648
    35  C   -0.110729
    36  H    0.157892
    37  C    0.673914
    38  O   -0.111647
    39  C    0.829727
    40  C   -0.306652
    41  C   -0.022885
    42  S   -0.285421
    43  H    0.181564
    44  H    0.156208
    45  H    0.176075
    46  C   -0.615340
    47  O   -0.112238
    48  C   -0.339373
    49  H    0.156155
    50  C   -0.306352
    51  H    0.186318
    52  H    0.157087
    53  H    0.181777
    54  H    0.158547
 Sum of Mulliken charges =  -0.00000

 Dipole moment (field-independent basis, Debye):
    X=             -2.5228    Y=             -0.3018    Z=              0.1293  Tot=              2.5441
 Quadrupole moment (field-independent basis, Debye-Ang):
   XX=           -216.3655   YY=           -211.3983   ZZ=           -214.5561
   XY=              3.6732   XZ=              4.6500   YZ=             14.4237

 Normal termination of Gaussian 16 at Sun Nov 29 22:14:01 2020.
