 Gaussian 16, Revision C.01,
 Gaussian 16:  ES64L-G16RevC.01  3-Jul-2019

 --------------------------------------
 # opt=modredundant wb97xd/6-311+g(d,p)
 --------------------------------------

 ------------
 NDI_-135.pdb
 ------------
 Symbolic Z-matrix:
 Charge =  0 Multiplicity = 1

 SCF Done:  E(RwB97XD) =  -2358.75707221     A.U. after   19 cycles
 SCF Done:  E(RwB97XD) =  -2358.75931179     A.U. after   19 cycles
 SCF Done:  E(RwB97XD) =  -2358.76552523     A.U. after   15 cycles
 SCF Done:  E(RwB97XD) =  -2358.77063341     A.U. after   15 cycles
 SCF Done:  E(RwB97XD) =  -2358.77167557     A.U. after   16 cycles
 SCF Done:  E(RwB97XD) =  -2358.77210402     A.U. after   18 cycles
 SCF Done:  E(RwB97XD) =  -2358.77230310     A.U. after   15 cycles
 SCF Done:  E(RwB97XD) =  -2358.77255698     A.U. after   15 cycles
 SCF Done:  E(RwB97XD) =  -2358.77259395     A.U. after   15 cycles
 SCF Done:  E(RwB97XD) =  -2358.77262419     A.U. after   15 cycles
 SCF Done:  E(RwB97XD) =  -2358.77262814     A.U. after   15 cycles
 SCF Done:  E(RwB97XD) =  -2358.77263195     A.U. after   15 cycles
 SCF Done:  E(RwB97XD) =  -2358.77263274     A.U. after   13 cycles
 SCF Done:  E(RwB97XD) =  -2358.77263280     A.U. after   12 cycles
 SCF Done:  E(RwB97XD) =  -2358.77263283     A.U. after   11 cycles
 SCF Done:  E(RwB97XD) =  -2358.77263284     A.U. after    9 cycles
 Optimization completed.
    -- Stationary point found.

                         Standard orientation:
 ---------------------------------------------------------------------
 Center     Atomic      Atomic             Coordinates (Angstroms)
 Number     Number       Type             X           Y           Z
 ---------------------------------------------------------------------
      1          6           0       -3.371015   -2.741780    0.428809
      2          6           0       -2.676758   -1.459659    0.137321
      3          6           0       -3.391279   -0.244786    0.155888
      4          6           0       -4.770338   -0.227854    0.444821
      5          6           0       -5.491500   -1.495946    0.741054
      6          6           0       -1.339855   -1.463675   -0.145055
      7          6           0       -2.711342    0.953680   -0.147382
      8          6           0       -1.318854    0.938709   -0.433144
      9          6           0       -0.622871   -0.268028   -0.416168
     10          6           0       -0.694152    2.199350   -0.933598
     11          6           0       -2.808086    3.440570   -0.525414
     12          6           0       -3.455205    2.155072   -0.160943
     13          6           0       -4.799340    2.155139    0.136370
     14          6           0       -5.464251    0.959533    0.443561
     15          1           0       -6.523258    0.951753    0.669803
     16          1           0       -5.332099    3.097975    0.117961
     17          1           0       -0.803763   -2.404634   -0.121826
     18          7           0       -1.478020    3.360742   -0.921115
     19          7           0       -4.737667   -2.672696    0.695449
     20          8           0       -2.793229   -3.804813    0.451002
     21          8           0       -6.672124   -1.513260    1.003717
     22          8           0       -3.407731    4.492596   -0.501930
     23          8           0        0.444259    2.268794   -1.330882
     24          6           0       -0.809519    4.581445   -1.370750
     25          1           0        0.052831    4.785465   -0.735808
     26          1           0       -0.461786    4.454733   -2.395850
     27          1           0       -1.525283    5.395620   -1.309478
     28          6           0       -5.403790   -3.942747    0.981731
     29          1           0       -5.275004   -4.621784    0.138983
     30          1           0       -4.961853   -4.400679    1.867031
     31          1           0       -6.457343   -3.739261    1.147931
     32          6           0        0.832974   -0.432535   -0.561758
     33          6           0        1.452551   -1.362036   -1.352509
     34         16           0        1.952399    0.346392    0.493590
     35          6           0        2.852301   -1.403897   -1.142490
     36          1           0        0.920312   -1.971871   -2.069647
     37          6           0        3.294190   -0.545204   -0.157720
     38          8           0        3.736662   -2.198330   -1.790905
     39          6           0        4.652399   -0.365837    0.308437
     40          6           0        3.250854   -2.971569   -2.867870
     41          6           0        5.088957    0.481641    1.304124
     42         16           0        6.007152   -1.234531   -0.358812
     43          1           0        4.113842   -3.488840   -3.283338
     44          1           0        2.517649   -3.711086   -2.526927
     45          1           0        2.801357   -2.336319   -3.638956
     46          6           0        6.492917    0.437128    1.526907
     47          8           0        4.197424    1.259623    1.961463
     48          6           0        7.106255   -0.449815    0.695165
     49          1           0        7.019278    1.027868    2.262701
     50          6           0        4.686494    2.086655    2.996035
     51          1           0        8.158584   -0.685459    0.647644
     52          1           0        5.406468    2.817558    2.611992
     53          1           0        3.821845    2.611390    3.398579
     54          1           0        5.152720    1.493267    3.790150
 ---------------------------------------------------------------------

 The electronic state is 1-A.
 Alpha  occ. eigenvalues --  -89.04466 -89.04355 -19.28788 -19.28726 -19.25148
 Alpha  occ. eigenvalues --  -19.25129 -19.24639 -19.24508 -14.50711 -14.50223
 Alpha  occ. eigenvalues --  -10.42938 -10.42749 -10.42450 -10.42406 -10.35235
 Alpha  occ. eigenvalues --  -10.35079 -10.35070 -10.34487 -10.34391 -10.34346
 Alpha  occ. eigenvalues --  -10.34316 -10.34198 -10.33926 -10.33905 -10.33777
 Alpha  occ. eigenvalues --  -10.32986 -10.32919 -10.32906 -10.32837 -10.32521
 Alpha  occ. eigenvalues --  -10.32329 -10.32099 -10.31918 -10.31480 -10.29841
 Alpha  occ. eigenvalues --  -10.29400  -8.08485  -8.08377  -6.03342  -6.03220
 Alpha  occ. eigenvalues --   -6.02940  -6.02824  -6.02544  -6.02466  -1.19621
 Alpha  occ. eigenvalues --   -1.19248  -1.18514  -1.18420  -1.17715  -1.17297
 Alpha  occ. eigenvalues --   -1.06868  -1.06353  -1.03312  -1.00398  -0.98791
 Alpha  occ. eigenvalues --   -0.97159  -0.94810  -0.90552  -0.88768  -0.87205
 Alpha  occ. eigenvalues --   -0.85871  -0.85310  -0.84507  -0.82669  -0.82416
 Alpha  occ. eigenvalues --   -0.81185  -0.79588  -0.78253  -0.76911  -0.75626
 Alpha  occ. eigenvalues --   -0.75175  -0.74413  -0.70093  -0.68816  -0.67860
 Alpha  occ. eigenvalues --   -0.66709  -0.65726  -0.64820  -0.64242  -0.63401
 Alpha  occ. eigenvalues --   -0.62864  -0.60769  -0.59808  -0.59174  -0.58953
 Alpha  occ. eigenvalues --   -0.58087  -0.57734  -0.57370  -0.57221  -0.56874
 Alpha  occ. eigenvalues --   -0.56410  -0.56056  -0.55440  -0.55328  -0.54208
 Alpha  occ. eigenvalues --   -0.53891  -0.53722  -0.53372  -0.53202  -0.52492
 Alpha  occ. eigenvalues --   -0.51613  -0.51201  -0.50996  -0.50350  -0.50145
 Alpha  occ. eigenvalues --   -0.49944  -0.49537  -0.49402  -0.48865  -0.48386
 Alpha  occ. eigenvalues --   -0.48144  -0.47298  -0.46642  -0.45828  -0.45261
 Alpha  occ. eigenvalues --   -0.44302  -0.43856  -0.42217  -0.41528  -0.41130
 Alpha  occ. eigenvalues --   -0.41103  -0.40289  -0.39657  -0.38448  -0.37612
 Alpha  occ. eigenvalues --   -0.37434  -0.37105  -0.36747  -0.36213  -0.34862
 Alpha  occ. eigenvalues --   -0.33284  -0.31622  -0.31214  -0.25445
 Alpha virt. eigenvalues --   -0.07246  -0.00299   0.00442   0.02232   0.03298
 Alpha virt. eigenvalues --    0.05140   0.05831   0.06124   0.06685   0.06871
 Alpha virt. eigenvalues --    0.07159   0.07536   0.07597   0.07694   0.07935

 Mulliken charges:
               1
     1  C    0.384423
     2  C   -0.024241
     3  C    0.182849
     4  C    0.276516
     5  C    0.419728
     6  C   -0.448874
     7  C    0.106098
     8  C   -0.008751
     9  C    0.170780
    10  C   -0.211825
    11  C    0.297032
    12  C    0.173467
    13  C   -0.499023
    14  C   -0.785859
    15  H    0.188525
    16  H    0.189093
    17  H    0.200813
    18  N   -0.054599
    19  N   -0.090978
    20  O   -0.262199
    21  O   -0.267992
    22  O   -0.274206
    23  O   -0.195610
    24  C   -0.265093
    25  H    0.198594
    26  H    0.196996
    27  H    0.200886
    28  C   -0.281295
    29  H    0.192005
    30  H    0.195301
    31  H    0.200702
    32  C    0.091114
    33  C   -0.425023
    34  S   -0.547289
    35  C   -0.132473
    36  H    0.158646
    37  C    0.401800
    38  O   -0.102007
    39  C    0.983918
    40  C   -0.308361
    41  C    0.032622
    42  S   -0.262740
    43  H    0.182771
    44  H    0.160322
    45  H    0.166136
    46  C   -0.563275
    47  O   -0.120921
    48  C   -0.348274
    49  H    0.155185
    50  C   -0.304408
    51  H    0.185572
    52  H    0.156867
    53  H    0.179309
    54  H    0.157244
 Sum of Mulliken charges =  -0.00000

 Dipole moment (field-independent basis, Debye):
    X=              1.9089    Y=             -0.1548    Z=              0.0904  Tot=              1.9173
 Quadrupole moment (field-independent basis, Debye-Ang):
   XX=           -214.8742   YY=           -221.5211   ZZ=           -206.6341
   XY=              8.1991   XZ=             10.1765   YZ=             14.0724

 Normal termination of Gaussian 16 at Mon Nov 30 01:35:54 2020.
