 Gaussian 16, Revision C.01,
 Gaussian 16:  ES64L-G16RevC.01  3-Jul-2019

 --------------------------------------
 # opt=modredundant wb97xd/6-311+g(d,p)
 --------------------------------------

 -----------
 NDI_-40.pdb
 -----------
 Symbolic Z-matrix:
 Charge =  0 Multiplicity = 1

 SCF Done:  E(RwB97XD) =  -2358.76992070     A.U. after   19 cycles
 SCF Done:  E(RwB97XD) =  -2358.77328208     A.U. after   16 cycles
 SCF Done:  E(RwB97XD) =  -2358.77300656     A.U. after   16 cycles
 SCF Done:  E(RwB97XD) =  -2358.77379486     A.U. after   14 cycles
 SCF Done:  E(RwB97XD) =  -2358.77382107     A.U. after   14 cycles
 SCF Done:  E(RwB97XD) =  -2358.77386116     A.U. after   14 cycles
 SCF Done:  E(RwB97XD) =  -2358.77387211     A.U. after   13 cycles
 SCF Done:  E(RwB97XD) =  -2358.77387509     A.U. after   13 cycles
 SCF Done:  E(RwB97XD) =  -2358.77387572     A.U. after   12 cycles
 SCF Done:  E(RwB97XD) =  -2358.77387584     A.U. after   10 cycles
 Optimization completed.
    -- Stationary point found.

                         Standard orientation:
 ---------------------------------------------------------------------
 Center     Atomic      Atomic             Coordinates (Angstroms)
 Number     Number       Type             X           Y           Z
 ---------------------------------------------------------------------
      1          6           0        2.684483   -2.965464    0.447309
      2          6           0        2.311325   -1.539685    0.246930
      3          6           0        3.309169   -0.557758    0.082404
      4          6           0        4.671339   -0.913818    0.106739
      5          6           0        5.075813   -2.331541    0.314102
      6          6           0        0.995413   -1.183796    0.249363
      7          6           0        2.918537    0.783243   -0.121950
      8          6           0        1.539708    1.145881   -0.133465
      9          6           0        0.565443    0.164030    0.083557
     10          6           0        1.200726    2.547776   -0.522507
     11          6           0        3.610823    3.161020   -0.570144
     12          6           0        3.941722    1.740483   -0.310053
     13          6           0        5.270209    1.377245   -0.274791
     14          6           0        5.643424    0.044478   -0.063833
     15          1           0        6.685433   -0.248894   -0.039282
     16          1           0        6.017685    2.147413   -0.420052
     17          1           0        0.258710   -1.959271    0.421340
     18          7           0        2.257944    3.452962   -0.690946
     19          7           0        4.045758   -3.263837    0.467124
     20          8           0        1.861164   -3.840321    0.591262
     21          8           0        6.238098   -2.665383    0.347328
     22          8           0        4.463270    4.013332   -0.691414
     23          8           0        0.074250    2.949666   -0.704441
     24          6           0        1.872887    4.820534   -1.037599
     25          1           0        1.315744    4.820931   -1.974258
     26          1           0        1.235741    5.235779   -0.256451
     27          1           0        2.781454    5.407095   -1.134423
     28          6           0        4.395926   -4.669048    0.669537
     29          1           0        3.978475   -5.019419    1.613496
     30          1           0        3.981860   -5.272260   -0.138715
     31          1           0        5.478952   -4.746185    0.681685
     32          6           0       -0.875592    0.384904    0.241064
     33          6           0       -1.534753    1.377043    0.913461
     34         16           0       -1.991869   -0.773039   -0.410560
     35          6           0       -2.934777    1.205491    0.903492
     36          1           0       -1.029349    2.199269    1.394332
     37          6           0       -3.361463    0.085549    0.215110
     38          8           0       -3.844202    2.022015    1.483604
     39          6           0       -4.723193   -0.345782   -0.004836
     40          6           0       -3.368486    3.229371    2.044011
     41          6           0       -5.141792   -1.482491   -0.664583
     42         16           0       -6.107176    0.554159    0.552099
     43          1           0       -4.248375    3.771153    2.386248
     44          1           0       -2.709389    3.035894    2.897578
     45          1           0       -2.836806    3.827352    1.296257
     46          6           0       -6.554828   -1.629222   -0.722375
     47          8           0       -4.225163   -2.329518   -1.185240
     48          6           0       -7.192594   -0.597316   -0.102843
     49          1           0       -7.070444   -2.452757   -1.194875
     50          6           0       -4.697079   -3.499547   -1.821215
     51          1           0       -8.257113   -0.455023    0.005875
     52          1           0       -5.315915   -3.254240   -2.691061
     53          1           0       -3.812805   -4.042629   -2.149561
     54          1           0       -5.268719   -4.123798   -1.126099
 ---------------------------------------------------------------------

 The electronic state is 1-A.
 Alpha  occ. eigenvalues --  -89.04935 -89.04639 -19.29080 -19.28835 -19.25011
 Alpha  occ. eigenvalues --  -19.24977 -19.24516 -19.24447 -14.50575 -14.50198
 Alpha  occ. eigenvalues --  -10.42794 -10.42590 -10.42551 -10.42252 -10.35427
 Alpha  occ. eigenvalues --  -10.35421 -10.35287 -10.34542 -10.34408 -10.34289
 Alpha  occ. eigenvalues --  -10.34217 -10.33953 -10.33750 -10.33717 -10.33538
 Alpha  occ. eigenvalues --  -10.33027 -10.32916 -10.32767 -10.32655 -10.32592
 Alpha  occ. eigenvalues --  -10.32385 -10.32219 -10.31997 -10.31795 -10.29842
 Alpha  occ. eigenvalues --  -10.29664  -8.08963  -8.08660  -6.03812  -6.03503
 Alpha  occ. eigenvalues --   -6.03416  -6.03106  -6.03035  -6.02749  -1.19488
 Alpha  occ. eigenvalues --   -1.19217  -1.18792  -1.18564  -1.17574  -1.17221
 Alpha  occ. eigenvalues --   -1.06739  -1.06271  -1.03120  -1.00628  -0.98979
 Alpha  occ. eigenvalues --   -0.97092  -0.94644  -0.90520  -0.88626  -0.87410
 Alpha  occ. eigenvalues --   -0.86006  -0.85239  -0.84768  -0.82776  -0.82246
 Alpha  occ. eigenvalues --   -0.81497  -0.79579  -0.78316  -0.76878  -0.75504
 Alpha  occ. eigenvalues --   -0.75173  -0.74233  -0.70245  -0.68872  -0.67907
 Alpha  occ. eigenvalues --   -0.66587  -0.65728  -0.65129  -0.64549  -0.63582
 Alpha  occ. eigenvalues --   -0.62455  -0.60681  -0.59731  -0.59195  -0.58799
 Alpha  occ. eigenvalues --   -0.58294  -0.57675  -0.57379  -0.57283  -0.56976
 Alpha  occ. eigenvalues --   -0.56582  -0.55827  -0.55452  -0.55138  -0.54373
 Alpha  occ. eigenvalues --   -0.53967  -0.53500  -0.53302  -0.53269  -0.52138
 Alpha  occ. eigenvalues --   -0.51613  -0.51084  -0.51004  -0.50512  -0.50325
 Alpha  occ. eigenvalues --   -0.50058  -0.49505  -0.49389  -0.48824  -0.48325
 Alpha  occ. eigenvalues --   -0.48026  -0.47623  -0.46907  -0.45743  -0.45486
 Alpha  occ. eigenvalues --   -0.44302  -0.44044  -0.42399  -0.41747  -0.41308
 Alpha  occ. eigenvalues --   -0.41240  -0.40167  -0.39630  -0.38559  -0.37737
 Alpha  occ. eigenvalues --   -0.37333  -0.37067  -0.36842  -0.36263  -0.34576
 Alpha  occ. eigenvalues --   -0.33169  -0.31673  -0.31565  -0.25583
 Alpha virt. eigenvalues --   -0.07222  -0.00645   0.00463   0.02385   0.03455
 Alpha virt. eigenvalues --    0.05199   0.05770   0.06093   0.06792   0.07019
 Alpha virt. eigenvalues --    0.07260   0.07510   0.07715   0.07850   0.07942

 Mulliken charges:
               1
     1  C    0.349155
     2  C   -0.086891
     3  C    0.156602
     4  C    0.194140
     5  C    0.334569
     6  C   -0.448174
     7  C    0.187565
     8  C    0.337998
     9  C    0.456802
    10  C   -0.466069
    11  C    0.268397
    12  C    0.122091
    13  C   -0.549193
    14  C   -0.682648
    15  H    0.187199
    16  H    0.188393
    17  H    0.205323
    18  N   -0.065046
    19  N   -0.091342
    20  O   -0.264540
    21  O   -0.266165
    22  O   -0.273560
    23  O   -0.193188
    24  C   -0.280532
    25  H    0.196897
    26  H    0.189503
    27  H    0.201029
    28  C   -0.282537
    29  H    0.193062
    30  H    0.193558
    31  H    0.200063
    32  C    0.087624
    33  C   -0.485943
    34  S   -0.639037
    35  C   -0.130828
    36  H    0.159185
    37  C    0.682977
    38  O   -0.109809
    39  C    0.851684
    40  C   -0.308501
    41  C   -0.013811
    42  S   -0.281783
    43  H    0.181702
    44  H    0.156623
    45  H    0.176784
    46  C   -0.623899
    47  O   -0.111494
    48  C   -0.338638
    49  H    0.156454
    50  C   -0.306910
    51  H    0.186709
    52  H    0.157136
    53  H    0.182441
    54  H    0.158874
 Sum of Mulliken charges =  -0.00000

 Dipole moment (field-independent basis, Debye):
    X=             -2.7286    Y=             -0.3458    Z=              0.1312  Tot=              2.7535
 Quadrupole moment (field-independent basis, Debye-Ang):
   XX=           -216.0136   YY=           -210.2633   ZZ=           -215.7543
   XY=              3.8755   XZ=              4.0375   YZ=             13.6637

 Normal termination of Gaussian 16 at Sun Nov 29 20:23:09 2020.
