 Gaussian 16, Revision C.01,
 Gaussian 16:  ES64L-G16RevC.01  3-Jul-2019

 --------------------------------------
 # opt=modredundant wb97xd/6-311+g(d,p)
 --------------------------------------

 ------------
 NDI_-115.pdb
 ------------
 Symbolic Z-matrix:
 Charge =  0 Multiplicity = 1

 SCF Done:  E(RwB97XD) =  -2358.76308972     A.U. after   22 cycles
 SCF Done:  E(RwB97XD) =  -2358.77169866     A.U. after   19 cycles
 SCF Done:  E(RwB97XD) =  -2358.77285774     A.U. after   17 cycles
 SCF Done:  E(RwB97XD) =  -2358.77296216     A.U. after   15 cycles
 SCF Done:  E(RwB97XD) =  -2358.77321914     A.U. after   16 cycles
 SCF Done:  E(RwB97XD) =  -2358.77325770     A.U. after   15 cycles
 SCF Done:  E(RwB97XD) =  -2358.77327582     A.U. after   14 cycles
 SCF Done:  E(RwB97XD) =  -2358.77327873     A.U. after   14 cycles
 SCF Done:  E(RwB97XD) =  -2358.77327959     A.U. after   11 cycles
 SCF Done:  E(RwB97XD) =  -2358.77328021     A.U. after   11 cycles
 SCF Done:  E(RwB97XD) =  -2358.77328045     A.U. after   11 cycles
 SCF Done:  E(RwB97XD) =  -2358.77328054     A.U. after   11 cycles
 SCF Done:  E(RwB97XD) =  -2358.77328058     A.U. after   11 cycles
 SCF Done:  E(RwB97XD) =  -2358.77328059     A.U. after    9 cycles
 Optimization completed.
    -- Stationary point found.

                         Standard orientation:
 ---------------------------------------------------------------------
 Center     Atomic      Atomic             Coordinates (Angstroms)
 Number     Number       Type             X           Y           Z
 ---------------------------------------------------------------------
      1          6           0       -3.364798   -2.778269    0.296776
      2          6           0       -2.673919   -1.479686    0.079258
      3          6           0       -3.399921   -0.273071    0.129779
      4          6           0       -4.787263   -0.279122    0.382093
      5          6           0       -5.504986   -1.564453    0.603738
      6          6           0       -1.329106   -1.459715   -0.173331
      7          6           0       -2.725642    0.945359   -0.097298
      8          6           0       -1.328344    0.952957   -0.349512
      9          6           0       -0.626608   -0.246083   -0.379184
     10          6           0       -0.679240    2.250394   -0.709254
     11          6           0       -2.824877    3.449746   -0.338503
     12          6           0       -3.476505    2.142018   -0.069725
     13          6           0       -4.827985    2.117521    0.187154
     14          6           0       -5.490106    0.901821    0.416307
     15          1           0       -6.554806    0.875326    0.612842
     16          1           0       -5.368913    3.055758    0.201661
     17          1           0       -0.780673   -2.393840   -0.193379
     18          7           0       -1.473421    3.403770   -0.662972
     19          7           0       -4.738743   -2.731188    0.532075
     20          8           0       -2.779521   -3.836937    0.283862
     21          8           0       -6.692532   -1.601648    0.830856
     22          8           0       -3.437239    4.493322   -0.292555
     23          8           0        0.482167    2.350782   -1.022557
     24          6           0       -0.790670    4.656051   -0.987657
     25          1           0        0.031133    4.819443   -0.290347
     26          1           0       -0.382478    4.602017   -1.996787
     27          1           0       -1.515649    5.460877   -0.913485
     28          6           0       -5.400470   -4.017948    0.745107
     29          1           0       -5.245120   -4.657898   -0.123355
     30          1           0       -4.976234   -4.511149    1.620017
     31          1           0       -6.459530   -3.830157    0.893895
     32          6           0        0.833849   -0.369780   -0.560673
     33          6           0        1.475062   -0.947999   -1.615570
     34         16           0        1.927014    0.074421    0.694697
     35          6           0        2.882364   -0.991427   -1.426587
     36          1           0        0.958831   -1.301412   -2.497229
     37          6           0        3.301358   -0.480672   -0.218691
     38          8           0        3.789945   -1.489404   -2.299841
     39          6           0        4.657655   -0.397822    0.282051
     40          6           0        3.322353   -1.888237   -3.570795
     41          6           0        5.070069    0.097688    1.499643
     42         16           0        6.040362   -0.929779   -0.633618
     43          1           0        4.200536   -2.202940   -4.131890
     44          1           0        2.625217   -2.729955   -3.491562
     45          1           0        2.836603   -1.056203   -4.092254
     46          6           0        6.478287    0.053400    1.695580
     47          8           0        4.152711    0.571866    2.376721
     48          6           0        7.119559   -0.479404    0.618874
     49          1           0        6.988016    0.396217    2.584502
     50          6           0        4.619969    1.036355    3.624972
     51          1           0        8.180887   -0.632992    0.496047
     52          1           0        5.297421    1.888682    3.502744
     53          1           0        3.738734    1.354680    4.179297
     54          1           0        5.128395    0.239642    4.179106
 ---------------------------------------------------------------------

 The electronic state is 1-A.
 Alpha  occ. eigenvalues --  -89.04308 -89.04106 -19.28535 -19.28526 -19.25245
 Alpha  occ. eigenvalues --  -19.25200 -19.24843 -19.24757 -14.50796 -14.50406
 Alpha  occ. eigenvalues --  -10.43043 -10.42827 -10.42637 -10.42622 -10.35199
 Alpha  occ. eigenvalues --  -10.34859 -10.34751 -10.34659 -10.34601 -10.34430
 Alpha  occ. eigenvalues --  -10.34212 -10.34197 -10.34102 -10.34052 -10.34014
 Alpha  occ. eigenvalues --  -10.33137 -10.33098 -10.33049 -10.32758 -10.32390
 Alpha  occ. eigenvalues --  -10.32088 -10.32043 -10.31854 -10.31196 -10.29529
 Alpha  occ. eigenvalues --  -10.29169  -8.08324  -8.08129  -6.03183  -6.02972
 Alpha  occ. eigenvalues --   -6.02783  -6.02576  -6.02381  -6.02218  -1.19710
 Alpha  occ. eigenvalues --   -1.19440  -1.18268  -1.18186  -1.17805  -1.17505
 Alpha  occ. eigenvalues --   -1.06965  -1.06532  -1.03491  -1.00209  -0.98636
 Alpha  occ. eigenvalues --   -0.97189  -0.94984  -0.90540  -0.88926  -0.87074
 Alpha  occ. eigenvalues --   -0.85695  -0.85414  -0.84256  -0.82675  -0.82312
 Alpha  occ. eigenvalues --   -0.81270  -0.79402  -0.78173  -0.77032  -0.75774
 Alpha  occ. eigenvalues --   -0.75287  -0.74449  -0.70104  -0.68687  -0.67765
 Alpha  occ. eigenvalues --   -0.66827  -0.65659  -0.64594  -0.64438  -0.63152
 Alpha  occ. eigenvalues --   -0.62889  -0.60894  -0.59919  -0.59304  -0.59057
 Alpha  occ. eigenvalues --   -0.57927  -0.57824  -0.57452  -0.57035  -0.56691
 Alpha  occ. eigenvalues --   -0.56328  -0.56194  -0.55589  -0.55378  -0.54198
 Alpha  occ. eigenvalues --   -0.53958  -0.53745  -0.53438  -0.53132  -0.52500
 Alpha  occ. eigenvalues --   -0.51690  -0.51299  -0.51151  -0.50378  -0.50077
 Alpha  occ. eigenvalues --   -0.49726  -0.49598  -0.49256  -0.48908  -0.48450
 Alpha  occ. eigenvalues --   -0.48312  -0.47034  -0.46677  -0.45863  -0.45074
 Alpha  occ. eigenvalues --   -0.44185  -0.43615  -0.42062  -0.41318  -0.41028
 Alpha  occ. eigenvalues --   -0.40878  -0.40474  -0.39760  -0.38589  -0.37603
 Alpha  occ. eigenvalues --   -0.37532  -0.37136  -0.36868  -0.36041  -0.34995
 Alpha  occ. eigenvalues --   -0.33472  -0.31466  -0.31108  -0.25326
 Alpha virt. eigenvalues --   -0.07298  -0.00076   0.00520   0.02187   0.02931
 Alpha virt. eigenvalues --    0.05015   0.05937   0.06187   0.06603   0.06885
 Alpha virt. eigenvalues --    0.07251   0.07459   0.07588   0.07616   0.07989

 Mulliken charges:
               1
     1  C    0.443852
     2  C    0.038382
     3  C    0.141147
     4  C    0.238991
     5  C    0.350900
     6  C   -0.696495
     7  C    0.144290
     8  C   -0.074613
     9  C    0.253214
    10  C   -0.129247
    11  C    0.362610
    12  C    0.180814
    13  C   -0.555837
    14  C   -0.798539
    15  H    0.188978
    16  H    0.189770
    17  H    0.200048
    18  N   -0.083262
    19  N   -0.093039
    20  O   -0.258359
    21  O   -0.268675
    22  O   -0.271576
    23  O   -0.149879
    24  C   -0.282780
    25  H    0.199712
    26  H    0.195959
    27  H    0.201666
    28  C   -0.283812
    29  H    0.192587
    30  H    0.195620
    31  H    0.200960
    32  C    0.365824
    33  C   -0.556472
    34  S   -0.343779
    35  C   -0.163931
    36  H    0.147201
    37  C    0.299591
    38  O   -0.099327
    39  C    0.934975
    40  C   -0.309284
    41  C    0.028702
    42  S   -0.276253
    43  H    0.181910
    44  H    0.157937
    45  H    0.167466
    46  C   -0.539657
    47  O   -0.125471
    48  C   -0.371358
    49  H    0.154293
    50  C   -0.300595
    51  H    0.184395
    52  H    0.156170
    53  H    0.177929
    54  H    0.156348
 Sum of Mulliken charges =  -0.00000

 Dipole moment (field-independent basis, Debye):
    X=              1.2298    Y=              0.0410    Z=             -0.0382  Tot=              1.2311
 Quadrupole moment (field-independent basis, Debye-Ang):
   XX=           -216.8551   YY=           -228.6515   ZZ=           -198.5528
   XY=              6.0038   XZ=             10.0553   YZ=              9.4636

 Normal termination of Gaussian 16 at Sun Nov 29 22:00:25 2020.
