 Gaussian 16, Revision C.01,
 Gaussian 16:  ES64L-G16RevC.01  3-Jul-2019

 --------------------------------------
 # opt=modredundant wb97xd/6-311+g(d,p)
 --------------------------------------

 ----------
 NDI_30.pdb
 ----------
 Symbolic Z-matrix:
 Charge =  0 Multiplicity = 1

 SCF Done:  E(RwB97XD) =  -2358.76201476     A.U. after   19 cycles
 SCF Done:  E(RwB97XD) =  -2358.75350163     A.U. after   20 cycles
 SCF Done:  E(RwB97XD) =  -2358.76613466     A.U. after   17 cycles
 SCF Done:  E(RwB97XD) =  -2358.77035591     A.U. after   17 cycles
 SCF Done:  E(RwB97XD) =  -2358.77131643     A.U. after   17 cycles
 SCF Done:  E(RwB97XD) =  -2358.77170603     A.U. after   17 cycles
 SCF Done:  E(RwB97XD) =  -2358.77230420     A.U. after   15 cycles
 SCF Done:  E(RwB97XD) =  -2358.77249786     A.U. after   15 cycles
 SCF Done:  E(RwB97XD) =  -2358.77252412     A.U. after   14 cycles
 SCF Done:  E(RwB97XD) =  -2358.77258743     A.U. after   14 cycles
 SCF Done:  E(RwB97XD) =  -2358.77259474     A.U. after   13 cycles
 SCF Done:  E(RwB97XD) =  -2358.77259880     A.U. after   13 cycles
 SCF Done:  E(RwB97XD) =  -2358.77259963     A.U. after   12 cycles
 SCF Done:  E(RwB97XD) =  -2358.77259990     A.U. after   12 cycles
 SCF Done:  E(RwB97XD) =  -2358.77260012     A.U. after   11 cycles
 Optimization completed.
    -- Stationary point found.

                         Standard orientation:
 ---------------------------------------------------------------------
 Center     Atomic      Atomic             Coordinates (Angstroms)
 Number     Number       Type             X           Y           Z
 ---------------------------------------------------------------------
      1          6           0       -2.594411   -2.982515    0.403239
      2          6           0       -2.265335   -1.543125    0.223502
      3          6           0       -3.292187   -0.585827    0.096634
      4          6           0       -4.642445   -0.981769    0.130321
      5          6           0       -5.003402   -2.415902    0.301889
      6          6           0       -0.961000   -1.154163    0.194947
      7          6           0       -2.938359    0.768058   -0.088375
      8          6           0       -1.568396    1.170732   -0.113455
      9          6           0       -0.560141    0.207485    0.048301
     10          6           0       -1.283671    2.585659   -0.495143
     11          6           0       -3.710431    3.127906   -0.500614
     12          6           0       -3.992589    1.697022   -0.246189
     13          6           0       -5.310371    1.296354   -0.196227
     14          6           0       -5.644468   -0.048713   -0.005678
     15          1           0       -6.677358   -0.371962    0.025318
     16          1           0       -6.079837    2.048551   -0.319060
     17          1           0       -0.207753   -1.919747    0.335632
     18          7           0       -2.370202    3.457270   -0.652285
     19          7           0       -3.945441   -3.323222    0.409129
     20          8           0       -1.745269   -3.831953    0.550528
     21          8           0       -6.155056   -2.783945    0.342792
     22          8           0       -4.589140    3.956897   -0.595040
     23          8           0       -0.173283    3.032880   -0.675775
     24          6           0       -2.031333    4.838052   -0.994879
     25          1           0       -1.402244    5.270630   -0.216552
     26          1           0       -1.480827    4.859881   -1.935127
     27          1           0       -2.958902    5.395454   -1.083074
     28          6           0       -4.253098   -4.742109    0.582472
     29          1           0       -3.780263   -5.318641   -0.212496
     30          1           0       -3.866318   -5.090247    1.540612
     31          1           0       -5.332083   -4.858222    0.545936
     32          6           0        0.878399    0.440999    0.206977
     33          6           0        1.553696    1.495337    0.763889
     34         16           0        1.993175   -0.771422   -0.355053
     35          6           0        2.951198    1.317415    0.758510
     36          1           0        1.062132    2.362961    1.170035
     37          6           0        3.368941    0.136306    0.173119
     38          8           0        3.870160    2.190918    1.230018
     39          6           0        4.726939   -0.319662   -0.013327
     40          6           0        3.392771    3.334424    1.910019
     41          6           0        5.136844   -1.511384   -0.575215
     42         16           0        6.117850    0.613646    0.466612
     43          1           0        4.275118    3.884017    2.232796
     44          1           0        2.792847    3.966316    1.246440
     45          1           0        2.798929    3.052138    2.786249
     46          6           0        6.548549   -1.673120   -0.619132
     47          8           0        4.214089   -2.394713   -1.016791
     48          6           0        7.193812   -0.597136   -0.088459
     49          1           0        7.057897   -2.537266   -1.020507
     50          6           0        4.678153   -3.587462   -1.615924
     51          1           0        8.259472   -0.453822    0.007276
     52          1           0        5.263569   -4.183372   -0.907557
     53          1           0        3.789726   -4.144825   -1.906833
     54          1           0        5.280995   -3.373614   -2.504990
 ---------------------------------------------------------------------

 The electronic state is 1-A.
 Alpha  occ. eigenvalues --  -89.04990 -89.04771 -19.29210 -19.28911 -19.24956
 Alpha  occ. eigenvalues --  -19.24935 -19.24392 -19.24362 -14.50525 -14.50116
 Alpha  occ. eigenvalues --  -10.42735 -10.42541 -10.42497 -10.42117 -10.35597
 Alpha  occ. eigenvalues --  -10.35543 -10.35362 -10.34626 -10.34346 -10.34339
 Alpha  occ. eigenvalues --  -10.34145 -10.33831 -10.33651 -10.33620 -10.33404
 Alpha  occ. eigenvalues --  -10.33244 -10.33047 -10.32702 -10.32523 -10.32512
 Alpha  occ. eigenvalues --  -10.32457 -10.32188 -10.31944 -10.31928 -10.29886
 Alpha  occ. eigenvalues --  -10.29785  -8.09024  -8.08791  -6.03873  -6.03634
 Alpha  occ. eigenvalues --   -6.03475  -6.03237  -6.03096  -6.02880  -1.19441
 Alpha  occ. eigenvalues --   -1.19149  -1.18931  -1.18646  -1.17524  -1.17128
 Alpha  occ. eigenvalues --   -1.06690  -1.06186  -1.03021  -1.00707  -0.99060
 Alpha  occ. eigenvalues --   -0.97044  -0.94548  -0.90518  -0.88546  -0.87491
 Alpha  occ. eigenvalues --   -0.86082  -0.85180  -0.84870  -0.82822  -0.82225
 Alpha  occ. eigenvalues --   -0.81495  -0.79645  -0.78329  -0.76827  -0.75428
 Alpha  occ. eigenvalues --   -0.75142  -0.74185  -0.70261  -0.68936  -0.67929
 Alpha  occ. eigenvalues --   -0.66521  -0.65769  -0.65243  -0.64499  -0.63682
 Alpha  occ. eigenvalues --   -0.62390  -0.60624  -0.59673  -0.59164  -0.58733
 Alpha  occ. eigenvalues --   -0.58363  -0.57630  -0.57474  -0.57243  -0.57042
 Alpha  occ. eigenvalues --   -0.56647  -0.55778  -0.55415  -0.55057  -0.54448
 Alpha  occ. eigenvalues --   -0.53917  -0.53572  -0.53251  -0.53173  -0.51971
 Alpha  occ. eigenvalues --   -0.51622  -0.51096  -0.50949  -0.50463  -0.50414
 Alpha  occ. eigenvalues --   -0.50137  -0.49483  -0.49395  -0.48773  -0.48305
 Alpha  occ. eigenvalues --   -0.47921  -0.47662  -0.46974  -0.45832  -0.45349
 Alpha  occ. eigenvalues --   -0.44415  -0.44141  -0.42448  -0.41782  -0.41433
 Alpha  occ. eigenvalues --   -0.41250  -0.40071  -0.39581  -0.38524  -0.37790
 Alpha  occ. eigenvalues --   -0.37282  -0.37057  -0.36735  -0.36262  -0.34516
 Alpha  occ. eigenvalues --   -0.33135  -0.31744  -0.31639  -0.25636
 Alpha virt. eigenvalues --   -0.07186  -0.00839   0.00494   0.02477   0.03551
 Alpha virt. eigenvalues --    0.05259   0.05743   0.06107   0.06783   0.07080
 Alpha virt. eigenvalues --    0.07177   0.07494   0.07761   0.07944   0.07981

 Mulliken charges:
               1
     1  C    0.308944
     2  C   -0.027055
     3  C    0.222040
     4  C    0.202787
     5  C    0.329568
     6  C   -0.161137
     7  C    0.220326
     8  C    0.394022
     9  C    0.351526
    10  C   -0.658445
    11  C    0.266791
    12  C    0.118801
    13  C   -0.561019
    14  C   -0.694035
    15  H    0.186799
    16  H    0.188606
    17  H    0.199864
    18  N   -0.066424
    19  N   -0.089217
    20  O   -0.265863
    21  O   -0.266418
    22  O   -0.274607
    23  O   -0.214182
    24  C   -0.272352
    25  H    0.189273
    26  H    0.197196
    27  H    0.201041
    28  C   -0.282480
    29  H    0.191835
    30  H    0.194353
    31  H    0.199962
    32  C   -0.047132
    33  C   -0.514880
    34  S   -0.699529
    35  C   -0.167605
    36  H    0.168551
    37  C    0.742317
    38  O   -0.106698
    39  C    0.891514
    40  C   -0.305542
    41  C    0.017095
    42  S   -0.268154
    43  H    0.182144
    44  H    0.170137
    45  H    0.161928
    46  C   -0.631961
    47  O   -0.112011
    48  C   -0.347125
    49  H    0.157003
    50  C   -0.308150
    51  H    0.187499
    52  H    0.157798
    53  H    0.183669
    54  H    0.158634
 Sum of Mulliken charges =  -0.00000

 Dipole moment (field-independent basis, Debye):
    X=              3.1146    Y=             -0.5217    Z=              0.2123  Tot=              3.1651
 Quadrupole moment (field-independent basis, Debye-Ang):
   XX=           -215.6942   YY=           -209.3896   ZZ=           -216.4871
   XY=             -4.5190   XZ=             -2.4640   YZ=             13.2345

 Normal termination of Gaussian 16 at Mon Nov 30 02:52:02 2020.
