 Gaussian 16, Revision C.01,
 Gaussian 16:  ES64L-G16RevC.01  3-Jul-2019

 --------------------------------------
 # opt=modredundant wb97xd/6-311+g(d,p)
 --------------------------------------

 ------------
 NDI_-110.pdb
 ------------
 Symbolic Z-matrix:
 Charge =  0 Multiplicity = 1

 SCF Done:  E(RwB97XD) =  -2358.76359888     A.U. after   20 cycles
 SCF Done:  E(RwB97XD) =  -2358.77202403     A.U. after   17 cycles
 SCF Done:  E(RwB97XD) =  -2358.77304788     A.U. after   17 cycles
 SCF Done:  E(RwB97XD) =  -2358.77312799     A.U. after   17 cycles
 SCF Done:  E(RwB97XD) =  -2358.77330579     A.U. after   15 cycles
 SCF Done:  E(RwB97XD) =  -2358.77332118     A.U. after   14 cycles
 SCF Done:  E(RwB97XD) =  -2358.77333365     A.U. after   14 cycles
 SCF Done:  E(RwB97XD) =  -2358.77333684     A.U. after   13 cycles
 SCF Done:  E(RwB97XD) =  -2358.77333747     A.U. after   12 cycles
 SCF Done:  E(RwB97XD) =  -2358.77333787     A.U. after   11 cycles
 SCF Done:  E(RwB97XD) =  -2358.77333797     A.U. after   11 cycles
 SCF Done:  E(RwB97XD) =  -2358.77333807     A.U. after   11 cycles
 SCF Done:  E(RwB97XD) =  -2358.77333808     A.U. after    9 cycles
 Optimization completed.
    -- Stationary point found.

                         Standard orientation:
 ---------------------------------------------------------------------
 Center     Atomic      Atomic             Coordinates (Angstroms)
 Number     Number       Type             X           Y           Z
 ---------------------------------------------------------------------
      1          6           0       -3.352220   -2.794011    0.213052
      2          6           0       -2.667558   -1.485830    0.037358
      3          6           0       -3.401165   -0.285516    0.116625
      4          6           0       -4.790294   -0.306687    0.359073
      5          6           0       -5.501978   -1.601971    0.538545
      6          6           0       -1.321152   -1.450652   -0.206658
      7          6           0       -2.732785    0.943204   -0.068519
      8          6           0       -1.334314    0.965807   -0.311647
      9          6           0       -0.626194   -0.227449   -0.374807
     10          6           0       -0.684062    2.279703   -0.604227
     11          6           0       -2.842631    3.453900   -0.227173
     12          6           0       -3.490069    2.134624   -0.008510
     13          6           0       -4.843189    2.094802    0.236844
     14          6           0       -5.499951    0.868775    0.423416
     15          1           0       -6.565840    0.830464    0.611466
     16          1           0       -5.389585    3.029119    0.276782
     17          1           0       -0.766869   -2.380384   -0.253288
     18          7           0       -1.485573    3.426500   -0.530067
     19          7           0       -4.728015   -2.761557    0.440494
     20          8           0       -2.760784   -3.848484    0.172907
     21          8           0       -6.691020   -1.652367    0.755027
     22          8           0       -3.462334    4.491769   -0.157954
     23          8           0        0.483240    2.397284   -0.887846
     24          6           0       -0.804019    4.693383   -0.795337
     25          1           0        0.003795    4.834818   -0.077223
     26          1           0       -0.376821    4.678736   -1.797931
     27          1           0       -1.534765    5.491344   -0.705407
     28          6           0       -5.383379   -4.057790    0.611828
     29          1           0       -5.218609   -4.671451   -0.273708
     30          1           0       -4.961814   -4.573584    1.474916
     31          1           0       -6.444482   -3.880559    0.758952
     32          6           0        0.835217   -0.333693   -0.568342
     33          6           0        1.479108   -0.791868   -1.677995
     34         16           0        1.925378   -0.009351    0.725394
     35          6           0        2.887564   -0.842265   -1.494611
     36          1           0        0.964673   -1.054750   -2.591645
     37          6           0        3.304008   -0.454138   -0.241523
     38          8           0        3.798192   -1.240410   -2.414740
     39          6           0        4.660444   -0.410302    0.264256
     40          6           0        3.332886   -1.510804   -3.719823
     41          6           0        5.070662   -0.036792    1.525217
     42         16           0        6.046062   -0.835323   -0.701555
     43          1           0        4.213189   -1.759609   -4.309967
     44          1           0        2.642552   -2.361767   -3.727279
     45          1           0        2.840394   -0.633698   -4.153727
     46          6           0        6.479555   -0.088931    1.714720
     47          8           0        4.150542    0.339061    2.446284
     48          6           0        7.123632   -0.504877    0.589320
     49          1           0        6.987983    0.166650    2.633246
     50          6           0        4.615376    0.678630    3.734927
     51          1           0        8.185996   -0.636358    0.450859
     52          1           0        5.286270    1.544089    3.699486
     53          1           0        3.732237    0.932825    4.318597
     54          1           0        5.130124   -0.166036    4.206004
 ---------------------------------------------------------------------

 The electronic state is 1-A.
 Alpha  occ. eigenvalues --  -89.04286 -89.04059 -19.28487 -19.28486 -19.25263
 Alpha  occ. eigenvalues --  -19.25213 -19.24884 -19.24808 -14.50812 -14.50445
 Alpha  occ. eigenvalues --  -10.43063 -10.42841 -10.42677 -10.42665 -10.35200
 Alpha  occ. eigenvalues --  -10.34815 -10.34699 -10.34693 -10.34651 -10.34471
 Alpha  occ. eigenvalues --  -10.34177 -10.34168 -10.34134 -10.34076 -10.34059
 Alpha  occ. eigenvalues --  -10.33179 -10.33118 -10.33088 -10.32724 -10.32401
 Alpha  occ. eigenvalues --  -10.32072 -10.32008 -10.31808 -10.31144 -10.29464
 Alpha  occ. eigenvalues --  -10.29125  -8.08301  -8.08082  -6.03160  -6.02925
 Alpha  occ. eigenvalues --   -6.02760  -6.02529  -6.02357  -6.02171  -1.19726
 Alpha  occ. eigenvalues --   -1.19481  -1.18223  -1.18138  -1.17822  -1.17548
 Alpha  occ. eigenvalues --   -1.06984  -1.06570  -1.03524  -1.00174  -0.98608
 Alpha  occ. eigenvalues --   -0.97190  -0.95016  -0.90539  -0.88956  -0.87047
 Alpha  occ. eigenvalues --   -0.85668  -0.85430  -0.84210  -0.82692  -0.82275
 Alpha  occ. eigenvalues --   -0.81289  -0.79364  -0.78157  -0.77056  -0.75804
 Alpha  occ. eigenvalues --   -0.75311  -0.74455  -0.70111  -0.68660  -0.67746
 Alpha  occ. eigenvalues --   -0.66850  -0.65640  -0.64555  -0.64486  -0.63102
 Alpha  occ. eigenvalues --   -0.62889  -0.60918  -0.59941  -0.59332  -0.59080
 Alpha  occ. eigenvalues --   -0.57899  -0.57834  -0.57467  -0.57002  -0.56660
 Alpha  occ. eigenvalues --   -0.56350  -0.56182  -0.55618  -0.55385  -0.54204
 Alpha  occ. eigenvalues --   -0.53971  -0.53744  -0.53458  -0.53113  -0.52490
 Alpha  occ. eigenvalues --   -0.51706  -0.51320  -0.51184  -0.50396  -0.50062
 Alpha  occ. eigenvalues --   -0.49697  -0.49593  -0.49225  -0.48916  -0.48462
 Alpha  occ. eigenvalues --   -0.48349  -0.46984  -0.46685  -0.45873  -0.45030
 Alpha  occ. eigenvalues --   -0.44164  -0.43570  -0.42031  -0.41276  -0.41014
 Alpha  occ. eigenvalues --   -0.40829  -0.40504  -0.39781  -0.38619  -0.37607
 Alpha  occ. eigenvalues --   -0.37552  -0.37154  -0.36894  -0.36006  -0.35002
 Alpha  occ. eigenvalues --   -0.33514  -0.31433  -0.31087  -0.25302
 Alpha virt. eigenvalues --   -0.07308  -0.00059   0.00560   0.02203   0.02827
 Alpha virt. eigenvalues --    0.04989   0.05960   0.06199   0.06587   0.06884
 Alpha virt. eigenvalues --    0.07277   0.07440   0.07589   0.07613   0.08003

 Mulliken charges:
               1
     1  C    0.450732
     2  C    0.071650
     3  C    0.137484
     4  C    0.231409
     5  C    0.341779
     6  C   -0.759171
     7  C    0.149559
     8  C   -0.082700
     9  C    0.285896
    10  C   -0.115480
    11  C    0.364233
    12  C    0.199110
    13  C   -0.588547
    14  C   -0.785474
    15  H    0.189010
    16  H    0.189899
    17  H    0.198961
    18  N   -0.091123
    19  N   -0.094391
    20  O   -0.257489
    21  O   -0.268461
    22  O   -0.270405
    23  O   -0.137133
    24  C   -0.289832
    25  H    0.199581
    26  H    0.195497
    27  H    0.201782
    28  C   -0.284324
    29  H    0.192696
    30  H    0.195698
    31  H    0.200947
    32  C    0.384898
    33  C   -0.586618
    34  S   -0.278478
    35  C   -0.176917
    36  H    0.144738
    37  C    0.260443
    38  O   -0.100719
    39  C    0.933378
    40  C   -0.307094
    41  C    0.037030
    42  S   -0.279358
    43  H    0.181725
    44  H    0.157521
    45  H    0.167662
    46  C   -0.534113
    47  O   -0.126315
    48  C   -0.377643
    49  H    0.154086
    50  C   -0.299869
    51  H    0.184208
    52  H    0.155979
    53  H    0.177712
    54  H    0.156351
 Sum of Mulliken charges =  -0.00000

 Dipole moment (field-independent basis, Debye):
    X=              1.1054    Y=              0.0845    Z=             -0.0564  Tot=              1.1100
 Quadrupole moment (field-independent basis, Debye-Ang):
   XX=           -217.2508   YY=           -230.1626   ZZ=           -196.8316
   XY=              5.2659   XZ=             10.0627   YZ=              7.0011

 Normal termination of Gaussian 16 at Sun Nov 29 21:43:15 2020.
