 Gaussian 16, Revision C.01,
 Gaussian 16:  ES64L-G16RevC.01  3-Jul-2019

 --------------------------------------
 # opt=modredundant wb97xd/6-311+g(d,p)
 --------------------------------------

 ----------
 NDI_-5.pdb
 ----------
 Symbolic Z-matrix:
 Charge =  0 Multiplicity = 1

 SCF Done:  E(RwB97XD) =  -2358.75418052     A.U. after   19 cycles
 SCF Done:  E(RwB97XD) =  -2358.74563235     A.U. after   19 cycles
 SCF Done:  E(RwB97XD) =  -2358.76486717     A.U. after   16 cycles
 SCF Done:  E(RwB97XD) =  -2358.76791414     A.U. after   17 cycles
 SCF Done:  E(RwB97XD) =  -2358.76833279     A.U. after   17 cycles
 SCF Done:  E(RwB97XD) =  -2358.76875792     A.U. after   17 cycles
 SCF Done:  E(RwB97XD) =  -2358.76883305     A.U. after   14 cycles
 SCF Done:  E(RwB97XD) =  -2358.76888300     A.U. after   14 cycles
 SCF Done:  E(RwB97XD) =  -2358.76889785     A.U. after   13 cycles
 SCF Done:  E(RwB97XD) =  -2358.76890220     A.U. after   14 cycles
 SCF Done:  E(RwB97XD) =  -2358.76890339     A.U. after   11 cycles
 SCF Done:  E(RwB97XD) =  -2358.76890385     A.U. after   11 cycles
 SCF Done:  E(RwB97XD) =  -2358.76890403     A.U. after   11 cycles
 SCF Done:  E(RwB97XD) =  -2358.76890410     A.U. after   11 cycles
 Optimization completed.
    -- Stationary point found.

                         Standard orientation:
 ---------------------------------------------------------------------
 Center     Atomic      Atomic             Coordinates (Angstroms)
 Number     Number       Type             X           Y           Z
 ---------------------------------------------------------------------
      1          6           0       -2.400190   -3.029252   -0.035588
      2          6           0       -2.166986   -1.560978    0.008073
      3          6           0       -3.248860   -0.661378   -0.064501
      4          6           0       -4.564663   -1.141161   -0.188125
      5          6           0       -4.830541   -2.604617   -0.249193
      6          6           0       -0.894276   -1.093399    0.089740
      7          6           0       -2.977367    0.720594    0.016335
      8          6           0       -1.634721    1.207783    0.120571
      9          6           0       -0.555611    0.296829    0.119766
     10          6           0       -1.486526    2.654881    0.440090
     11          6           0       -3.914197    3.054812    0.100938
     12          6           0       -4.090228    1.592576   -0.027323
     13          6           0       -5.374989    1.110287   -0.167327
     14          6           0       -5.622583   -0.262587   -0.249230
     15          1           0       -6.629056   -0.648559   -0.349945
     16          1           0       -6.187508    1.825521   -0.202970
     17          1           0       -0.113586   -1.843177    0.101329
     18          7           0       -2.619977    3.474886    0.372647
     19          7           0       -3.721477   -3.451692   -0.158855
     20          8           0       -1.498933   -3.835222    0.022525
     21          8           0       -5.950797   -3.045693   -0.366599
     22          8           0       -4.836288    3.835636    0.006828
     23          8           0       -0.438952    3.181983    0.749572
     24          6           0       -2.394834    4.896048    0.633388
     25          1           0       -1.981479    5.027849    1.633060
     26          1           0       -1.685267    5.298338   -0.090044
     27          1           0       -3.350544    5.403834    0.545274
     28          6           0       -3.935943   -4.897127   -0.208739
     29          1           0       -3.385908   -5.321664   -1.048640
     30          1           0       -3.573147   -5.355239    0.711653
     31          1           0       -5.000830   -5.074840   -0.324506
     32          6           0        0.879203    0.565634   -0.037256
     33          6           0        1.582380    1.717122   -0.311517
     34         16           0        2.000665   -0.757853    0.204734
     35          6           0        2.974314    1.527818   -0.362313
     36          1           0        1.113200    2.668760   -0.475054
     37          6           0        3.381438    0.233905   -0.093631
     38          8           0        3.898423    2.476189   -0.636548
     39          6           0        4.732571   -0.271529   -0.053344
     40          6           0        3.445486    3.810930   -0.759398
     41          6           0        5.131176   -1.566777    0.210934
     42         16           0        6.130247    0.727700   -0.344811
     43          1           0        4.336736    4.419360   -0.901586
     44          1           0        2.786522    3.925247   -1.626786
     45          1           0        2.919305    4.133489    0.144874
     46          6           0        6.539920   -1.753350    0.179620
     47          8           0        4.202550   -2.511670    0.469637
     48          6           0        7.193258   -0.593108   -0.109126
     49          1           0        7.041726   -2.692853    0.360407
     50          6           0        4.649866   -3.832948    0.699895
     51          1           0        8.259274   -0.446509   -0.196235
     52          1           0        5.293147   -3.882662    1.584837
     53          1           0        3.755030   -4.428626    0.869667
     54          1           0        5.187354   -4.224029   -0.170414
 ---------------------------------------------------------------------

 The electronic state is 1-A.
 Alpha  occ. eigenvalues --  -89.05088 -89.05034 -19.29443 -19.29014 -19.24885
 Alpha  occ. eigenvalues --  -19.24880 -19.24369 -19.24241 -14.50465 -14.50047
 Alpha  occ. eigenvalues --  -10.42653 -10.42489 -10.42481 -10.41940 -10.35939
 Alpha  occ. eigenvalues --  -10.35889 -10.35462 -10.34753 -10.34307 -10.34239
 Alpha  occ. eigenvalues --  -10.34046 -10.33636 -10.33599 -10.33491 -10.33474
 Alpha  occ. eigenvalues --  -10.33451 -10.33203 -10.32755 -10.32649 -10.32322
 Alpha  occ. eigenvalues --  -10.32251 -10.32242 -10.32148 -10.31916 -10.30026
 Alpha  occ. eigenvalues --  -10.29791  -8.09136  -8.09053  -6.03986  -6.03895
 Alpha  occ. eigenvalues --   -6.03582  -6.03499  -6.03205  -6.03142  -1.19374
 Alpha  occ. eigenvalues --   -1.19189  -1.19121  -1.18739  -1.17456  -1.17043
 Alpha  occ. eigenvalues --   -1.06625  -1.06130  -1.02877  -1.00862  -0.99218
 Alpha  occ. eigenvalues --   -0.96973  -0.94411  -0.90538  -0.88446  -0.87644
 Alpha  occ. eigenvalues --   -0.86199  -0.85129  -0.85010  -0.82959  -0.82201
 Alpha  occ. eigenvalues --   -0.81500  -0.79764  -0.78357  -0.76806  -0.75329
 Alpha  occ. eigenvalues --   -0.75147  -0.74109  -0.70337  -0.69069  -0.68018
 Alpha  occ. eigenvalues --   -0.66449  -0.65808  -0.65464  -0.64484  -0.63855
 Alpha  occ. eigenvalues --   -0.62267  -0.60566  -0.59642  -0.59200  -0.58723
 Alpha  occ. eigenvalues --   -0.58449  -0.57660  -0.57577  -0.57217  -0.57093
 Alpha  occ. eigenvalues --   -0.56761  -0.55871  -0.55296  -0.54970  -0.54563
 Alpha  occ. eigenvalues --   -0.53789  -0.53710  -0.53264  -0.53066  -0.51783
 Alpha  occ. eigenvalues --   -0.51543  -0.51156  -0.50924  -0.50673  -0.50408
 Alpha  occ. eigenvalues --   -0.50139  -0.49504  -0.49394  -0.48775  -0.48330
 Alpha  occ. eigenvalues --   -0.47839  -0.47792  -0.46795  -0.45977  -0.45269
 Alpha  occ. eigenvalues --   -0.44741  -0.44209  -0.42598  -0.41969  -0.41508
 Alpha  occ. eigenvalues --   -0.41013  -0.39967  -0.39474  -0.38418  -0.37943
 Alpha  occ. eigenvalues --   -0.37196  -0.37076  -0.36624  -0.36271  -0.34505
 Alpha  occ. eigenvalues --   -0.33149  -0.31942  -0.31799  -0.25758
 Alpha virt. eigenvalues --   -0.07139  -0.01345   0.00559   0.02618   0.03729
 Alpha virt. eigenvalues --    0.05312   0.05716   0.06129   0.06777   0.07064
 Alpha virt. eigenvalues --    0.07135   0.07344   0.07872   0.08100   0.08205

 Mulliken charges:
               1
     1  C    0.314242
     2  C    0.053480
     3  C    0.216511
     4  C    0.302873
     5  C    0.316904
     6  C    0.180773
     7  C    0.231749
     8  C    0.267925
     9  C    0.227856
    10  C   -0.886244
    11  C    0.256407
    12  C    0.162385
    13  C   -0.583783
    14  C   -0.706046
    15  H    0.186451
    16  H    0.188902
    17  H    0.186014
    18  N   -0.049755
    19  N   -0.090173
    20  O   -0.269322
    21  O   -0.265205
    22  O   -0.276545
    23  O   -0.259012
    24  C   -0.252188
    25  H    0.199173
    26  H    0.188594
    27  H    0.201871
    28  C   -0.280284
    29  H    0.192587
    30  H    0.192534
    31  H    0.199262
    32  C   -0.000508
    33  C    0.027422
    34  S   -0.699432
    35  C   -0.755198
    36  H    0.178871
    37  C    0.469918
    38  O   -0.107264
    39  C    1.064371
    40  C   -0.319443
    41  C    0.061042
    42  S   -0.247656
    43  H    0.182705
    44  H    0.157721
    45  H    0.178753
    46  C   -0.586826
    47  O   -0.108003
    48  C   -0.384816
    49  H    0.157915
    50  C   -0.311165
    51  H    0.189169
    52  H    0.157058
    53  H    0.187466
    54  H    0.159960
 Sum of Mulliken charges =  -0.00000

 Dipole moment (field-independent basis, Debye):
    X=              3.8145    Y=             -0.5974    Z=             -0.1025  Tot=              3.8623
 Quadrupole moment (field-independent basis, Debye-Ang):
   XX=           -214.1231   YY=           -204.2108   ZZ=           -222.0451
   XY=             -4.9969   XZ=             -1.0229   YZ=             -5.3153

 Normal termination of Gaussian 16 at Sun Nov 29 22:16:15 2020.
