 Gaussian 16, Revision C.01,
 Gaussian 16:  ES64L-G16RevC.01  3-Jul-2019

 --------------------------------------
 # opt=modredundant wb97xd/6-311+g(d,p)
 --------------------------------------

 -----------
 NDI_-65.pdb
 -----------
 Symbolic Z-matrix:
 Charge =  0 Multiplicity = 1

 SCF Done:  E(RwB97XD) =  -2358.76729969     A.U. after   20 cycles
 SCF Done:  E(RwB97XD) =  -2358.77285416     A.U. after   17 cycles
 SCF Done:  E(RwB97XD) =  -2358.77360922     A.U. after   16 cycles
 SCF Done:  E(RwB97XD) =  -2358.77380330     A.U. after   16 cycles
 SCF Done:  E(RwB97XD) =  -2358.77381822     A.U. after   16 cycles
 SCF Done:  E(RwB97XD) =  -2358.77384214     A.U. after   14 cycles
 SCF Done:  E(RwB97XD) =  -2358.77384504     A.U. after   14 cycles
 SCF Done:  E(RwB97XD) =  -2358.77384739     A.U. after   15 cycles
 SCF Done:  E(RwB97XD) =  -2358.77384763     A.U. after   13 cycles
 Optimization completed.
    -- Stationary point found.

                         Standard orientation:
 ---------------------------------------------------------------------
 Center     Atomic      Atomic             Coordinates (Angstroms)
 Number     Number       Type             X           Y           Z
 ---------------------------------------------------------------------
      1          6           0        2.928389   -2.883716    0.589629
      2          6           0        2.439781   -1.499907    0.348959
      3          6           0        3.351772   -0.464658    0.061582
      4          6           0        4.735770   -0.725339   -0.001135
      5          6           0        5.254509   -2.099008    0.245368
      6          6           0        1.101426   -1.231818    0.425731
      7          6           0        2.860925    0.837291   -0.173945
      8          6           0        1.466281    1.102643   -0.101078
      9          6           0        0.585949    0.075133    0.225296
     10          6           0        0.988432    2.472401   -0.463695
     11          6           0        3.336337    3.237844   -0.764268
     12          6           0        3.792874    1.854361   -0.480732
     13          6           0        5.140956    1.582444   -0.534361
     14          6           0        5.619539    0.286872   -0.291841
     15          1           0        6.678891    0.066070   -0.333775
     16          1           0        5.821811    2.390903   -0.770802
     17          1           0        0.419258   -2.037005    0.671613
     18          7           0        1.960610    3.439853   -0.753657
     19          7           0        4.306664   -3.086967    0.525140
     20          8           0        2.182357   -3.804593    0.831599
     21          8           0        6.436919   -2.351278    0.204942
     22          8           0        4.113151    4.135596   -1.003263
     23          8           0       -0.176603    2.785122   -0.523577
     24          6           0        1.450778    4.770658   -1.083037
     25          1           0        0.804145    4.711407   -1.958384
     26          1           0        0.867705    5.160179   -0.248388
     27          1           0        2.302034    5.414470   -1.282246
     28          6           0        4.768444   -4.452971    0.769267
     29          1           0        4.442171   -4.779805    1.756550
     30          1           0        4.343611   -5.124703    0.023022
     31          1           0        5.852461   -4.457209    0.707332
     32          6           0       -0.867565    0.234662    0.409679
     33          6           0       -1.515539    0.950330    1.371707
     34         16           0       -1.966583   -0.669113   -0.566860
     35          6           0       -2.921577    0.785820    1.307054
     36          1           0       -1.000629    1.581383    2.081444
     37          6           0       -3.343813   -0.060002    0.303779
     38          8           0       -3.832335    1.371929    2.119196
     39          6           0       -4.704957   -0.407051   -0.044260
     40          6           0       -3.361256    2.336992    3.036405
     41          6           0       -5.118447   -1.285831   -1.021931
     42         16           0       -6.092868    0.279350    0.753392
     43          1           0       -4.241310    2.726224    3.545368
     44          1           0       -2.688102    1.886885    3.774610
     45          1           0       -2.847122    3.154454    2.519393
     46          6           0       -6.531395   -1.407294   -1.130566
     47          8           0       -4.196789   -1.933698   -1.773716
     48          6           0       -7.175026   -0.614655   -0.229380
     49          1           0       -7.042820   -2.046710   -1.835584
     50          6           0       -4.666129   -2.849001   -2.740879
     51          1           0       -8.240199   -0.512454   -0.087693
     52          1           0       -5.282056   -2.347153   -3.495190
     53          1           0       -3.781090   -3.265677   -3.218491
     54          1           0       -5.240824   -3.657074   -2.275199
 ---------------------------------------------------------------------

 The electronic state is 1-A.
 Alpha  occ. eigenvalues --  -89.04653 -89.04236 -19.28675 -19.28589 -19.25177
 Alpha  occ. eigenvalues --  -19.25119 -19.24809 -19.24709 -14.50726 -14.50406
 Alpha  occ. eigenvalues --  -10.42973 -10.42743 -10.42695 -10.42572 -10.35268
 Alpha  occ. eigenvalues --  -10.34983 -10.34913 -10.34616 -10.34545 -10.34319
 Alpha  occ. eigenvalues --  -10.34282 -10.34194 -10.34025 -10.33966 -10.33911
 Alpha  occ. eigenvalues --  -10.33016 -10.32998 -10.32954 -10.32732 -10.32332
 Alpha  occ. eigenvalues --  -10.32321 -10.32105 -10.31991 -10.31341 -10.29523
 Alpha  occ. eigenvalues --  -10.29291  -8.08668  -8.08258  -6.03522  -6.03123
 Alpha  occ. eigenvalues --   -6.03101  -6.02737  -6.02705  -6.02347  -1.19641
 Alpha  occ. eigenvalues --   -1.19427  -1.18380  -1.18287  -1.17733  -1.17477
 Alpha  occ. eigenvalues --   -1.06898  -1.06498  -1.03408  -1.00347  -0.98719
 Alpha  occ. eigenvalues --   -0.97190  -0.94912  -0.90529  -0.88862  -0.87164
 Alpha  occ. eigenvalues --   -0.85774  -0.85399  -0.84404  -0.82713  -0.82198
 Alpha  occ. eigenvalues --   -0.81486  -0.79383  -0.78225  -0.77021  -0.75722
 Alpha  occ. eigenvalues --   -0.75291  -0.74363  -0.70179  -0.68692  -0.67811
 Alpha  occ. eigenvalues --   -0.66771  -0.65594  -0.64848  -0.64611  -0.63227
 Alpha  occ. eigenvalues --   -0.62675  -0.60850  -0.59881  -0.59305  -0.58998
 Alpha  occ. eigenvalues --   -0.58070  -0.57785  -0.57403  -0.57105  -0.56760
 Alpha  occ. eigenvalues --   -0.56397  -0.56097  -0.55536  -0.55338  -0.54220
 Alpha  occ. eigenvalues --   -0.54054  -0.53557  -0.53465  -0.53168  -0.52399
 Alpha  occ. eigenvalues --   -0.51667  -0.51208  -0.51179  -0.50374  -0.50257
 Alpha  occ. eigenvalues --   -0.49781  -0.49601  -0.49242  -0.48948  -0.48405
 Alpha  occ. eigenvalues --   -0.48279  -0.47227  -0.46866  -0.45796  -0.45199
 Alpha  occ. eigenvalues --   -0.44150  -0.43712  -0.42178  -0.41440  -0.41159
 Alpha  occ. eigenvalues --   -0.40936  -0.40426  -0.39766  -0.38659  -0.37667
 Alpha  occ. eigenvalues --   -0.37482  -0.37101  -0.37016  -0.36158  -0.34734
 Alpha  occ. eigenvalues --   -0.33386  -0.31493  -0.31304  -0.25401
 Alpha virt. eigenvalues --   -0.07283  -0.00157   0.00502   0.02201   0.02992
 Alpha virt. eigenvalues --    0.05007   0.05909   0.06116   0.06781   0.06888
 Alpha virt. eigenvalues --    0.07345   0.07477   0.07606   0.07720   0.07846

 Mulliken charges:
               1
     1  C    0.440635
     2  C   -0.033236
     3  C    0.107340
     4  C    0.185122
     5  C    0.336312
     6  C   -0.841949
     7  C    0.179728
     8  C    0.153572
     9  C    0.548980
    10  C   -0.338129
    11  C    0.404585
    12  C    0.103292
    13  C   -0.598429
    14  C   -0.738040
    15  H    0.188297
    16  H    0.189404
    17  H    0.208779
    18  N   -0.100483
    19  N   -0.095571
    20  O   -0.259121
    21  O   -0.267419
    22  O   -0.272736
    23  O   -0.109987
    24  C   -0.282146
    25  H    0.198763
    26  H    0.193473
    27  H    0.202397
    28  C   -0.282287
    29  H    0.193623
    30  H    0.194412
    31  H    0.200927
    32  C    0.132723
    33  C   -0.294684
    34  S   -0.448542
    35  C   -0.280988
    36  H    0.149378
    37  C    0.470355
    38  O   -0.106481
    39  C    0.893476
    40  C   -0.295366
    41  C   -0.001922
    42  S   -0.274982
    43  H    0.181562
    44  H    0.155914
    45  H    0.172959
    46  C   -0.516220
    47  O   -0.116042
    48  C   -0.359865
    49  H    0.154820
    50  C   -0.304705
    51  H    0.185032
    52  H    0.157353
    53  H    0.179227
    54  H    0.156891
 Sum of Mulliken charges =  -0.00000

 Dipole moment (field-independent basis, Debye):
    X=             -1.5794    Y=             -0.0777    Z=              0.0811  Tot=              1.5834
 Quadrupole moment (field-independent basis, Debye-Ang):
   XX=           -217.8119   YY=           -218.3471   ZZ=           -207.4432
   XY=              2.2529   XZ=              7.1352   YZ=             15.9853

 Normal termination of Gaussian 16 at Sun Nov 29 20:22:57 2020.
