 Gaussian 16, Revision C.01,
 Gaussian 16:  ES64L-G16RevC.01  3-Jul-2019

 --------------------------------------
 # opt=modredundant wb97xd/6-311+g(d,p)
 --------------------------------------

 -----------
 NDI_-90.pdb
 -----------
 Symbolic Z-matrix:
 Charge =  0 Multiplicity = 1

 SCF Done:  E(RwB97XD) =  -2358.76465152     A.U. after   19 cycles
 SCF Done:  E(RwB97XD) =  -2358.77242129     A.U. after   16 cycles
 SCF Done:  E(RwB97XD) =  -2358.77314649     A.U. after   15 cycles
 SCF Done:  E(RwB97XD) =  -2358.77324062     A.U. after   14 cycles
 SCF Done:  E(RwB97XD) =  -2358.77331822     A.U. after   14 cycles
 SCF Done:  E(RwB97XD) =  -2358.77332719     A.U. after   13 cycles
 SCF Done:  E(RwB97XD) =  -2358.77332951     A.U. after   13 cycles
 SCF Done:  E(RwB97XD) =  -2358.77333151     A.U. after   11 cycles
 SCF Done:  E(RwB97XD) =  -2358.77333186     A.U. after   11 cycles
 SCF Done:  E(RwB97XD) =  -2358.77333228     A.U. after   10 cycles
 SCF Done:  E(RwB97XD) =  -2358.77333241     A.U. after   10 cycles
 SCF Done:  E(RwB97XD) =  -2358.77333248     A.U. after    9 cycles
 SCF Done:  E(RwB97XD) =  -2358.77333250     A.U. after    8 cycles
 Optimization completed.
    -- Stationary point found.

                         Standard orientation:
 ---------------------------------------------------------------------
 Center     Atomic      Atomic             Coordinates (Angstroms)
 Number     Number       Type             X           Y           Z
 ---------------------------------------------------------------------
      1          6           0        3.236726   -2.837385    0.282599
      2          6           0        2.606331   -1.492428    0.213220
      3          6           0        3.395370   -0.351766   -0.033693
      4          6           0        4.789151   -0.467660   -0.217155
      5          6           0        5.447782   -1.801237   -0.148933
      6          6           0        1.256397   -1.363299    0.402116
      7          6           0        2.776445    0.914792   -0.092386
      8          6           0        1.374581    1.032593    0.096420
      9          6           0        0.615710   -0.101409    0.350803
     10          6           0        0.755244    2.391954    0.022850
     11          6           0        2.985527    3.404667   -0.405900
     12          6           0        3.585348    2.046984   -0.338405
     13          6           0        4.942768    1.914001   -0.517188
     14          6           0        5.551229    0.650716   -0.456602
     15          1           0        6.619700    0.539803   -0.594504
     16          1           0        5.530119    2.804675   -0.703689
     17          1           0        0.661570   -2.247994    0.595894
     18          7           0        1.609339    3.476483   -0.216981
     19          7           0        4.619061   -2.897370    0.104623
     20          8           0        2.598313   -3.845752    0.478829
     21          8           0        6.640328   -1.932512   -0.303375
     22          8           0        3.655045    4.391871   -0.613108
     23          8           0       -0.427289    2.594334    0.153848
     24          6           0        0.964578    4.787949   -0.282796
     25          1           0        0.224875    4.795317   -1.083351
     26          1           0        0.456837    4.996572    0.658876
     27          1           0        1.735005    5.529598   -0.470790
     28          6           0        5.220733   -4.228428    0.177936
     29          1           0        5.002275   -4.676663    1.147105
     30          1           0        4.802822   -4.865852   -0.601586
     31          1           0        6.292641   -4.120005    0.042873
     32          6           0       -0.846828   -0.097464    0.578470
     33          6           0       -1.494058    0.032617    1.768257
     34         16           0       -1.934743   -0.381827   -0.726008
     35          6           0       -2.904292   -0.071728    1.620916
     36          1           0       -0.981678    0.218976    2.701373
     37          6           0       -3.319172   -0.297326    0.328764
     38          8           0       -3.818526    0.020377    2.616005
     39          6           0       -4.677532   -0.449375   -0.150624
     40          6           0       -3.352659    0.378458    3.899533
     41          6           0       -5.085143   -0.694660   -1.443216
     42         16           0       -6.068576   -0.328701    0.890258
     43          1           0       -4.234761    0.447375    4.533807
     44          1           0       -2.677363   -0.383870    4.303983
     45          1           0       -2.842894    1.347911    3.878863
     46          6           0       -6.496446   -0.784329   -1.598187
     47          8           0       -4.160218   -0.822399   -2.425786
     48          6           0       -7.145145   -0.605303   -0.414382
     49          1           0       -7.003221   -0.971614   -2.533945
     50          6           0       -4.624100   -1.107447   -3.727840
     51          1           0       -8.210047   -0.623498   -0.239127
     52          1           0       -5.266618   -0.304081   -4.104949
     53          1           0       -3.737947   -1.183010   -4.355745
     54          1           0       -5.169518   -2.057262   -3.755365
 ---------------------------------------------------------------------

 The electronic state is 1-A.
 Alpha  occ. eigenvalues --  -89.04327 -89.03985 -19.28414 -19.28411 -19.25293
 Alpha  occ. eigenvalues --  -19.25228 -19.24973 -19.24908 -14.50835 -14.50530
 Alpha  occ. eigenvalues --  -10.43096 -10.42858 -10.42776 -10.42753 -10.35220
 Alpha  occ. eigenvalues --  -10.34798 -10.34740 -10.34734 -10.34599 -10.34546
 Alpha  occ. eigenvalues --  -10.34196 -10.34143 -10.34116 -10.34114 -10.34108
 Alpha  occ. eigenvalues --  -10.33253 -10.33160 -10.33150 -10.32649 -10.32414
 Alpha  occ. eigenvalues --  -10.32146 -10.31882 -10.31738 -10.31061 -10.29316
 Alpha  occ. eigenvalues --  -10.29056  -8.08337  -8.08008  -6.03196  -6.02851
 Alpha  occ. eigenvalues --   -6.02795  -6.02455  -6.02398  -6.02097  -1.19752
 Alpha  occ. eigenvalues --   -1.19571  -1.18147  -1.18058  -1.17848  -1.17640
 Alpha  occ. eigenvalues --   -1.07015  -1.06645  -1.03588  -1.00134  -0.98570
 Alpha  occ. eigenvalues --   -0.97201  -0.95078  -0.90542  -0.89013  -0.87009
 Alpha  occ. eigenvalues --   -0.85634  -0.85457  -0.84139  -0.82741  -0.82176
 Alpha  occ. eigenvalues --   -0.81376  -0.79282  -0.78141  -0.77108  -0.75860
 Alpha  occ. eigenvalues --   -0.75368  -0.74455  -0.70143  -0.68603  -0.67720
 Alpha  occ. eigenvalues --   -0.66893  -0.65570  -0.64702  -0.64465  -0.63008
 Alpha  occ. eigenvalues --   -0.62861  -0.60963  -0.59986  -0.59393  -0.59124
 Alpha  occ. eigenvalues --   -0.57918  -0.57799  -0.57484  -0.56957  -0.56620
 Alpha  occ. eigenvalues --   -0.56403  -0.56142  -0.55667  -0.55400  -0.54224
 Alpha  occ. eigenvalues --   -0.54015  -0.53731  -0.53494  -0.53074  -0.52455
 Alpha  occ. eigenvalues --   -0.51739  -0.51355  -0.51263  -0.50444  -0.50062
 Alpha  occ. eigenvalues --   -0.49685  -0.49541  -0.49152  -0.48956  -0.48475
 Alpha  occ. eigenvalues --   -0.48441  -0.46890  -0.46768  -0.45901  -0.44948
 Alpha  occ. eigenvalues --   -0.44122  -0.43496  -0.41982  -0.41196  -0.41023
 Alpha  occ. eigenvalues --   -0.40740  -0.40560  -0.39833  -0.38699  -0.37631
 Alpha  occ. eigenvalues --   -0.37593  -0.37198  -0.36988  -0.36002  -0.34913
 Alpha  occ. eigenvalues --   -0.33602  -0.31375  -0.31080  -0.25269
 Alpha virt. eigenvalues --   -0.07330  -0.00057   0.00662   0.02403   0.02424
 Alpha virt. eigenvalues --    0.04956   0.06009   0.06220   0.06614   0.06890
 Alpha virt. eigenvalues --    0.07372   0.07408   0.07580   0.07718   0.08035

 Mulliken charges:
               1
     1  C    0.467125
     2  C    0.077974
     3  C    0.209646
     4  C    0.179497
     5  C    0.357567
     6  C   -0.731742
     7  C    0.148497
     8  C   -0.017484
     9  C    0.431781
    10  C   -0.324333
    11  C    0.260241
    12  C    0.206557
    13  C   -0.598041
    14  C   -0.729209
    15  H    0.188884
    16  H    0.189629
    17  H    0.197980
    18  N   -0.111676
    19  N   -0.098071
    20  O   -0.256090
    21  O   -0.267464
    22  O   -0.267143
    23  O   -0.093210
    24  C   -0.303590
    25  H    0.198166
    26  H    0.193977
    27  H    0.202076
    28  C   -0.285329
    29  H    0.193406
    30  H    0.195009
    31  H    0.200273
    32  C    0.220004
    33  C   -0.506856
    34  S   -0.097086
    35  C   -0.096547
    36  H    0.141396
    37  C    0.180664
    38  O   -0.121080
    39  C    0.843525
    40  C   -0.292670
    41  C    0.074872
    42  S   -0.306275
    43  H    0.181233
    44  H    0.154656
    45  H    0.168748
    46  C   -0.561694
    47  O   -0.127308
    48  C   -0.398507
    49  H    0.153861
    50  C   -0.299297
    51  H    0.183501
    52  H    0.156142
    53  H    0.177792
    54  H    0.156023
 Sum of Mulliken charges =  -0.00000

 Dipole moment (field-independent basis, Debye):
    X=             -0.8887    Y=              0.1576    Z=              0.0450  Tot=              0.9037
 Quadrupole moment (field-independent basis, Debye-Ang):
   XX=           -218.2639   YY=           -230.2952   ZZ=           -196.0117
   XY=             -1.5727   XZ=              9.6866   YZ=              6.9729

 Normal termination of Gaussian 16 at Sun Nov 29 21:21:45 2020.
