 Gaussian 16, Revision C.01,
 Gaussian 16:  ES64L-G16RevC.01  3-Jul-2019

 --------------------------------------
 # opt=modredundant wb97xd/6-311+g(d,p)
 --------------------------------------

 ----------
 NDI_15.pdb
 ----------
 Symbolic Z-matrix:
 Charge =  0 Multiplicity = 1

 SCF Done:  E(RwB97XD) =  -2358.75257075     A.U. after   19 cycles
 SCF Done:  E(RwB97XD) =  -2358.74899546     A.U. after   20 cycles
 SCF Done:  E(RwB97XD) =  -2358.76613560     A.U. after   17 cycles
 SCF Done:  E(RwB97XD) =  -2358.76777136     A.U. after   17 cycles
 SCF Done:  E(RwB97XD) =  -2358.76869095     A.U. after   17 cycles
 SCF Done:  E(RwB97XD) =  -2358.76902387     A.U. after   15 cycles
 SCF Done:  E(RwB97XD) =  -2358.76922502     A.U. after   16 cycles
 SCF Done:  E(RwB97XD) =  -2358.76946197     A.U. after   15 cycles
 SCF Done:  E(RwB97XD) =  -2358.76977758     A.U. after   15 cycles
 SCF Done:  E(RwB97XD) =  -2358.77006229     A.U. after   17 cycles
 SCF Done:  E(RwB97XD) =  -2358.77014820     A.U. after   14 cycles
 SCF Done:  E(RwB97XD) =  -2358.77023784     A.U. after   14 cycles
 SCF Done:  E(RwB97XD) =  -2358.77025940     A.U. after   14 cycles
 SCF Done:  E(RwB97XD) =  -2358.77027095     A.U. after   13 cycles
 SCF Done:  E(RwB97XD) =  -2358.77027216     A.U. after   12 cycles
 SCF Done:  E(RwB97XD) =  -2358.77027290     A.U. after   13 cycles
 SCF Done:  E(RwB97XD) =  -2358.77027316     A.U. after   11 cycles
 SCF Done:  E(RwB97XD) =  -2358.77027323     A.U. after   10 cycles
 Optimization completed.
    -- Stationary point found.

                         Standard orientation:
 ---------------------------------------------------------------------
 Center     Atomic      Atomic             Coordinates (Angstroms)
 Number     Number       Type             X           Y           Z
 ---------------------------------------------------------------------
      1          6           0       -2.475814   -3.012636    0.242815
      2          6           0       -2.205316   -1.554828    0.124197
      3          6           0       -3.268175   -0.629914    0.090286
      4          6           0       -4.600300   -1.075533    0.162595
      5          6           0       -4.904150   -2.528514    0.275975
      6          6           0       -0.918956   -1.119770    0.063589
      7          6           0       -2.963390    0.741165   -0.045751
      8          6           0       -1.607452    1.194299   -0.106710
      9          6           0       -0.555516    0.260016   -0.031148
     10          6           0       -1.400877    2.626301   -0.467287
     11          6           0       -3.838296    3.085654   -0.314118
     12          6           0       -4.055874    1.636720   -0.111927
     13          6           0       -5.356801    1.188319   -0.020814
     14          6           0       -5.639054   -0.173644    0.118149
     15          1           0       -6.658235   -0.533828    0.178770
     16          1           0       -6.154017    1.919652   -0.072004
     17          1           0       -0.147784   -1.876496    0.135989
     18          7           0       -2.521039    3.465919   -0.528305
     19          7           0       -3.812395   -3.401952    0.288589
     20          8           0       -1.592085   -3.836701    0.312105
     21          8           0       -6.039492   -2.939700    0.348791
     22          8           0       -4.747174    3.887285   -0.321670
     23          8           0       -0.320563    3.121737   -0.704487
     24          6           0       -2.248302    4.868388   -0.839958
     25          1           0       -1.587591    5.295477   -0.085134
     26          1           0       -1.757875    4.942307   -1.810291
     27          1           0       -3.197562    5.395466   -0.850968
     28          6           0       -4.063761   -4.837808    0.402295
     29          1           0       -3.607125   -5.356783   -0.440378
     30          1           0       -3.623476   -5.218722    1.324222
     31          1           0       -5.138671   -4.991229    0.405743
     32          6           0        0.879483    0.513123    0.135383
     33          6           0        1.572191    1.634311    0.524788
     34         16           0        1.998971   -0.767170   -0.266074
     35          6           0        2.966695    1.450783    0.539861
     36          1           0        1.095076    2.555769    0.804324
     37          6           0        3.378081    0.197433    0.123670
     38          8           0        3.890393    2.377269    0.882352
     39          6           0        4.732477   -0.288752    0.007480
     40          6           0        3.419983    3.606625    1.399125
     41          6           0        5.135364   -1.547144   -0.392129
     42         16           0        6.128322    0.688047    0.373858
     43          1           0        4.306046    4.191937    1.637914
     44          1           0        2.817859    4.142137    0.657576
     45          1           0        2.829944    3.450651    2.308748
     46          6           0        6.545703   -1.724143   -0.402996
     47          8           0        4.208251   -2.471952   -0.722199
     48          6           0        7.196406   -0.593193   -0.010985
     49          1           0        7.050561   -2.636710   -0.684982
     50          6           0        4.663804   -3.736392   -1.160184
     51          1           0        8.262728   -0.447058    0.072831
     52          1           0        5.237961   -4.241977   -0.376508
     53          1           0        3.771266   -4.317436   -1.384278
     54          1           0        5.274681   -3.643640   -2.064427
 ---------------------------------------------------------------------

 The electronic state is 1-A.
 Alpha  occ. eigenvalues --  -89.05059 -89.04945 -19.29371 -19.28998 -19.24897
 Alpha  occ. eigenvalues --  -19.24893 -19.24315 -19.24273 -14.50475 -14.50048
 Alpha  occ. eigenvalues --  -10.42672 -10.42492 -10.42461 -10.41981 -10.35824
 Alpha  occ. eigenvalues --  -10.35739 -10.35446 -10.34719 -10.34351 -10.34268
 Alpha  occ. eigenvalues --  -10.34061 -10.33675 -10.33537 -10.33513 -10.33502
 Alpha  occ. eigenvalues --  -10.33291 -10.33256 -10.32676 -10.32653 -10.32376
 Alpha  occ. eigenvalues --  -10.32303 -10.32154 -10.32146 -10.31893 -10.29945
 Alpha  occ. eigenvalues --  -10.29871  -8.09101  -8.08965  -6.03950  -6.03808
 Alpha  occ. eigenvalues --   -6.03549  -6.03411  -6.03172  -6.03054  -1.19389
 Alpha  occ. eigenvalues --   -1.19108  -1.19100  -1.18732  -1.17470  -1.17046
 Alpha  occ. eigenvalues --   -1.06637  -1.06121  -1.02913  -1.00812  -0.99167
 Alpha  occ. eigenvalues --   -0.96990  -0.94443  -0.90527  -0.88465  -0.87595
 Alpha  occ. eigenvalues --   -0.86166  -0.85129  -0.84980  -0.82908  -0.82201
 Alpha  occ. eigenvalues --   -0.81496  -0.79727  -0.78346  -0.76793  -0.75349
 Alpha  occ. eigenvalues --   -0.75130  -0.74127  -0.70303  -0.69026  -0.67975
 Alpha  occ. eigenvalues --   -0.66459  -0.65801  -0.65392  -0.64467  -0.63802
 Alpha  occ. eigenvalues --   -0.62309  -0.60573  -0.59629  -0.59164  -0.58692
 Alpha  occ. eigenvalues --   -0.58431  -0.57620  -0.57568  -0.57214  -0.57102
 Alpha  occ. eigenvalues --   -0.56724  -0.55801  -0.55335  -0.54986  -0.54524
 Alpha  occ. eigenvalues --   -0.53823  -0.53685  -0.53228  -0.53075  -0.51749
 Alpha  occ. eigenvalues --   -0.51668  -0.51121  -0.50927  -0.50516  -0.50475
 Alpha  occ. eigenvalues --   -0.50146  -0.49485  -0.49385  -0.48747  -0.48318
 Alpha  occ. eigenvalues --   -0.47821  -0.47759  -0.46918  -0.45931  -0.45262
 Alpha  occ. eigenvalues --   -0.44638  -0.44190  -0.42549  -0.41853  -0.41535
 Alpha  occ. eigenvalues --   -0.41161  -0.39979  -0.39508  -0.38467  -0.37872
 Alpha  occ. eigenvalues --   -0.37220  -0.37052  -0.36641  -0.36256  -0.34484
 Alpha  occ. eigenvalues --   -0.33124  -0.31862  -0.31746  -0.25713
 Alpha virt. eigenvalues --   -0.07149  -0.01142   0.00542   0.02580   0.03662
 Alpha virt. eigenvalues --    0.05298   0.05716   0.06121   0.06775   0.07078
 Alpha virt. eigenvalues --    0.07131   0.07425   0.07832   0.08045   0.08087

 Mulliken charges:
               1
     1  C    0.306961
     2  C    0.030392
     3  C    0.258786
     4  C    0.246586
     5  C    0.325496
     6  C    0.168762
     7  C    0.258339
     8  C    0.332094
     9  C    0.200673
    10  C   -0.886218
    11  C    0.246190
    12  C    0.125186
    13  C   -0.561714
    14  C   -0.677461
    15  H    0.186363
    16  H    0.188702
    17  H    0.189597
    18  N   -0.060808
    19  N   -0.089444
    20  O   -0.268984
    21  O   -0.265140
    22  O   -0.276060
    23  O   -0.242412
    24  C   -0.258247
    25  H    0.188885
    26  H    0.198369
    27  H    0.201361
    28  C   -0.281748
    29  H    0.191296
    30  H    0.194131
    31  H    0.199554
    32  C   -0.160611
    33  C   -0.231863
    34  S   -0.726972
    35  C   -0.416748
    36  H    0.174625
    37  C    0.673917
    38  O   -0.105440
    39  C    0.977881
    40  C   -0.312073
    41  C    0.060726
    42  S   -0.255188
    43  H    0.182539
    44  H    0.172108
    45  H    0.161867
    46  C   -0.626207
    47  O   -0.109436
    48  C   -0.368110
    49  H    0.157665
    50  C   -0.309272
    51  H    0.188649
    52  H    0.158205
    53  H    0.185709
    54  H    0.158537
 Sum of Mulliken charges =  -0.00000

 Dipole moment (field-independent basis, Debye):
    X=              3.5951    Y=             -0.6008    Z=              0.2093  Tot=              3.6509
 Quadrupole moment (field-independent basis, Debye-Ang):
   XX=           -214.8578   YY=           -206.6025   ZZ=           -219.3596
   XY=             -4.8824   XZ=             -0.4219   YZ=             10.1575

 Normal termination of Gaussian 16 at Mon Nov 30 01:10:14 2020.
