 Gaussian 16, Revision C.01,
 Gaussian 16:  ES64L-G16RevC.01  3-Jul-2019

 --------------------------------------
 # opt=modredundant wb97xd/6-311+g(d,p)
 --------------------------------------

 -----------
 NDI_-80.pdb
 -----------
 Symbolic Z-matrix:
 Charge =  0 Multiplicity = 1

 SCF Done:  E(RwB97XD) =  -2358.76540677     A.U. after   19 cycles
 SCF Done:  E(RwB97XD) =  -2358.77262678     A.U. after   16 cycles
 SCF Done:  E(RwB97XD) =  -2358.77329881     A.U. after   14 cycles
 SCF Done:  E(RwB97XD) =  -2358.77338829     A.U. after   14 cycles
 SCF Done:  E(RwB97XD) =  -2358.77344632     A.U. after   14 cycles
 SCF Done:  E(RwB97XD) =  -2358.77345832     A.U. after   12 cycles
 SCF Done:  E(RwB97XD) =  -2358.77346031     A.U. after   13 cycles
 SCF Done:  E(RwB97XD) =  -2358.77346243     A.U. after   11 cycles
 SCF Done:  E(RwB97XD) =  -2358.77346270     A.U. after   11 cycles
 SCF Done:  E(RwB97XD) =  -2358.77346297     A.U. after   10 cycles
 SCF Done:  E(RwB97XD) =  -2358.77346307     A.U. after   10 cycles
 Optimization completed.
    -- Stationary point found.

                         Standard orientation:
 ---------------------------------------------------------------------
 Center     Atomic      Atomic             Coordinates (Angstroms)
 Number     Number       Type             X           Y           Z
 ---------------------------------------------------------------------
      1          6           0        3.137477   -2.845592    0.478451
      2          6           0        2.552891   -1.489146    0.306620
      3          6           0        3.384504   -0.390994    0.010902
      4          6           0        4.777904   -0.561157   -0.125883
      5          6           0        5.391502   -1.906518    0.048216
      6          6           0        1.204017   -1.307202    0.451741
      7          6           0        2.807085    0.886148   -0.151690
      8          6           0        1.405357    1.059369   -0.006232
      9          6           0        0.605729   -0.030816    0.310960
     10          6           0        0.826838    2.418524   -0.241385
     11          6           0        3.101960    3.336951   -0.648498
     12          6           0        3.657496    1.972674   -0.456535
     13          6           0        5.014594    1.787518   -0.585953
     14          6           0        5.581438    0.514733   -0.419150
     15          1           0        6.649033    0.362460   -0.519180
     16          1           0        5.634039    2.644746   -0.819350
     17          1           0        0.578702   -2.158995    0.691798
     18          7           0        1.721127    3.457507   -0.532156
     19          7           0        4.521270   -2.959090    0.343543
     20          8           0        2.462139   -3.818917    0.722223
     21          8           0        6.583321   -2.082977   -0.060140
     22          8           0        3.808361    4.288279   -0.897232
     23          8           0       -0.355077    2.659264   -0.196430
     24          6           0        1.116514    4.772445   -0.744620
     25          1           0        0.416424    4.725928   -1.578729
     26          1           0        0.569990    5.075552    0.148460
     27          1           0        1.914934    5.476807   -0.957332
     28          6           0        5.077888   -4.300024    0.519930
     29          1           0        4.820125   -4.676821    1.509647
     30          1           0        4.660063   -4.974255   -0.228010
     31          1           0        6.155858   -4.233092    0.408108
     32          6           0       -0.854468    0.038914    0.533483
     33          6           0       -1.499504    0.442595    1.661865
     34         16           0       -1.947299   -0.532241   -0.669349
     35          6           0       -2.909149    0.310827    1.545875
     36          1           0       -0.984211    0.836377    2.526303
     37          6           0       -3.328586   -0.202819    0.339694
     38          8           0       -3.820733    0.633294    2.494047
     39          6           0       -4.689022   -0.445407   -0.093604
     40          6           0       -3.350546    1.278929    3.658181
     41          6           0       -5.101341   -0.982341   -1.293326
     42         16           0       -6.077375   -0.064323    0.886558
     43          1           0       -4.230944    1.497819    4.259934
     44          1           0       -2.677485    0.628826    4.228314
     45          1           0       -2.836853    2.214367    3.410958
     46          6           0       -6.513860   -1.086760   -1.425870
     47          8           0       -4.179381   -1.349870   -2.216181
     48          6           0       -7.158696   -0.625504   -0.318768
     49          1           0       -7.024035   -1.482436   -2.292310
     50          6           0       -4.648400   -1.926973   -3.415852
     51          1           0       -8.223542   -0.588600   -0.146108
     52          1           0       -5.280088   -1.226094   -3.972716
     53          1           0       -3.763949   -2.160281   -4.006187
     54          1           0       -5.206815   -2.849048   -3.220263
 ---------------------------------------------------------------------

 The electronic state is 1-A.
 Alpha  occ. eigenvalues --  -89.04432 -89.04033 -19.28464 -19.28453 -19.25268
 Alpha  occ. eigenvalues --  -19.25201 -19.24949 -19.24871 -14.50811 -14.50514
 Alpha  occ. eigenvalues --  -10.43070 -10.42830 -10.42771 -10.42725 -10.35228
 Alpha  occ. eigenvalues --  -10.34795 -10.34757 -10.34703 -10.34662 -10.34501
 Alpha  occ. eigenvalues --  -10.34163 -10.34145 -10.34127 -10.34100 -10.34085
 Alpha  occ. eigenvalues --  -10.33207 -10.33123 -10.33121 -10.32659 -10.32395
 Alpha  occ. eigenvalues --  -10.32152 -10.31975 -10.31793 -10.31115 -10.29340
 Alpha  occ. eigenvalues --  -10.29102  -8.08442  -8.08056  -6.03299  -6.02899
 Alpha  occ. eigenvalues --   -6.02899  -6.02506  -6.02503  -6.02145  -1.19728
 Alpha  occ. eigenvalues --   -1.19548  -1.18193  -1.18108  -1.17822  -1.17613
 Alpha  occ. eigenvalues --   -1.06991  -1.06621  -1.03553  -1.00185  -0.98598
 Alpha  occ. eigenvalues --   -0.97205  -0.95047  -0.90539  -0.88984  -0.87040
 Alpha  occ. eigenvalues --   -0.85654  -0.85461  -0.84198  -0.82740  -0.82161
 Alpha  occ. eigenvalues --   -0.81427  -0.79296  -0.78163  -0.77095  -0.75834
 Alpha  occ. eigenvalues --   -0.75357  -0.74434  -0.70155  -0.68614  -0.67741
 Alpha  occ. eigenvalues --   -0.66870  -0.65554  -0.64777  -0.64500  -0.63047
 Alpha  occ. eigenvalues --   -0.62811  -0.60942  -0.59967  -0.59380  -0.59099
 Alpha  occ. eigenvalues --   -0.57937  -0.57822  -0.57468  -0.56985  -0.56645
 Alpha  occ. eigenvalues --   -0.56396  -0.56146  -0.55635  -0.55395  -0.54217
 Alpha  occ. eigenvalues --   -0.54038  -0.53686  -0.53495  -0.53083  -0.52444
 Alpha  occ. eigenvalues --   -0.51726  -0.51324  -0.51256  -0.50433  -0.50110
 Alpha  occ. eigenvalues --   -0.49681  -0.49580  -0.49153  -0.48981  -0.48468
 Alpha  occ. eigenvalues --   -0.48409  -0.46932  -0.46846  -0.45881  -0.44993
 Alpha  occ. eigenvalues --   -0.44118  -0.43542  -0.42029  -0.41249  -0.41055
 Alpha  occ. eigenvalues --   -0.40769  -0.40544  -0.39825  -0.38702  -0.37646
 Alpha  occ. eigenvalues --   -0.37568  -0.37178  -0.37017  -0.36062  -0.34835
 Alpha  occ. eigenvalues --   -0.33555  -0.31401  -0.31137  -0.25297
 Alpha virt. eigenvalues --   -0.07322  -0.00070   0.00637   0.02264   0.02613
 Alpha virt. eigenvalues --    0.04968   0.05993   0.06179   0.06676   0.06889
 Alpha virt. eigenvalues --    0.07379   0.07433   0.07580   0.07728   0.07975

 Mulliken charges:
               1
     1  C    0.467149
     2  C    0.022782
     3  C    0.188287
     4  C    0.179583
     5  C    0.345963
     6  C   -0.690727
     7  C    0.154450
     8  C    0.055089
     9  C    0.444921
    10  C   -0.357478
    11  C    0.255952
    12  C    0.183335
    13  C   -0.566184
    14  C   -0.720046
    15  H    0.188746
    16  H    0.189307
    17  H    0.201189
    18  N   -0.108788
    19  N   -0.097316
    20  O   -0.257041
    21  O   -0.267423
    22  O   -0.268678
    23  O   -0.086850
    24  C   -0.299130
    25  H    0.197800
    26  H    0.193952
    27  H    0.202082
    28  C   -0.284674
    29  H    0.193570
    30  H    0.194595
    31  H    0.200164
    32  C    0.177478
    33  C   -0.496135
    34  S   -0.213980
    35  C   -0.097433
    36  H    0.142717
    37  C    0.319298
    38  O   -0.122138
    39  C    0.829488
    40  C   -0.293769
    41  C    0.047089
    42  S   -0.304050
    43  H    0.181236
    44  H    0.154333
    45  H    0.169738
    46  C   -0.566479
    47  O   -0.122485
    48  C   -0.386886
    49  H    0.154079
    50  C   -0.301142
    51  H    0.183750
    52  H    0.156548
    53  H    0.178136
    54  H    0.156029
 Sum of Mulliken charges =  -0.00000

 Dipole moment (field-independent basis, Debye):
    X=             -1.0244    Y=              0.1089    Z=              0.0423  Tot=              1.0310
 Quadrupole moment (field-independent basis, Debye-Ang):
   XX=           -218.3084   YY=           -226.1704   ZZ=           -199.8808
   XY=              0.1718   XZ=              8.9202   YZ=             12.5275

 Normal termination of Gaussian 16 at Sun Nov 29 19:57:30 2020.
