 Gaussian 16, Revision C.01,
 Gaussian 16:  ES64L-G16RevC.01  3-Jul-2019

 --------------------------------------
 # opt=modredundant wb97xd/6-311+g(d,p)
 --------------------------------------

 -----------
 NDI_165.pdb
 -----------
 Symbolic Z-matrix:
 Charge =  0 Multiplicity = 1

 SCF Done:  E(RwB97XD) =  -2358.72770691     A.U. after   20 cycles
 SCF Done:  E(RwB97XD) =  -2358.75351281     A.U. after   20 cycles
 SCF Done:  E(RwB97XD) =  -2358.76421091     A.U. after   18 cycles
 SCF Done:  E(RwB97XD) =  -2358.76705807     A.U. after   16 cycles
 SCF Done:  E(RwB97XD) =  -2358.76826586     A.U. after   17 cycles
 SCF Done:  E(RwB97XD) =  -2358.76850844     A.U. after   17 cycles
 SCF Done:  E(RwB97XD) =  -2358.76882584     A.U. after   16 cycles
 SCF Done:  E(RwB97XD) =  -2358.76911564     A.U. after   16 cycles
 SCF Done:  E(RwB97XD) =  -2358.76944444     A.U. after   16 cycles
 SCF Done:  E(RwB97XD) =  -2358.76953759     A.U. after   15 cycles
 SCF Done:  E(RwB97XD) =  -2358.76957558     A.U. after   15 cycles
 SCF Done:  E(RwB97XD) =  -2358.76958601     A.U. after   13 cycles
 SCF Done:  E(RwB97XD) =  -2358.76959088     A.U. after   16 cycles
 SCF Done:  E(RwB97XD) =  -2358.76959349     A.U. after   15 cycles
 SCF Done:  E(RwB97XD) =  -2358.76960013     A.U. after   14 cycles
 SCF Done:  E(RwB97XD) =  -2358.76960026     A.U. after   11 cycles
 SCF Done:  E(RwB97XD) =  -2358.76960037     A.U. after   11 cycles
 Optimization completed.
    -- Stationary point found.

                         Standard orientation:
 ---------------------------------------------------------------------
 Center     Atomic      Atomic             Coordinates (Angstroms)
 Number     Number       Type             X           Y           Z
 ---------------------------------------------------------------------
      1          6           0       -3.425406   -2.707083   -0.232769
      2          6           0       -2.712695   -1.423544    0.001872
      3          6           0       -3.396785   -0.197284   -0.116872
      4          6           0       -4.761284   -0.168157   -0.458321
      5          6           0       -5.500918   -1.436195   -0.702791
      6          6           0       -1.383789   -1.441841    0.300188
      7          6           0       -2.687150    0.995964    0.129012
      8          6           0       -1.300676    0.965232    0.458379
      9          6           0       -0.619529   -0.258330    0.525679
     10          6           0       -0.687010    2.241160    0.918259
     11          6           0       -2.737112    3.505569    0.318776
     12          6           0       -3.400600    2.212288    0.029007
     13          6           0       -4.734479    2.226186   -0.317545
     14          6           0       -5.424035    1.033302   -0.565357
     15          1           0       -6.473470    1.037405   -0.832012
     16          1           0       -5.237083    3.183110   -0.386583
     17          1           0       -0.894953   -2.405936    0.313928
     18          7           0       -1.429512    3.420121    0.778779
     19          7           0       -4.775372   -2.624957   -0.566382
     20          8           0       -2.876896   -3.783229   -0.146826
     21          8           0       -6.672700   -1.445794   -1.002578
     22          8           0       -3.303433    4.568823    0.189131
     23          8           0        0.421129    2.313285    1.398760
     24          6           0       -0.751841    4.650179    1.186103
     25          1           0       -0.471807    4.586821    2.237495
     26          1           0        0.154766    4.784647    0.595763
     27          1           0       -1.436378    5.476971    1.022271
     28          6           0       -5.462312   -3.895145   -0.796438
     29          1           0       -4.967796   -4.440138   -1.600533
     30          1           0       -5.427014   -4.502502    0.108274
     31          1           0       -6.491617   -3.676096   -1.063969
     32          6           0        0.829480   -0.487084    0.641258
     33          6           0        1.393530   -1.696599    0.996806
     34         16           0        2.029052    0.547095   -0.055326
     35          6           0        2.773371   -1.768100    0.736894
     36          1           0        0.835727   -2.498621    1.458511
     37          6           0        3.279746   -0.635074    0.126274
     38          8           0        3.598105   -2.801007    1.030162
     39          6           0        4.647062   -0.395537   -0.274726
     40          6           0        3.009451   -3.982492    1.532537
     41          6           0        5.150215    0.728774   -0.897210
     42         16           0        5.928121   -1.550138   -0.021921
     43          1           0        3.821807   -4.695669    1.659680
     44          1           0        2.530059   -3.805234    2.501697
     45          1           0        2.275461   -4.389230    0.828093
     46          6           0        6.545219    0.664893   -1.164410
     47          8           0        4.324498    1.756065   -1.193215
     48          6           0        7.084008   -0.512807   -0.742228
     49          1           0        7.117471    1.446102   -1.643461
     50          6           0        4.889518    2.902229   -1.795726
     51          1           0        8.113758   -0.827372   -0.820029
     52          1           0        5.329798    2.660813   -2.769216
     53          1           0        4.070096    3.604922   -1.935054
     54          1           0        5.649076    3.354376   -1.149074
 ---------------------------------------------------------------------

 The electronic state is 1-A.
 Alpha  occ. eigenvalues --  -89.04795 -89.04727 -19.29218 -19.29022 -19.25013
 Alpha  occ. eigenvalues --  -19.24985 -19.24322 -19.24245 -14.50569 -14.49990
 Alpha  occ. eigenvalues --  -10.42759 -10.42613 -10.42204 -10.42060 -10.35649
 Alpha  occ. eigenvalues --  -10.35516 -10.35348 -10.34680 -10.34552 -10.34209
 Alpha  occ. eigenvalues --  -10.33878 -10.33744 -10.33611 -10.33579 -10.33372
 Alpha  occ. eigenvalues --  -10.33260 -10.33172 -10.32763 -10.32510 -10.32500
 Alpha  occ. eigenvalues --  -10.32446 -10.32227 -10.31998 -10.31793 -10.30296
 Alpha  occ. eigenvalues --  -10.29814  -8.08816  -8.08729  -6.03659  -6.03581
 Alpha  occ. eigenvalues --   -6.03263  -6.03167  -6.02906  -6.02802  -1.19470
 Alpha  occ. eigenvalues --   -1.19025  -1.18973  -1.18744  -1.17560  -1.17028
 Alpha  occ. eigenvalues --   -1.06711  -1.06126  -1.02999  -1.00685  -0.99067
 Alpha  occ. eigenvalues --   -0.97038  -0.94512  -0.90563  -0.88501  -0.87413
 Alpha  occ. eigenvalues --   -0.86169  -0.85153  -0.84903  -0.82915  -0.82325
 Alpha  occ. eigenvalues --   -0.81080  -0.79891  -0.78376  -0.76735  -0.75413
 Alpha  occ. eigenvalues --   -0.75019  -0.74356  -0.70121  -0.69038  -0.67995
 Alpha  occ. eigenvalues --   -0.66547  -0.65799  -0.65195  -0.64137  -0.63723
 Alpha  occ. eigenvalues --   -0.62796  -0.60559  -0.59636  -0.59028  -0.58880
 Alpha  occ. eigenvalues --   -0.58155  -0.57624  -0.57543  -0.57254  -0.57156
 Alpha  occ. eigenvalues --   -0.56665  -0.55816  -0.55358  -0.55144  -0.54245
 Alpha  occ. eigenvalues --   -0.53902  -0.53624  -0.53483  -0.53089  -0.52342
 Alpha  occ. eigenvalues --   -0.51532  -0.51173  -0.50823  -0.50424  -0.50339
 Alpha  occ. eigenvalues --   -0.50055  -0.49602  -0.49385  -0.48836  -0.48356
 Alpha  occ. eigenvalues --   -0.47937  -0.47667  -0.46662  -0.45776  -0.45402
 Alpha  occ. eigenvalues --   -0.44533  -0.44186  -0.42468  -0.41914  -0.41367
 Alpha  occ. eigenvalues --   -0.41072  -0.39963  -0.39484  -0.38276  -0.37860
 Alpha  occ. eigenvalues --   -0.37280  -0.37148  -0.36512  -0.36313  -0.34578
 Alpha  occ. eigenvalues --   -0.33093  -0.31844  -0.31392  -0.25646
 Alpha virt. eigenvalues --   -0.07137  -0.00959   0.00591   0.02462   0.03577
 Alpha virt. eigenvalues --    0.05233   0.05734   0.06026   0.06737   0.07011
 Alpha virt. eigenvalues --    0.07095   0.07434   0.07764   0.07816   0.08112

 Mulliken charges:
               1
     1  C    0.369628
     2  C    0.001836
     3  C    0.217005
     4  C    0.244917
     5  C    0.316652
     6  C    0.077144
     7  C    0.082585
     8  C    0.216081
     9  C    0.292477
    10  C   -0.540908
    11  C    0.358303
    12  C    0.071145
    13  C   -0.556206
    14  C   -0.716870
    15  H    0.186708
    16  H    0.188473
    17  H    0.178550
    18  N   -0.022416
    19  N   -0.094224
    20  O   -0.269846
    21  O   -0.265060
    22  O   -0.277351
    23  O   -0.212508
    24  C   -0.270858
    25  H    0.199293
    26  H    0.195317
    27  H    0.200437
    28  C   -0.277606
    29  H    0.192517
    30  H    0.192640
    31  H    0.200054
    32  C    0.002991
    33  C   -0.622047
    34  S   -0.750860
    35  C   -0.266939
    36  H    0.154139
    37  C    0.743834
    38  O   -0.114264
    39  C    0.946367
    40  C   -0.296599
    41  C   -0.013627
    42  S   -0.263505
    43  H    0.184306
    44  H    0.159131
    45  H    0.166566
    46  C   -0.584846
    47  O   -0.104782
    48  C   -0.351261
    49  H    0.156608
    50  C   -0.309924
    51  H    0.187651
    52  H    0.157093
    53  H    0.181249
    54  H    0.160812
 Sum of Mulliken charges =  -0.00000

 Dipole moment (field-independent basis, Debye):
    X=              3.1270    Y=             -0.4653    Z=             -0.5612  Tot=              3.2108
 Quadrupole moment (field-independent basis, Debye-Ang):
   XX=           -211.3287   YY=           -212.0123   ZZ=           -218.2151
   XY=             10.5244   XZ=            -10.8349   YZ=             -9.8813

 Normal termination of Gaussian 16 at Mon Nov 30 00:53:59 2020.
