 Gaussian 16, Revision C.01,
 Gaussian 16:  ES64L-G16RevC.01  3-Jul-2019

 --------------------------------------
 # opt=modredundant wb97xd/6-311+g(d,p)
 --------------------------------------

 -----------
 NDI_-30.pdb
 -----------
 Symbolic Z-matrix:
 Charge =  0 Multiplicity = 1

 SCF Done:  E(RwB97XD) =  -2358.76873130     A.U. after   20 cycles
 SCF Done:  E(RwB97XD) =  -2358.77064028     A.U. after   18 cycles
 SCF Done:  E(RwB97XD) =  -2358.77180515     A.U. after   18 cycles
 SCF Done:  E(RwB97XD) =  -2358.77282402     A.U. after   15 cycles
 SCF Done:  E(RwB97XD) =  -2358.77292618     A.U. after   14 cycles
 SCF Done:  E(RwB97XD) =  -2358.77299490     A.U. after   15 cycles
 SCF Done:  E(RwB97XD) =  -2358.77302640     A.U. after   14 cycles
 SCF Done:  E(RwB97XD) =  -2358.77303594     A.U. after   14 cycles
 SCF Done:  E(RwB97XD) =  -2358.77303744     A.U. after   14 cycles
 SCF Done:  E(RwB97XD) =  -2358.77303776     A.U. after   11 cycles
 SCF Done:  E(RwB97XD) =  -2358.77303787     A.U. after    9 cycles
 Optimization completed.
    -- Stationary point found.

                         Standard orientation:
 ---------------------------------------------------------------------
 Center     Atomic      Atomic             Coordinates (Angstroms)
 Number     Number       Type             X           Y           Z
 ---------------------------------------------------------------------
      1          6           0        2.622883   -2.988645    0.356520
      2          6           0        2.279831   -1.551041    0.189744
      3          6           0        3.297878   -0.581887    0.082335
      4          6           0        4.652045   -0.962309    0.133414
      5          6           0        5.026828   -2.392526    0.307849
      6          6           0        0.971638   -1.173107    0.171023
      7          6           0        2.932256    0.769849   -0.094797
      8          6           0        1.559100    1.157524   -0.130689
      9          6           0        0.560524    0.185743    0.034037
     10          6           0        1.261645    2.567342   -0.521763
     11          6           0        3.679666    3.144468   -0.462417
     12          6           0        3.977056    1.713054   -0.227711
     13          6           0        5.298453    1.326778   -0.163722
     14          6           0        5.644879   -0.016516    0.019132
     15          1           0        6.680857   -0.328039    0.064342
     16          1           0        6.061256    2.088801   -0.265882
     17          1           0        0.224365   -1.945742    0.305906
     18          7           0        2.337471    3.459292   -0.631064
     19          7           0        3.977639   -3.311562    0.401567
     20          8           0        1.781116   -3.852462    0.454324
     21          8           0        6.181938   -2.747568    0.363619
     22          8           0        4.548612    3.986303   -0.528760
     23          8           0        0.151184    2.991090   -0.751564
     24          6           0        1.987331    4.837576   -0.971998
     25          1           0        1.470617    4.860857   -1.931263
     26          1           0        1.323627    5.250676   -0.212063
     27          1           0        2.907673    5.411626   -1.020602
     28          6           0        4.298592   -4.728192    0.569467
     29          1           0        3.851227   -5.099714    1.491397
     30          1           0        3.895292   -5.299034   -0.267245
     31          1           0        5.379445   -4.825116    0.606441
     32          6           0       -0.876271    0.415828    0.203370
     33          6           0       -1.541833    1.470438    0.770399
     34         16           0       -1.998551   -0.792773   -0.348742
     35          6           0       -2.940158    1.299944    0.772782
     36          1           0       -1.042546    2.334575    1.175636
     37          6           0       -3.366818    0.121203    0.188711
     38          8           0       -3.850324    2.166590    1.272801
     39          6           0       -4.727971   -0.328512    0.010213
     40          6           0       -3.375432    3.420992    1.720264
     41          6           0       -5.146443   -1.517592   -0.550855
     42         16           0       -6.111927    0.612667    0.494825
     43          1           0       -4.256325    3.992886    2.006217
     44          1           0       -2.720619    3.307149    2.591211
     45          1           0       -2.839125    3.945797    0.922656
     46          6           0       -6.559242   -1.670871   -0.591118
     47          8           0       -4.230190   -2.403069   -1.001566
     48          6           0       -7.196622   -0.591380   -0.058109
     49          1           0       -7.074846   -2.531737   -0.991545
     50          6           0       -4.701141   -3.623242   -1.536782
     51          1           0       -8.261126   -0.441870    0.040934
     52          1           0       -5.322772   -3.452098   -2.422186
     53          1           0       -3.816397   -4.189767   -1.821132
     54          1           0       -5.269472   -4.188275   -0.790289
 ---------------------------------------------------------------------

 The electronic state is 1-A.
 Alpha  occ. eigenvalues --  -89.05015 -89.04773 -19.29211 -19.28917 -19.24958
 Alpha  occ. eigenvalues --  -19.24934 -19.24424 -19.24383 -14.50528 -14.50134
 Alpha  occ. eigenvalues --  -10.42738 -10.42543 -10.42506 -10.42149 -10.35598
 Alpha  occ. eigenvalues --  -10.35499 -10.35382 -10.34624 -10.34337 -10.34318
 Alpha  occ. eigenvalues --  -10.34112 -10.33832 -10.33658 -10.33631 -10.33417
 Alpha  occ. eigenvalues --  -10.33251 -10.33026 -10.32717 -10.32540 -10.32514
 Alpha  occ. eigenvalues --  -10.32469 -10.32186 -10.31969 -10.31947 -10.29909
 Alpha  occ. eigenvalues --  -10.29788  -8.09047  -8.08793  -6.03895  -6.03636
 Alpha  occ. eigenvalues --   -6.03498  -6.03240  -6.03120  -6.02882  -1.19439
 Alpha  occ. eigenvalues --   -1.19157  -1.18932  -1.18648  -1.17524  -1.17144
 Alpha  occ. eigenvalues --   -1.06690  -1.06207  -1.03032  -1.00719  -0.99067
 Alpha  occ. eigenvalues --   -0.97053  -0.94559  -0.90524  -0.88555  -0.87492
 Alpha  occ. eigenvalues --   -0.86080  -0.85189  -0.84877  -0.82834  -0.82236
 Alpha  occ. eigenvalues --   -0.81496  -0.79649  -0.78338  -0.76836  -0.75437
 Alpha  occ. eigenvalues --   -0.75146  -0.74189  -0.70273  -0.68942  -0.67932
 Alpha  occ. eigenvalues --   -0.66532  -0.65768  -0.65243  -0.64508  -0.63696
 Alpha  occ. eigenvalues --   -0.62393  -0.60634  -0.59689  -0.59175  -0.58739
 Alpha  occ. eigenvalues --   -0.58345  -0.57649  -0.57472  -0.57254  -0.57039
 Alpha  occ. eigenvalues --   -0.56649  -0.55771  -0.55422  -0.55079  -0.54434
 Alpha  occ. eigenvalues --   -0.53915  -0.53579  -0.53271  -0.53195  -0.52000
 Alpha  occ. eigenvalues --   -0.51633  -0.51079  -0.50959  -0.50573  -0.50351
 Alpha  occ. eigenvalues --   -0.50116  -0.49489  -0.49398  -0.48791  -0.48334
 Alpha  occ. eigenvalues --   -0.47940  -0.47704  -0.46916  -0.45823  -0.45461
 Alpha  occ. eigenvalues --   -0.44395  -0.44145  -0.42467  -0.41840  -0.41350
 Alpha  occ. eigenvalues --   -0.41285  -0.40083  -0.39581  -0.38524  -0.37778
 Alpha  occ. eigenvalues --   -0.37285  -0.37059  -0.36772  -0.36279  -0.34528
 Alpha  occ. eigenvalues --   -0.33131  -0.31753  -0.31640  -0.25637
 Alpha virt. eigenvalues --   -0.07199  -0.00855   0.00498   0.02467   0.03547
 Alpha virt. eigenvalues --    0.05244   0.05738   0.06093   0.06773   0.07069
 Alpha virt. eigenvalues --    0.07207   0.07468   0.07772   0.07934   0.07995

 Mulliken charges:
               1
     1  C    0.319026
     2  C   -0.063337
     3  C    0.193764
     4  C    0.200922
     5  C    0.331636
     6  C   -0.217920
     7  C    0.208646
     8  C    0.419048
     9  C    0.366129
    10  C   -0.657331
    11  C    0.267033
    12  C    0.104526
    13  C   -0.550846
    14  C   -0.679533
    15  H    0.186835
    16  H    0.188339
    17  H    0.199140
    18  N   -0.050717
    19  N   -0.089842
    20  O   -0.266757
    21  O   -0.265798
    22  O   -0.274568
    23  O   -0.214212
    24  C   -0.271078
    25  H    0.197550
    26  H    0.188749
    27  H    0.201093
    28  C   -0.282786
    29  H    0.192871
    30  H    0.193297
    31  H    0.199776
    32  C    0.030535
    33  C   -0.481149
    34  S   -0.697768
    35  C   -0.147750
    36  H    0.161965
    37  C    0.694942
    38  O   -0.107716
    39  C    0.889024
    40  C   -0.311287
    41  C    0.011330
    42  S   -0.274134
    43  H    0.181987
    44  H    0.156953
    45  H    0.178479
    46  C   -0.642956
    47  O   -0.110604
    48  C   -0.342649
    49  H    0.157027
    50  C   -0.307558
    51  H    0.187492
    52  H    0.157052
    53  H    0.183748
    54  H    0.159382
 Sum of Mulliken charges =  -0.00000

 Dipole moment (field-independent basis, Debye):
    X=             -3.1114    Y=             -0.4176    Z=              0.1274  Tot=              3.1419
 Quadrupole moment (field-independent basis, Debye-Ang):
   XX=           -215.3055   YY=           -208.3664   ZZ=           -217.7928
   XY=              4.1904   XZ=              2.8230   YZ=             11.9535

 Normal termination of Gaussian 16 at Sun Nov 29 19:27:04 2020.
