 Gaussian 16, Revision C.01,
 Gaussian 16:  ES64L-G16RevC.01  3-Jul-2019

 --------------------------------------
 # opt=modredundant wb97xd/6-311+g(d,p)
 --------------------------------------

 ----------
 NDI_60.pdb
 ----------
 Symbolic Z-matrix:
 Charge =  0 Multiplicity = 1

 SCF Done:  E(RwB97XD) =  -2358.76569273     A.U. after   19 cycles
 SCF Done:  E(RwB97XD) =  -2358.77203923     A.U. after   17 cycles
 SCF Done:  E(RwB97XD) =  -2358.77295926     A.U. after   16 cycles
 SCF Done:  E(RwB97XD) =  -2358.77343759     A.U. after   14 cycles
 SCF Done:  E(RwB97XD) =  -2358.77357102     A.U. after   15 cycles
 SCF Done:  E(RwB97XD) =  -2358.77361403     A.U. after   15 cycles
 SCF Done:  E(RwB97XD) =  -2358.77364377     A.U. after   13 cycles
 SCF Done:  E(RwB97XD) =  -2358.77365029     A.U. after   13 cycles
 SCF Done:  E(RwB97XD) =  -2358.77365445     A.U. after   12 cycles
 SCF Done:  E(RwB97XD) =  -2358.77365504     A.U. after   11 cycles
 SCF Done:  E(RwB97XD) =  -2358.77365518     A.U. after   10 cycles
 Optimization completed.
    -- Stationary point found.

                         Standard orientation:
 ---------------------------------------------------------------------
 Center     Atomic      Atomic             Coordinates (Angstroms)
 Number     Number       Type             X           Y           Z
 ---------------------------------------------------------------------
      1          6           0       -2.809313   -2.898837    0.624465
      2          6           0       -2.375907   -1.498485    0.372941
      3          6           0       -3.327926   -0.499910    0.086013
      4          6           0       -4.699873   -0.816349    0.023121
      5          6           0       -5.162736   -2.210685    0.264637
      6          6           0       -1.047756   -1.183633    0.423283
      7          6           0       -2.886580    0.819054   -0.154200
      8          6           0       -1.501493    1.139083   -0.089775
      9          6           0       -0.577212    0.141010    0.216017
     10          6           0       -1.085833    2.532075   -0.439202
     11          6           0       -3.461528    3.191629   -0.769814
     12          6           0       -3.859783    1.794978   -0.467764
     13          6           0       -5.196424    1.469501   -0.519690
     14          6           0       -5.624068    0.158170   -0.271282
     15          1           0       -6.673430   -0.105652   -0.315021
     16          1           0       -5.907588    2.249111   -0.763604
     17          1           0       -0.336873   -1.965557    0.662178
     18          7           0       -2.095874    3.449730   -0.760007
     19          7           0       -4.176127   -3.161261    0.539673
     20          8           0       -2.029941   -3.782248    0.899009
     21          8           0       -6.334026   -2.510287    0.223493
     22          8           0       -4.274179    4.053596   -1.021857
     23          8           0        0.062137    2.908056   -0.463216
     24          6           0       -1.642479    4.800277   -1.091380
     25          1           0       -1.097587    5.225797   -0.248487
     26          1           0       -0.973820    4.763282   -1.951193
     27          1           0       -2.519097    5.400056   -1.316488
     28          6           0       -4.584012   -4.543659    0.787046
     29          1           0       -4.085854   -5.204987    0.078248
     30          1           0       -4.297668   -4.838269    1.796953
     31          1           0       -5.661704   -4.601895    0.667926
     32          6           0        0.875385    0.331373    0.366471
     33          6           0        1.541822    1.130118    1.248822
     34         16           0        1.962451   -0.665862   -0.534632
     35          6           0        2.944119    0.947822    1.188665
     36          1           0        1.041110    1.830104    1.900903
     37          6           0        3.351105    0.008816    0.263601
     38          8           0        3.868698    1.616256    1.917112
     39          6           0        4.705912   -0.378625   -0.064299
     40          6           0        3.399456    2.485852    2.926198
     41          6           0        5.102867   -1.347071   -0.961339
     42         16           0        6.107133    0.361127    0.659193
     43          1           0        4.284946    2.885513    3.417248
     44          1           0        2.819009    3.310783    2.498890
     45          1           0        2.789308    1.947077    3.659534
     46          6           0        6.513454   -1.493861   -1.067349
     47          8           0        4.168937   -2.054246   -1.640112
     48          6           0        7.171877   -0.630211   -0.245436
     49          1           0        7.012986   -2.200011   -1.714815
     50          6           0        4.621614   -3.010611   -2.575315
     51          1           0        8.239114   -0.527446   -0.120552
     52          1           0        5.208749   -3.795577   -2.086311
     53          1           0        3.728276   -3.451139   -3.014435
     54          1           0        5.219642   -2.540663   -3.363656
 ---------------------------------------------------------------------

 The electronic state is 1-A.
 Alpha  occ. eigenvalues --  -89.04715 -89.04337 -19.28782 -19.28637 -19.25133
 Alpha  occ. eigenvalues --  -19.25081 -19.24712 -19.24620 -14.50686 -14.50338
 Alpha  occ. eigenvalues --  -10.42925 -10.42702 -10.42652 -10.42468 -10.35327
 Alpha  occ. eigenvalues --  -10.35050 -10.35044 -10.34571 -10.34488 -10.34357
 Alpha  occ. eigenvalues --  -10.34224 -10.34224 -10.33950 -10.33894 -10.33808
 Alpha  occ. eigenvalues --  -10.32916 -10.32912 -10.32855 -10.32756 -10.32498
 Alpha  occ. eigenvalues --  -10.32304 -10.32094 -10.32042 -10.31454 -10.29603
 Alpha  occ. eigenvalues --  -10.29385  -8.08735  -8.08360  -6.03587  -6.03202
 Alpha  occ. eigenvalues --   -6.03190  -6.02806  -6.02805  -6.02448  -1.19604
 Alpha  occ. eigenvalues --   -1.19366  -1.18482  -1.18350  -1.17693  -1.17400
 Alpha  occ. eigenvalues --   -1.06858  -1.06425  -1.03325  -1.00410  -0.98780
 Alpha  occ. eigenvalues --   -0.97162  -0.94836  -0.90516  -0.88790  -0.87225
 Alpha  occ. eigenvalues --   -0.85835  -0.85352  -0.84496  -0.82698  -0.82215
 Alpha  occ. eigenvalues --   -0.81490  -0.79426  -0.78244  -0.76979  -0.75658
 Alpha  occ. eigenvalues --   -0.75254  -0.74325  -0.70182  -0.68728  -0.67834
 Alpha  occ. eigenvalues --   -0.66714  -0.65629  -0.64897  -0.64619  -0.63302
 Alpha  occ. eigenvalues --   -0.62608  -0.60796  -0.59831  -0.59263  -0.58941
 Alpha  occ. eigenvalues --   -0.58138  -0.57743  -0.57362  -0.57163  -0.56812
 Alpha  occ. eigenvalues --   -0.56439  -0.56028  -0.55506  -0.55283  -0.54237
 Alpha  occ. eigenvalues --   -0.54047  -0.53493  -0.53441  -0.53207  -0.52347
 Alpha  occ. eigenvalues --   -0.51628  -0.51157  -0.51128  -0.50352  -0.50261
 Alpha  occ. eigenvalues --   -0.49931  -0.49567  -0.49276  -0.48902  -0.48350
 Alpha  occ. eigenvalues --   -0.48206  -0.47294  -0.46932  -0.45717  -0.45263
 Alpha  occ. eigenvalues --   -0.44152  -0.43831  -0.42197  -0.41552  -0.41216
 Alpha  occ. eigenvalues --   -0.40990  -0.40342  -0.39741  -0.38648  -0.37686
 Alpha  occ. eigenvalues --   -0.37447  -0.37092  -0.36955  -0.36187  -0.34687
 Alpha  occ. eigenvalues --   -0.33318  -0.31500  -0.31381  -0.25451
 Alpha virt. eigenvalues --   -0.07258  -0.00229   0.00456   0.02235   0.03127
 Alpha virt. eigenvalues --    0.05105   0.05873   0.06137   0.06822   0.06914
 Alpha virt. eigenvalues --    0.07328   0.07507   0.07622   0.07811   0.07837

 Mulliken charges:
               1
     1  C    0.435297
     2  C   -0.085391
     3  C    0.148848
     4  C    0.179071
     5  C    0.356215
     6  C   -0.716328
     7  C    0.164494
     8  C    0.178568
     9  C    0.555020
    10  C   -0.380687
    11  C    0.254549
    12  C    0.138772
    13  C   -0.548752
    14  C   -0.677375
    15  H    0.187890
    16  H    0.188744
    17  H    0.212159
    18  N   -0.104404
    19  N   -0.093629
    20  O   -0.260610
    21  O   -0.267406
    22  O   -0.272077
    23  O   -0.141025
    24  C   -0.296572
    25  H    0.192575
    26  H    0.196915
    27  H    0.201348
    28  C   -0.283721
    29  H    0.192715
    30  H    0.194969
    31  H    0.200422
    32  C    0.015003
    33  C   -0.384488
    34  S   -0.526966
    35  C   -0.023883
    36  H    0.157878
    37  C    0.678583
    38  O   -0.115264
    39  C    0.771639
    40  C   -0.293948
    41  C   -0.032635
    42  S   -0.285254
    43  H    0.181552
    44  H    0.164521
    45  H    0.160011
    46  C   -0.577730
    47  O   -0.116643
    48  C   -0.351913
    49  H    0.155115
    50  C   -0.306129
    51  H    0.185224
    52  H    0.156069
    53  H    0.179879
    54  H    0.158785
 Sum of Mulliken charges =  -0.00000

 Dipole moment (field-independent basis, Debye):
    X=              1.8580    Y=             -0.3212    Z=              0.1486  Tot=              1.8914
 Quadrupole moment (field-independent basis, Debye-Ang):
   XX=           -217.8665   YY=           -217.0029   ZZ=           -208.4504
   XY=             -3.4449   XZ=             -6.2411   YZ=             16.3549

 Normal termination of Gaussian 16 at Sun Nov 29 21:28:39 2020.
