 Gaussian 16, Revision C.01,
 Gaussian 16:  ES64L-G16RevC.01  3-Jul-2019

 --------------------------------------
 # opt=modredundant wb97xd/6-311+g(d,p)
 --------------------------------------

 -----------
 NDI_155.pdb
 -----------
 Symbolic Z-matrix:
 Charge =  0 Multiplicity = 1

 SCF Done:  E(RwB97XD) =  -2358.73919315     A.U. after   20 cycles
 SCF Done:  E(RwB97XD) =  -2358.75520202     A.U. after   20 cycles
 SCF Done:  E(RwB97XD) =  -2358.76426765     A.U. after   18 cycles
 SCF Done:  E(RwB97XD) =  -2358.76826527     A.U. after   17 cycles
 SCF Done:  E(RwB97XD) =  -2358.76940737     A.U. after   17 cycles
 SCF Done:  E(RwB97XD) =  -2358.76999775     A.U. after   17 cycles
 SCF Done:  E(RwB97XD) =  -2358.77043900     A.U. after   16 cycles
 SCF Done:  E(RwB97XD) =  -2358.77086465     A.U. after   18 cycles
 SCF Done:  E(RwB97XD) =  -2358.77104421     A.U. after   16 cycles
 SCF Done:  E(RwB97XD) =  -2358.77109816     A.U. after   16 cycles
 SCF Done:  E(RwB97XD) =  -2358.77113213     A.U. after   16 cycles
 SCF Done:  E(RwB97XD) =  -2358.77114916     A.U. after   14 cycles
 SCF Done:  E(RwB97XD) =  -2358.77115699     A.U. after   14 cycles
 SCF Done:  E(RwB97XD) =  -2358.77115737     A.U. after   11 cycles
 SCF Done:  E(RwB97XD) =  -2358.77115736     A.U. after   12 cycles
 SCF Done:  E(RwB97XD) =  -2358.77115787     A.U. after   13 cycles
 SCF Done:  E(RwB97XD) =  -2358.77115805     A.U. after   12 cycles
 Optimization completed.
    -- Stationary point found.

                         Standard orientation:
 ---------------------------------------------------------------------
 Center     Atomic      Atomic             Coordinates (Angstroms)
 Number     Number       Type             X           Y           Z
 ---------------------------------------------------------------------
      1          6           0       -3.398395   -2.722467   -0.318322
      2          6           0       -2.693605   -1.441764   -0.047316
      3          6           0       -3.386270   -0.217112   -0.131926
      4          6           0       -4.751345   -0.187434   -0.474511
      5          6           0       -5.481382   -1.452724   -0.759399
      6          6           0       -1.363613   -1.457731    0.254527
      7          6           0       -2.690358    0.976403    0.151555
      8          6           0       -1.306063    0.947674    0.481820
      9          6           0       -0.620231   -0.270478    0.510614
     10          6           0       -0.697373    2.209766    0.991221
     11          6           0       -2.755958    3.477804    0.423832
     12          6           0       -3.412169    2.190003    0.090321
     13          6           0       -4.744946    2.203474   -0.257785
     14          6           0       -5.422827    1.011512   -0.544614
     15          1           0       -6.471927    1.014952   -0.812836
     16          1           0       -5.257011    3.157059   -0.297437
     17          1           0       -0.854575   -2.412739    0.249947
     18          7           0       -1.448727    3.387471    0.885666
     19          7           0       -4.748187   -2.639584   -0.654196
     20          8           0       -2.843656   -3.796951   -0.259858
     21          8           0       -6.651920   -1.461089   -1.064104
     22          8           0       -3.329725    4.540275    0.326035
     23          8           0        0.406836    2.269183    1.479736
     24          6           0       -0.781875    4.608530    1.336031
     25          1           0       -0.506654    4.512963    2.386281
     26          1           0        0.126764    4.767988    0.755121
     27          1           0       -1.470859    5.435930    1.195870
     28          6           0       -5.425535   -3.907453   -0.922665
     29          1           0       -4.924580   -4.425966   -1.740170
     30          1           0       -5.388942   -4.540008   -0.035459
     31          1           0       -6.455451   -3.687979   -1.187486
     32          6           0        0.831083   -0.471031    0.631972
     33          6           0        1.423647   -1.606363    1.135682
     34         16           0        1.987974    0.501243   -0.204777
     35          6           0        2.810078   -1.661798    0.886072
     36          1           0        0.879931   -2.359293    1.689280
     37          6           0        3.281763   -0.599352    0.138658
     38          8           0        3.666862   -2.622767    1.304940
     39          6           0        4.640692   -0.369733   -0.297537
     40          6           0        3.114753   -3.752783    1.947413
     41          6           0        5.106363    0.681536   -1.059771
     42         16           0        5.958236   -1.441532    0.092303
     43          1           0        3.949350   -4.418047    2.161029
     44          1           0        2.625512   -3.474492    2.887440
     45          1           0        2.397702   -4.266483    1.297494
     46          6           0        6.502457    0.628979   -1.324441
     47          8           0        4.246357    1.636247   -1.479866
     48          6           0        7.079897   -0.467659   -0.759453
     49          1           0        7.048616    1.361066   -1.901543
     50          6           0        4.773404    2.713779   -2.225805
     51          1           0        8.119168   -0.756508   -0.801780
     52          1           0        5.219746    2.364948   -3.163348
     53          1           0        3.931850    3.367043   -2.448971
     54          1           0        5.519200    3.268329   -1.646229
 ---------------------------------------------------------------------

 The electronic state is 1-A.
 Alpha  occ. eigenvalues --  -89.04674 -89.04666 -19.29103 -19.28945 -19.25049
 Alpha  occ. eigenvalues --  -19.25038 -19.24423 -19.24295 -14.50614 -14.50045
 Alpha  occ. eigenvalues --  -10.42817 -10.42657 -10.42265 -10.42174 -10.35471
 Alpha  occ. eigenvalues --  -10.35357 -10.35296 -10.34608 -10.34499 -10.34289
 Alpha  occ. eigenvalues --  -10.33991 -10.33901 -10.33716 -10.33699 -10.33506
 Alpha  occ. eigenvalues --  -10.33129 -10.33007 -10.32852 -10.32638 -10.32583
 Alpha  occ. eigenvalues --  -10.32394 -10.32259 -10.31837 -10.31820 -10.30165
 Alpha  occ. eigenvalues --  -10.29693  -8.08688  -8.08688  -6.03542  -6.03530
 Alpha  occ. eigenvalues --   -6.03135  -6.03134  -6.02777  -6.02756  -1.19517
 Alpha  occ. eigenvalues --   -1.19067  -1.18839  -1.18663  -1.17609  -1.17095
 Alpha  occ. eigenvalues --   -1.06759  -1.06180  -1.03106  -1.00620  -0.98997
 Alpha  occ. eigenvalues --   -0.97090  -0.94610  -0.90567  -0.88588  -0.87361
 Alpha  occ. eigenvalues --   -0.86088  -0.85194  -0.84798  -0.82839  -0.82362
 Alpha  occ. eigenvalues --   -0.81107  -0.79810  -0.78351  -0.76785  -0.75472
 Alpha  occ. eigenvalues --   -0.75064  -0.74369  -0.70113  -0.68977  -0.67955
 Alpha  occ. eigenvalues --   -0.66592  -0.65790  -0.65095  -0.64123  -0.63659
 Alpha  occ. eigenvalues --   -0.62825  -0.60627  -0.59688  -0.59052  -0.58882
 Alpha  occ. eigenvalues --   -0.58179  -0.57649  -0.57461  -0.57280  -0.57090
 Alpha  occ. eigenvalues --   -0.56602  -0.55854  -0.55370  -0.55213  -0.54245
 Alpha  occ. eigenvalues --   -0.53854  -0.53649  -0.53487  -0.53140  -0.52417
 Alpha  occ. eigenvalues --   -0.51553  -0.51156  -0.50857  -0.50397  -0.50236
 Alpha  occ. eigenvalues --   -0.50083  -0.49575  -0.49427  -0.48841  -0.48355
 Alpha  occ. eigenvalues --   -0.47996  -0.47576  -0.46615  -0.45828  -0.45462
 Alpha  occ. eigenvalues --   -0.44453  -0.44106  -0.42404  -0.41830  -0.41304
 Alpha  occ. eigenvalues --   -0.41091  -0.40071  -0.39547  -0.38334  -0.37748
 Alpha  occ. eigenvalues --   -0.37330  -0.37138  -0.36607  -0.36284  -0.34678
 Alpha  occ. eigenvalues --   -0.33135  -0.31801  -0.31348  -0.25593
 Alpha virt. eigenvalues --   -0.07178  -0.00728   0.00530   0.02372   0.03520
 Alpha virt. eigenvalues --    0.05227   0.05762   0.06046   0.06740   0.06932
 Alpha virt. eigenvalues --    0.07096   0.07507   0.07737   0.07759   0.07996

 Mulliken charges:
               1
     1  C    0.372834
     2  C    0.001462
     3  C    0.185480
     4  C    0.261226
     5  C    0.301153
     6  C   -0.075190
     7  C    0.118752
     8  C    0.122622
     9  C    0.251887
    10  C   -0.488166
    11  C    0.360999
    12  C    0.086899
    13  C   -0.558344
    14  C   -0.706040
    15  H    0.187180
    16  H    0.188577
    17  H    0.186663
    18  N   -0.020438
    19  N   -0.093682
    20  O   -0.267616
    21  O   -0.266573
    22  O   -0.276368
    23  O   -0.211495
    24  C   -0.270045
    25  H    0.198801
    26  H    0.196335
    27  H    0.200153
    28  C   -0.277281
    29  H    0.193127
    30  H    0.192594
    31  H    0.200145
    32  C    0.103556
    33  C   -0.742857
    34  S   -0.713960
    35  C   -0.064146
    36  H    0.159606
    37  C    0.731709
    38  O   -0.117313
    39  C    0.950153
    40  C   -0.296378
    41  C    0.009113
    42  S   -0.268480
    43  H    0.183755
    44  H    0.158467
    45  H    0.167993
    46  C   -0.630403
    47  O   -0.111210
    48  C   -0.347356
    49  H    0.156187
    50  C   -0.308461
    51  H    0.187033
    52  H    0.156929
    53  H    0.180528
    54  H    0.159884
 Sum of Mulliken charges =  -0.00000

 Dipole moment (field-independent basis, Debye):
    X=              2.7273    Y=             -0.4208    Z=             -0.5251  Tot=              2.8090
 Quadrupole moment (field-independent basis, Debye-Ang):
   XX=           -212.6081   YY=           -214.2263   ZZ=           -215.2491
   XY=              9.4410   XZ=            -11.1859   YZ=            -12.0673

 Normal termination of Gaussian 16 at Mon Nov 30 00:30:12 2020.
