 Gaussian 16, Revision C.01,
 Gaussian 16:  ES64L-G16RevC.01  3-Jul-2019

 --------------------------------------
 # opt=modredundant wb97xd/6-311+g(d,p)
 --------------------------------------

 ------------
 NDI_-170.pdb
 ------------
 Symbolic Z-matrix:
 Charge =  0 Multiplicity = 1

 SCF Done:  E(RwB97XD) =  -2358.72494841     A.U. after   20 cycles
 SCF Done:  E(RwB97XD) =  -2358.75378937     A.U. after   20 cycles
 SCF Done:  E(RwB97XD) =  -2358.76465801     A.U. after   18 cycles
 SCF Done:  E(RwB97XD) =  -2358.76655529     A.U. after   16 cycles
 SCF Done:  E(RwB97XD) =  -2358.76729493     A.U. after   17 cycles
 SCF Done:  E(RwB97XD) =  -2358.76753483     A.U. after   17 cycles
 SCF Done:  E(RwB97XD) =  -2358.76751589     A.U. after   17 cycles
 SCF Done:  E(RwB97XD) =  -2358.76782496     A.U. after   15 cycles
 SCF Done:  E(RwB97XD) =  -2358.76807344     A.U. after   17 cycles
 SCF Done:  E(RwB97XD) =  -2358.76817369     A.U. after   16 cycles
 SCF Done:  E(RwB97XD) =  -2358.76828885     A.U. after   14 cycles
 SCF Done:  E(RwB97XD) =  -2358.76831367     A.U. after   13 cycles
 SCF Done:  E(RwB97XD) =  -2358.76831173     A.U. after   15 cycles
 SCF Done:  E(RwB97XD) =  -2358.76831612     A.U. after   15 cycles
 SCF Done:  E(RwB97XD) =  -2358.76832135     A.U. after   14 cycles
 SCF Done:  E(RwB97XD) =  -2358.76832131     A.U. after   13 cycles
 SCF Done:  E(RwB97XD) =  -2358.76832149     A.U. after   11 cycles
 Optimization completed.
    -- Stationary point found.

                         Standard orientation:
 ---------------------------------------------------------------------
 Center     Atomic      Atomic             Coordinates (Angstroms)
 Number     Number       Type             X           Y           Z
 ---------------------------------------------------------------------
      1          6           0       -3.423793   -2.703760    0.221078
      2          6           0       -2.716324   -1.413601    0.006845
      3          6           0       -3.409933   -0.192555    0.121317
      4          6           0       -4.781606   -0.175464    0.430935
      5          6           0       -5.520150   -1.450510    0.639635
      6          6           0       -1.387724   -1.423714   -0.286072
      7          6           0       -2.699811    1.004579   -0.101667
      8          6           0       -1.305225    0.983738   -0.406380
      9          6           0       -0.617095   -0.238091   -0.493199
     10          6           0       -0.689696    2.273037   -0.816907
     11          6           0       -2.770525    3.514678   -0.282519
     12          6           0       -3.425163    2.214650   -0.008836
     13          6           0       -4.766814    2.218040    0.309194
     14          6           0       -5.455053    1.020735    0.532924
     15          1           0       -6.510669    1.016381    0.773737
     16          1           0       -5.276080    3.171893    0.371332
     17          1           0       -0.904461   -2.389428   -0.303817
     18          7           0       -1.452057    3.442061   -0.710759
     19          7           0       -4.785924   -2.633965    0.502891
     20          8           0       -2.859902   -3.774241    0.169146
     21          8           0       -6.698698   -1.470140    0.911056
     22          8           0       -3.350208    4.572386   -0.165982
     23          8           0        0.444463    2.368447   -1.230249
     24          6           0       -0.771632    4.681230   -1.084512
     25          1           0        0.103839    4.828176   -0.451682
     26          1           0       -0.442368    4.622831   -2.121732
     27          1           0       -1.474670    5.498231   -0.952817
     28          6           0       -5.469956   -3.910172    0.706539
     29          1           0       -5.358093   -4.531347   -0.182061
     30          1           0       -5.029125   -4.434936    1.554564
     31          1           0       -6.518937   -3.702507    0.894947
     32          6           0        0.831366   -0.481530   -0.610263
     33          6           0        1.373999   -1.724717   -0.888245
     34         16           0        2.066861    0.572557   -0.004208
     35          6           0        2.751946   -1.808931   -0.637434
     36          1           0        0.803453   -2.547936   -1.291823
     37          6           0        3.287308   -0.647669   -0.108786
     38          8           0        3.547326   -2.884546   -0.846546
     39          6           0        4.664566   -0.410550    0.257444
     40          6           0        2.978103   -3.999592   -1.500475
     41          6           0        5.200588    0.743754    0.792329
     42         16           0        5.917614   -1.608010    0.069721
     43          1           0        3.782607   -4.722402   -1.623169
     44          1           0        2.179746   -4.447976   -0.898654
     45          1           0        2.585051   -3.721618   -2.484609
     46          6           0        6.597812    0.668105    1.044114
     47          8           0        4.402995    1.809151    1.019675
     48          6           0        7.105160   -0.548163    0.699290
     49          1           0        7.193760    1.468218    1.458669
     50          6           0        4.987273    2.959384    1.595604
     51          1           0        8.129166   -0.878933    0.785589
     52          1           0        5.764498    3.375324    0.945606
     53          1           0        4.182632    3.684308    1.703293
     54          1           0        5.410403    2.736379    2.580965
 ---------------------------------------------------------------------

 The electronic state is 1-A.
 Alpha  occ. eigenvalues --  -89.04828 -89.04725 -19.29229 -19.29039 -19.24996
 Alpha  occ. eigenvalues --  -19.24958 -19.24256 -19.24249 -14.50545 -14.49975
 Alpha  occ. eigenvalues --  -10.42728 -10.42589 -10.42184 -10.41987 -10.35707
 Alpha  occ. eigenvalues --  -10.35669 -10.35338 -10.34674 -10.34565 -10.34186
 Alpha  occ. eigenvalues --  -10.33862 -10.33662 -10.33553 -10.33507 -10.33358
 Alpha  occ. eigenvalues --  -10.33298 -10.33169 -10.32698 -10.32532 -10.32418
 Alpha  occ. eigenvalues --  -10.32363 -10.32211 -10.32051 -10.31773 -10.30324
 Alpha  occ. eigenvalues --  -10.29844  -8.08850  -8.08706  -6.03692  -6.03558
 Alpha  occ. eigenvalues --   -6.03296  -6.03138  -6.02939  -6.02784  -1.19448
 Alpha  occ. eigenvalues --   -1.19025  -1.19000  -1.18761  -1.17536  -1.17002
 Alpha  occ. eigenvalues --   -1.06688  -1.06104  -1.02935  -1.00674  -0.99068
 Alpha  occ. eigenvalues --   -0.97000  -0.94457  -0.90549  -0.88453  -0.87410
 Alpha  occ. eigenvalues --   -0.86185  -0.85134  -0.84927  -0.82927  -0.82302
 Alpha  occ. eigenvalues --   -0.81073  -0.79895  -0.78363  -0.76709  -0.75387
 Alpha  occ. eigenvalues --   -0.75000  -0.74353  -0.70112  -0.69040  -0.68010
 Alpha  occ. eigenvalues --   -0.66524  -0.65784  -0.65206  -0.64165  -0.63716
 Alpha  occ. eigenvalues --   -0.62761  -0.60522  -0.59610  -0.59034  -0.58889
 Alpha  occ. eigenvalues --   -0.58095  -0.57613  -0.57557  -0.57234  -0.57165
 Alpha  occ. eigenvalues --   -0.56666  -0.55843  -0.55341  -0.55098  -0.54254
 Alpha  occ. eigenvalues --   -0.53958  -0.53608  -0.53419  -0.53047  -0.52258
 Alpha  occ. eigenvalues --   -0.51514  -0.51178  -0.50824  -0.50569  -0.50301
 Alpha  occ. eigenvalues --   -0.50007  -0.49575  -0.49356  -0.48810  -0.48339
 Alpha  occ. eigenvalues --   -0.47903  -0.47706  -0.46653  -0.45676  -0.45233
 Alpha  occ. eigenvalues --   -0.44664  -0.44143  -0.42466  -0.41806  -0.41532
 Alpha  occ. eigenvalues --   -0.41070  -0.39922  -0.39411  -0.38196  -0.37929
 Alpha  occ. eigenvalues --   -0.37249  -0.37143  -0.36464  -0.36288  -0.34514
 Alpha  occ. eigenvalues --   -0.33078  -0.31831  -0.31421  -0.25651
 Alpha virt. eigenvalues --   -0.07097  -0.01051   0.00610   0.02532   0.03581
 Alpha virt. eigenvalues --    0.05245   0.05730   0.06049   0.06746   0.07043
 Alpha virt. eigenvalues --    0.07110   0.07416   0.07778   0.07862   0.08165

 Mulliken charges:
               1
     1  C    0.359481
     2  C    0.005794
     3  C    0.257181
     4  C    0.197778
     5  C    0.340076
     6  C    0.119478
     7  C    0.080899
     8  C    0.188196
     9  C    0.356359
    10  C   -0.481614
    11  C    0.326598
    12  C    0.018660
    13  C   -0.538420
    14  C   -0.693956
    15  H    0.186339
    16  H    0.188434
    17  H    0.177042
    18  N   -0.051640
    19  N   -0.094175
    20  O   -0.270063
    21  O   -0.264143
    22  O   -0.278060
    23  O   -0.211942
    24  C   -0.270084
    25  H    0.195481
    26  H    0.198506
    27  H    0.200622
    28  C   -0.279361
    29  H    0.191166
    30  H    0.193970
    31  H    0.200172
    32  C   -0.053667
    33  C   -0.487278
    34  S   -0.759285
    35  C   -0.336282
    36  H    0.152054
    37  C    0.688249
    38  O   -0.114514
    39  C    0.924040
    40  C   -0.300862
    41  C   -0.015501
    42  S   -0.268825
    43  H    0.184617
    44  H    0.160634
    45  H    0.165488
    46  C   -0.568422
    47  O   -0.099291
    48  C   -0.354696
    49  H    0.156697
    50  C   -0.309488
    51  H    0.187799
    52  H    0.159139
    53  H    0.182248
    54  H    0.158369
 Sum of Mulliken charges =  -0.00000

 Dipole moment (field-independent basis, Debye):
    X=              3.3340    Y=             -0.4246    Z=              0.2440  Tot=              3.3698
 Quadrupole moment (field-independent basis, Debye-Ang):
   XX=           -210.6274   YY=           -212.0624   ZZ=           -218.3232
   XY=             11.3485   XZ=              9.4774   YZ=              9.9715

 Normal termination of Gaussian 16 at Mon Nov 30 00:24:37 2020.
