 Gaussian 16, Revision C.01,
 Gaussian 16:  ES64L-G16RevC.01  3-Jul-2019

 --------------------------------------
 # opt=modredundant wb97xd/6-311+g(d,p)
 --------------------------------------

 -----------
 NDI_-95.pdb
 -----------
 Symbolic Z-matrix:
 Charge =  0 Multiplicity = 1

 SCF Done:  E(RwB97XD) =  -2358.76438811     A.U. after   19 cycles
 SCF Done:  E(RwB97XD) =  -2358.77231084     A.U. after   16 cycles
 SCF Done:  E(RwB97XD) =  -2358.77307153     A.U. after   15 cycles
 SCF Done:  E(RwB97XD) =  -2358.77320389     A.U. after   14 cycles
 SCF Done:  E(RwB97XD) =  -2358.77330001     A.U. after   14 cycles
 SCF Done:  E(RwB97XD) =  -2358.77331071     A.U. after   13 cycles
 SCF Done:  E(RwB97XD) =  -2358.77331263     A.U. after   12 cycles
 SCF Done:  E(RwB97XD) =  -2358.77331486     A.U. after   11 cycles
 SCF Done:  E(RwB97XD) =  -2358.77331509     A.U. after   11 cycles
 SCF Done:  E(RwB97XD) =  -2358.77331542     A.U. after    9 cycles
 SCF Done:  E(RwB97XD) =  -2358.77331539     A.U. after   10 cycles
 Optimization completed.
    -- Stationary point found.

                         Standard orientation:
 ---------------------------------------------------------------------
 Center     Atomic      Atomic             Coordinates (Angstroms)
 Number     Number       Type             X           Y           Z
 ---------------------------------------------------------------------
      1          6           0        3.277777   -2.831432    0.158436
      2          6           0        2.628370   -1.493763    0.151820
      3          6           0        3.398896   -0.332964   -0.056745
      4          6           0        4.792004   -0.421438   -0.259499
      5          6           0        5.469274   -1.747349   -0.254778
      6          6           0        1.278798   -1.391611    0.359188
      7          6           0        2.762555    0.926346   -0.053031
      8          6           0        1.361245    1.016368    0.153498
      9          6           0        0.619782   -0.138227    0.362833
     10          6           0        0.727442    2.370810    0.174311
     11          6           0        2.936234    3.430971   -0.249706
     12          6           0        3.553722    2.079468   -0.255639
     13          6           0        4.910521    1.973113   -0.455407
     14          6           0        5.536226    0.716794   -0.458132
     15          1           0        6.604487    0.626819   -0.612036
     16          1           0        5.483948    2.879295   -0.607415
     17          1           0        0.697488   -2.291921    0.518926
     18          7           0        1.564047    3.476531   -0.027111
     19          7           0        4.658595   -2.864550   -0.037159
     20          8           0        2.655238   -3.856035    0.318366
     21          8           0        6.661442   -1.855496   -0.428788
     22          8           0        3.589680    4.435068   -0.424478
     23          8           0       -0.452982    2.552103    0.348180
     24          6           0        0.904200    4.781980   -0.006535
     25          1           0        0.144943    4.823679   -0.787497
     26          1           0        0.417735    4.933644    0.956986
     27          1           0        1.661839    5.541752   -0.172810
     28          6           0        5.278943   -4.189002   -0.027158
     29          1           0        5.077871   -4.680890    0.924429
     30          1           0        4.860638   -4.798606   -0.828421
     31          1           0        6.347629   -4.059948   -0.169405
     32          6           0       -0.843077   -0.166799    0.586302
     33          6           0       -1.490736   -0.187152    1.782942
     34         16           0       -1.929928   -0.293752   -0.743524
     35          6           0       -2.900897   -0.275263    1.623266
     36          1           0       -0.978939   -0.115750    2.732194
     37          6           0       -3.314628   -0.342952    0.312999
     38          8           0       -3.815463   -0.307728    2.621872
     39          6           0       -4.672158   -0.444239   -0.182086
     40          6           0       -3.350666   -0.106991    3.939579
     41          6           0       -5.078640   -0.533188   -1.495091
     42         16           0       -6.063658   -0.459201    0.865021
     43          1           0       -4.233065   -0.116816    4.577079
     44          1           0       -2.674165   -0.911540    4.249085
     45          1           0       -2.842524    0.858659    4.036766
     46          6           0       -6.489414   -0.611826   -1.660447
     47          8           0       -4.153401   -0.535034   -2.485620
     48          6           0       -7.138824   -0.581852   -0.463931
     49          1           0       -6.995329   -0.687133   -2.612245
     50          6           0       -4.616301   -0.663830   -3.812622
     51          1           0       -8.203558   -0.627446   -0.292687
     52          1           0       -5.263582    0.175446   -4.090237
     53          1           0       -3.730102   -0.658233   -4.444951
     54          1           0       -5.156435   -1.606471   -3.954291
 ---------------------------------------------------------------------

 The electronic state is 1-A.
 Alpha  occ. eigenvalues --  -89.04296 -89.03984 -19.28414 -19.28409 -19.25295
 Alpha  occ. eigenvalues --  -19.25231 -19.24965 -19.24903 -14.50837 -14.50521
 Alpha  occ. eigenvalues --  -10.43097 -10.42861 -10.42764 -10.42746 -10.35215
 Alpha  occ. eigenvalues --  -10.34794 -10.34737 -10.34730 -10.34598 -10.34546
 Alpha  occ. eigenvalues --  -10.34194 -10.34141 -10.34118 -10.34115 -10.34110
 Alpha  occ. eigenvalues --  -10.33254 -10.33157 -10.33151 -10.32655 -10.32417
 Alpha  occ. eigenvalues --  -10.32135 -10.31880 -10.31736 -10.31060 -10.29330
 Alpha  occ. eigenvalues --  -10.29055  -8.08308  -8.08008  -6.03167  -6.02851
 Alpha  occ. eigenvalues --   -6.02766  -6.02455  -6.02367  -6.02097  -1.19754
 Alpha  occ. eigenvalues --   -1.19563  -1.18146  -1.18057  -1.17850  -1.17633
 Alpha  occ. eigenvalues --   -1.07017  -1.06640  -1.03586  -1.00129  -0.98570
 Alpha  occ. eigenvalues --   -0.97199  -0.95077  -0.90542  -0.89012  -0.87007
 Alpha  occ. eigenvalues --   -0.85633  -0.85452  -0.84135  -0.82735  -0.82194
 Alpha  occ. eigenvalues --   -0.81352  -0.79291  -0.78139  -0.77104  -0.75858
 Alpha  occ. eigenvalues --   -0.75362  -0.74460  -0.70136  -0.68608  -0.67718
 Alpha  occ. eigenvalues --   -0.66892  -0.65585  -0.64654  -0.64467  -0.63015
 Alpha  occ. eigenvalues --   -0.62875  -0.60961  -0.59985  -0.59388  -0.59123
 Alpha  occ. eigenvalues --   -0.57911  -0.57798  -0.57487  -0.56955  -0.56619
 Alpha  occ. eigenvalues --   -0.56398  -0.56145  -0.55668  -0.55399  -0.54223
 Alpha  occ. eigenvalues --   -0.54004  -0.53740  -0.53490  -0.53077  -0.52461
 Alpha  occ. eigenvalues --   -0.51737  -0.51357  -0.51254  -0.50439  -0.50053
 Alpha  occ. eigenvalues --   -0.49685  -0.49542  -0.49164  -0.48944  -0.48476
 Alpha  occ. eigenvalues --   -0.48433  -0.46901  -0.46731  -0.45901  -0.44951
 Alpha  occ. eigenvalues --   -0.44128  -0.43495  -0.41979  -0.41197  -0.41016
 Alpha  occ. eigenvalues --   -0.40746  -0.40556  -0.39827  -0.38687  -0.37623
 Alpha  occ. eigenvalues --   -0.37594  -0.37196  -0.36968  -0.35983  -0.34949
 Alpha  occ. eigenvalues --   -0.33600  -0.31377  -0.31068  -0.25268
 Alpha virt. eigenvalues --   -0.07329  -0.00053   0.00653   0.02336   0.02509
 Alpha virt. eigenvalues --    0.04963   0.06007   0.06233   0.06595   0.06893
 Alpha virt. eigenvalues --    0.07353   0.07407   0.07582   0.07716   0.08040

 Mulliken charges:
               1
     1  C    0.464445
     2  C    0.097141
     3  C    0.210535
     4  C    0.182714
     5  C    0.362607
     6  C   -0.725693
     7  C    0.151108
     8  C   -0.053452
     9  C    0.391084
    10  C   -0.302156
    11  C    0.265783
    12  C    0.206571
    13  C   -0.603388
    14  C   -0.732916
    15  H    0.188929
    16  H    0.189716
    17  H    0.197439
    18  N   -0.110272
    19  N   -0.097680
    20  O   -0.256025
    21  O   -0.267572
    22  O   -0.267320
    23  O   -0.101928
    24  C   -0.303548
    25  H    0.198577
    26  H    0.193983
    27  H    0.201993
    28  C   -0.285663
    29  H    0.193258
    30  H    0.195196
    31  H    0.200338
    32  C    0.249303
    33  C   -0.483573
    34  S   -0.105256
    35  C   -0.093207
    36  H    0.141405
    37  C    0.158578
    38  O   -0.119307
    39  C    0.847709
    40  C   -0.293002
    41  C    0.075095
    42  S   -0.306640
    43  H    0.181229
    44  H    0.154945
    45  H    0.168517
    46  C   -0.562001
    47  O   -0.128195
    48  C   -0.397652
    49  H    0.153872
    50  C   -0.298935
    51  H    0.183486
    52  H    0.156078
    53  H    0.177702
    54  H    0.156043
 Sum of Mulliken charges =  -0.00000

 Dipole moment (field-independent basis, Debye):
    X=             -0.8892    Y=              0.1569    Z=              0.0519  Tot=              0.9044
 Quadrupole moment (field-independent basis, Debye-Ang):
   XX=           -218.1103   YY=           -231.4363   ZZ=           -195.0305
   XY=             -2.5139   XZ=              9.9083   YZ=              3.4962

 Normal termination of Gaussian 16 at Sun Nov 29 20:13:00 2020.
