 Gaussian 16, Revision C.01,
 Gaussian 16:  ES64L-G16RevC.01  3-Jul-2019

 --------------------------------------
 # opt=modredundant wb97xd/6-311+g(d,p)
 --------------------------------------

 -----------
 NDI_120.pdb
 -----------
 Symbolic Z-matrix:
 Charge =  0 Multiplicity = 1

 SCF Done:  E(RwB97XD) =  -2358.76475455     A.U. after   23 cycles
 SCF Done:  E(RwB97XD) =  -2358.77200803     A.U. after   18 cycles
 SCF Done:  E(RwB97XD) =  -2358.77240932     A.U. after   16 cycles
 SCF Done:  E(RwB97XD) =  -2358.77330664     A.U. after   16 cycles
 SCF Done:  E(RwB97XD) =  -2358.77338549     A.U. after   15 cycles
 SCF Done:  E(RwB97XD) =  -2358.77339893     A.U. after   15 cycles
 SCF Done:  E(RwB97XD) =  -2358.77340762     A.U. after   13 cycles
 SCF Done:  E(RwB97XD) =  -2358.77340867     A.U. after   13 cycles
 SCF Done:  E(RwB97XD) =  -2358.77340975     A.U. after   11 cycles
 SCF Done:  E(RwB97XD) =  -2358.77340992     A.U. after   10 cycles
 SCF Done:  E(RwB97XD) =  -2358.77341002     A.U. after   10 cycles
 SCF Done:  E(RwB97XD) =  -2358.77341004     A.U. after   10 cycles
 Optimization completed.
    -- Stationary point found.

                         Standard orientation:
 ---------------------------------------------------------------------
 Center     Atomic      Atomic             Coordinates (Angstroms)
 Number     Number       Type             X           Y           Z
 ---------------------------------------------------------------------
      1          6           0        3.390696   -2.754413    0.373078
      2          6           0        2.687946   -1.471467    0.106866
      3          6           0        3.399663   -0.255329    0.129180
      4          6           0        4.781564   -0.236049    0.407784
      5          6           0        5.507798   -1.503756    0.693462
      6          6           0        1.343024   -1.473469   -0.144286
      7          6           0        2.714895    0.946556   -0.148302
      8          6           0        1.320989    0.929847   -0.418062
      9          6           0        0.628140   -0.275176   -0.395434
     10          6           0        0.671311    2.200988   -0.859476
     11          6           0        2.786307    3.443755   -0.460400
     12          6           0        3.450575    2.152885   -0.145106
     13          6           0        4.797582    2.153357    0.136040
     14          6           0        5.469811    0.954136    0.416255
     15          1           0        6.530413    0.947565    0.635247
     16          1           0        5.326465    3.098546    0.132493
     17          1           0        0.804213   -2.413241   -0.128244
     18          7           0        1.443348    3.369284   -0.813402
     19          7           0        4.754812   -2.680895    0.653532
     20          8           0        2.823646   -3.823037    0.355045
     21          8           0        6.690875   -1.519315    0.945017
     22          8           0        3.382484    4.497247   -0.428478
     23          8           0       -0.471678    2.267860   -1.242090
     24          6           0        0.755367    4.599649   -1.203825
     25          1           0        0.392792    4.510762   -2.227863
     26          1           0       -0.099694    4.766440   -0.548572
     27          1           0        1.462852    5.418977   -1.119787
     28          6           0        5.426908   -3.951685    0.922438
     29          1           0        4.951991   -4.445961    1.769885
     30          1           0        5.347459   -4.602556    0.051450
     31          1           0        6.469062   -3.740153    1.141968
     32          6           0       -0.830986   -0.419246   -0.556649
     33          6           0       -1.473880   -1.124329   -1.531642
     34         16           0       -1.923724    0.169932    0.638493
     35          6           0       -2.879344   -1.152396   -1.333108
     36          1           0       -0.958961   -1.578572   -2.366739
     37          6           0       -3.296857   -0.502918   -0.192478
     38          8           0       -3.789910   -1.737065   -2.147276
     39          6           0       -4.650823   -0.374248    0.303746
     40          6           0       -3.302204   -2.502199   -3.228900
     41          6           0       -5.062528    0.268190    1.451034
     42         16           0       -6.030738   -1.046376   -0.519769
     43          1           0       -4.177126   -2.921650   -3.722445
     44          1           0       -2.752035   -1.876860   -3.940733
     45          1           0       -2.657403   -3.316166   -2.879409
     46          6           0       -6.467785    0.223644    1.666720
     47          8           0       -4.146620    0.863642    2.252016
     48          6           0       -7.107500   -0.456755    0.675615
     49          1           0       -6.976713    0.670259    2.508755
     50          6           0       -4.619745    1.541779    3.396058
     51          1           0       -8.166786   -0.643356    0.584927
     52          1           0       -5.127116    0.855025    4.082547
     53          1           0       -3.741378    1.956918    3.887259
     54          1           0       -5.299669    2.355641    3.121256
 ---------------------------------------------------------------------

 The electronic state is 1-A.
 Alpha  occ. eigenvalues --  -89.04370 -89.04179 -19.28617 -19.28589 -19.25223
 Alpha  occ. eigenvalues --  -19.25185 -19.24790 -19.24695 -14.50777 -14.50348
 Alpha  occ. eigenvalues --  -10.43019 -10.42811 -10.42577 -10.42567 -10.35185
 Alpha  occ. eigenvalues --  -10.34934 -10.34842 -10.34602 -10.34513 -10.34369
 Alpha  occ. eigenvalues --  -10.34275 -10.34243 -10.34057 -10.34017 -10.33956
 Alpha  occ. eigenvalues --  -10.33082 -10.33081 -10.32998 -10.32804 -10.32376
 Alpha  occ. eigenvalues --  -10.32210 -10.32003 -10.31928 -10.31278 -10.29613
 Alpha  occ. eigenvalues --  -10.29239  -8.08389  -8.08202  -6.03248  -6.03045
 Alpha  occ. eigenvalues --   -6.02848  -6.02649  -6.02446  -6.02291  -1.19688
 Alpha  occ. eigenvalues --   -1.19382  -1.18343  -1.18261  -1.17784  -1.17446
 Alpha  occ. eigenvalues --   -1.06941  -1.06483  -1.03448  -1.00268  -0.98683
 Alpha  occ. eigenvalues --   -0.97190  -0.94941  -0.90546  -0.88886  -0.87118
 Alpha  occ. eigenvalues --   -0.85749  -0.85389  -0.84334  -0.82659  -0.82357
 Alpha  occ. eigenvalues --   -0.81250  -0.79465  -0.78203  -0.77001  -0.75733
 Alpha  occ. eigenvalues --   -0.75255  -0.74444  -0.70104  -0.68730  -0.67794
 Alpha  occ. eigenvalues --   -0.66797  -0.65695  -0.64665  -0.64387  -0.63223
 Alpha  occ. eigenvalues --   -0.62891  -0.60866  -0.59889  -0.59261  -0.59028
 Alpha  occ. eigenvalues --   -0.57984  -0.57802  -0.57428  -0.57097  -0.56752
 Alpha  occ. eigenvalues --   -0.56322  -0.56192  -0.55553  -0.55371  -0.54190
 Alpha  occ. eigenvalues --   -0.53943  -0.53750  -0.53422  -0.53167  -0.52514
 Alpha  occ. eigenvalues --   -0.51680  -0.51268  -0.51110  -0.50361  -0.50121
 Alpha  occ. eigenvalues --   -0.49746  -0.49597  -0.49307  -0.48899  -0.48432
 Alpha  occ. eigenvalues --   -0.48275  -0.47157  -0.46595  -0.45872  -0.45214
 Alpha  occ. eigenvalues --   -0.44208  -0.43671  -0.42134  -0.41420  -0.41072
 Alpha  occ. eigenvalues --   -0.40817  -0.40445  -0.39736  -0.38571  -0.37616
 Alpha  occ. eigenvalues --   -0.37502  -0.37103  -0.36849  -0.36085  -0.34985
 Alpha  occ. eigenvalues --   -0.33415  -0.31525  -0.31161  -0.25368
 Alpha virt. eigenvalues --   -0.07280  -0.00109   0.00483   0.02186   0.03035
 Alpha virt. eigenvalues --    0.05087   0.05912   0.06195   0.06630   0.06896
 Alpha virt. eigenvalues --    0.07221   0.07494   0.07576   0.07697   0.07965

 Mulliken charges:
               1
     1  C    0.426455
     2  C   -0.012328
     3  C    0.175038
     4  C    0.176950
     5  C    0.345589
     6  C   -0.542593
     7  C    0.179104
     8  C   -0.099076
     9  C    0.229524
    10  C   -0.259446
    11  C    0.333921
    12  C    0.101337
    13  C   -0.518720
    14  C   -0.728800
    15  H    0.188478
    16  H    0.189210
    17  H    0.197438
    18  N   -0.062396
    19  N   -0.093249
    20  O   -0.260392
    21  O   -0.268992
    22  O   -0.272792
    23  O   -0.165850
    24  C   -0.271490
    25  H    0.196514
    26  H    0.199401
    27  H    0.201566
    28  C   -0.282044
    29  H    0.193970
    30  H    0.193611
    31  H    0.200986
    32  C    0.402331
    33  C   -0.479111
    34  S   -0.418782
    35  C   -0.089072
    36  H    0.149218
    37  C    0.372296
    38  O   -0.110607
    39  C    0.879807
    40  C   -0.294103
    41  C    0.048546
    42  S   -0.298529
    43  H    0.182030
    44  H    0.159190
    45  H    0.164633
    46  C   -0.592221
    47  O   -0.123355
    48  C   -0.371401
    49  H    0.154519
    50  C   -0.301815
    51  H    0.184319
    52  H    0.155288
    53  H    0.178186
    54  H    0.157711
 Sum of Mulliken charges =  -0.00000

 Dipole moment (field-independent basis, Debye):
    X=             -1.4164    Y=             -0.1580    Z=              0.1910  Tot=              1.4379
 Quadrupole moment (field-independent basis, Debye-Ang):
   XX=           -216.3827   YY=           -224.8296   ZZ=           -202.6664
   XY=             -6.2042   XZ=            -10.4905   YZ=             12.2836

 Normal termination of Gaussian 16 at Sun Nov 29 21:54:46 2020.
