 Gaussian 16, Revision C.01,
 Gaussian 16:  ES64L-G16RevC.01  3-Jul-2019

 --------------------------------------
 # opt=modredundant wb97xd/6-311+g(d,p)
 --------------------------------------

 ----------
 NDI_20.pdb
 ----------
 Symbolic Z-matrix:
 Charge =  0 Multiplicity = 1

 SCF Done:  E(RwB97XD) =  -2358.75563134     A.U. after   19 cycles
 SCF Done:  E(RwB97XD) =  -2358.75039270     A.U. after   20 cycles
 SCF Done:  E(RwB97XD) =  -2358.76628156     A.U. after   17 cycles
 SCF Done:  E(RwB97XD) =  -2358.76870702     A.U. after   17 cycles
 SCF Done:  E(RwB97XD) =  -2358.76957482     A.U. after   17 cycles
 SCF Done:  E(RwB97XD) =  -2358.77007416     A.U. after   16 cycles
 SCF Done:  E(RwB97XD) =  -2358.77038571     A.U. after   15 cycles
 SCF Done:  E(RwB97XD) =  -2358.77062738     A.U. after   15 cycles
 SCF Done:  E(RwB97XD) =  -2358.77089442     A.U. after   15 cycles
 SCF Done:  E(RwB97XD) =  -2358.77105720     A.U. after   17 cycles
 SCF Done:  E(RwB97XD) =  -2358.77111112     A.U. after   14 cycles
 SCF Done:  E(RwB97XD) =  -2358.77114355     A.U. after   13 cycles
 SCF Done:  E(RwB97XD) =  -2358.77114688     A.U. after   12 cycles
 SCF Done:  E(RwB97XD) =  -2358.77115024     A.U. after   13 cycles
 SCF Done:  E(RwB97XD) =  -2358.77115094     A.U. after   12 cycles
 SCF Done:  E(RwB97XD) =  -2358.77115114     A.U. after   12 cycles
 Optimization completed.
    -- Stationary point found.

                         Standard orientation:
 ---------------------------------------------------------------------
 Center     Atomic      Atomic             Coordinates (Angstroms)
 Number     Number       Type             X           Y           Z
 ---------------------------------------------------------------------
      1          6           0       -2.520147   -3.003471    0.301783
      2          6           0       -2.227669   -1.551970    0.160011
      3          6           0       -3.277551   -0.613828    0.093077
      4          6           0       -4.616907   -1.040298    0.152464
      5          6           0       -4.942177   -2.486769    0.287546
      6          6           0       -0.934253   -1.134542    0.110361
      7          6           0       -2.954238    0.751243   -0.061210
      8          6           0       -1.592612    1.185168   -0.109721
      9          6           0       -0.556598    0.238933   -0.003512
     10          6           0       -1.356911    2.610402   -0.481793
     11          6           0       -3.791261    3.102974   -0.382632
     12          6           0       -4.032878    1.660284   -0.160274
     13          6           0       -5.340628    1.230367   -0.082896
     14          6           0       -5.642387   -0.125684    0.075399
     15          1           0       -6.667066   -0.471579    0.126187
     16          1           0       -6.127701    1.970372   -0.159836
     17          1           0       -0.169403   -1.895060    0.208292
     18          7           0       -2.464967    3.463264   -0.576611
     19          7           0       -3.862622   -3.373916    0.334344
     20          8           0       -1.649067   -3.837929    0.399602
     21          8           0       -6.083998   -2.881489    0.349715
     22          8           0       -4.689320    3.915762   -0.420792
     23          8           0       -0.265019    3.086684   -0.702465
     24          6           0       -2.167166    4.857446   -0.902362
     25          1           0       -1.515722    5.286352   -0.140543
     26          1           0       -1.656152    4.910633   -1.863408
     27          1           0       -3.108309    5.397523   -0.940444
     28          6           0       -4.135387   -4.803863    0.471007
     29          1           0       -3.673507   -5.344893   -0.354765
     30          1           0       -3.714328   -5.173181    1.406528
     31          1           0       -5.212337   -4.942184    0.460983
     32          6           0        0.879010    0.484122    0.164147
     33          6           0        1.564681    1.586041    0.611767
     34         16           0        1.997720   -0.773518   -0.295592
     35          6           0        2.960260    1.405481    0.619429
     36          1           0        1.081878    2.490145    0.937179
     37          6           0        3.374832    0.174949    0.142623
     38          8           0        3.881636    2.316164    1.007870
     39          6           0        4.730961   -0.300237    0.000416
     40          6           0        3.407881    3.518300    1.581942
     41          6           0        5.137565   -1.537076   -0.457759
     42         16           0        6.124161    0.664705    0.406028
     43          1           0        4.292218    4.092859    1.851320
     44          1           0        2.807192    4.088084    0.865100
     45          1           0        2.815592    3.317930    2.481400
     46          6           0        6.548625   -1.707557   -0.481537
     47          8           0        4.212838   -2.449855   -0.827176
     48          6           0        7.196277   -0.593244   -0.040120
     49          1           0        7.055987   -2.604291   -0.806603
     50          6           0        4.672459   -3.691279   -1.322551
     51          1           0        8.262250   -0.446754    0.047312
     52          1           0        5.251348   -4.228919   -0.564062
     53          1           0        3.781819   -4.265873   -1.569755
     54          1           0        5.279988   -3.555641   -2.223657
 ---------------------------------------------------------------------

 The electronic state is 1-A.
 Alpha  occ. eigenvalues --  -89.05045 -89.04891 -19.29323 -19.28977 -19.24913
 Alpha  occ. eigenvalues --  -19.24903 -19.24323 -19.24310 -14.50487 -14.50068
 Alpha  occ. eigenvalues --  -10.42689 -10.42505 -10.42468 -10.42024 -10.35754
 Alpha  occ. eigenvalues --  -10.35661 -10.35429 -10.34693 -10.34354 -10.34289
 Alpha  occ. eigenvalues --  -10.34077 -10.33723 -10.33571 -10.33540 -10.33435
 Alpha  occ. eigenvalues --  -10.33299 -10.33200 -10.32667 -10.32626 -10.32420
 Alpha  occ. eigenvalues --  -10.32349 -10.32160 -10.32083 -10.31905 -10.29896
 Alpha  occ. eigenvalues --  -10.29894  -8.09084  -8.08911  -6.03932  -6.03753
 Alpha  occ. eigenvalues --   -6.03533  -6.03357  -6.03156  -6.03000  -1.19402
 Alpha  occ. eigenvalues --   -1.19109  -1.19054  -1.18711  -1.17484  -1.17067
 Alpha  occ. eigenvalues --   -1.06650  -1.06137  -1.02944  -1.00782  -0.99135
 Alpha  occ. eigenvalues --   -0.97006  -0.94473  -0.90523  -0.88487  -0.87563
 Alpha  occ. eigenvalues --   -0.86142  -0.85141  -0.84953  -0.82881  -0.82208
 Alpha  occ. eigenvalues --   -0.81496  -0.79703  -0.78342  -0.76799  -0.75371
 Alpha  occ. eigenvalues --   -0.75129  -0.74144  -0.70289  -0.68999  -0.67958
 Alpha  occ. eigenvalues --   -0.66476  -0.65794  -0.65346  -0.64472  -0.63770
 Alpha  occ. eigenvalues --   -0.62335  -0.60586  -0.59639  -0.59159  -0.58695
 Alpha  occ. eigenvalues --   -0.58410  -0.57615  -0.57549  -0.57221  -0.57089
 Alpha  occ. eigenvalues --   -0.56701  -0.55780  -0.55364  -0.55007  -0.54501
 Alpha  occ. eigenvalues --   -0.53854  -0.53652  -0.53232  -0.53102  -0.51816
 Alpha  occ. eigenvalues --   -0.51658  -0.51110  -0.50929  -0.50497  -0.50464
 Alpha  occ. eigenvalues --   -0.50146  -0.49481  -0.49387  -0.48751  -0.48315
 Alpha  occ. eigenvalues --   -0.47849  -0.47731  -0.46947  -0.45902  -0.45296
 Alpha  occ. eigenvalues --   -0.44560  -0.44182  -0.42517  -0.41830  -0.41506
 Alpha  occ. eigenvalues --   -0.41215  -0.40003  -0.39531  -0.38487  -0.37841
 Alpha  occ. eigenvalues --   -0.37238  -0.37050  -0.36670  -0.36262  -0.34488
 Alpha  occ. eigenvalues --   -0.33121  -0.31824  -0.31712  -0.25688
 Alpha virt. eigenvalues --   -0.07162  -0.01043   0.00529   0.02549   0.03626
 Alpha virt. eigenvalues --    0.05286   0.05722   0.06114   0.06775   0.07106
 Alpha virt. eigenvalues --    0.07122   0.07451   0.07811   0.08015   0.08045

 Mulliken charges:
               1
     1  C    0.302124
     2  C    0.011690
     3  C    0.257616
     4  C    0.226164
     5  C    0.329138
     6  C    0.093930
     7  C    0.253618
     8  C    0.376974
     9  C    0.230168
    10  C   -0.847209
    11  C    0.253193
    12  C    0.118864
    13  C   -0.559438
    14  C   -0.684452
    15  H    0.186478
    16  H    0.188654
    17  H    0.192468
    18  N   -0.061164
    19  N   -0.089094
    20  O   -0.268031
    21  O   -0.265581
    22  O   -0.275649
    23  O   -0.233402
    24  C   -0.262022
    25  H    0.188946
    26  H    0.198052
    27  H    0.201215
    28  C   -0.282292
    29  H    0.191470
    30  H    0.194204
    31  H    0.199699
    32  C   -0.149683
    33  C   -0.356113
    34  S   -0.729656
    35  C   -0.285928
    36  H    0.172279
    37  C    0.720143
    38  O   -0.105692
    39  C    0.942851
    40  C   -0.309479
    41  C    0.047376
    42  S   -0.259880
    43  H    0.182407
    44  H    0.171765
    45  H    0.161770
    46  C   -0.636461
    47  O   -0.110594
    48  C   -0.360137
    49  H    0.157466
    50  C   -0.308719
    51  H    0.188290
    52  H    0.158151
    53  H    0.184987
    54  H    0.158529
 Sum of Mulliken charges =  -0.00000

 Dipole moment (field-independent basis, Debye):
    X=              3.4519    Y=             -0.5713    Z=              0.2119  Tot=              3.5052
 Quadrupole moment (field-independent basis, Debye-Ang):
   XX=           -215.1034   YY=           -207.5271   ZZ=           -218.4227
   XY=             -4.7560   XZ=             -1.1653   YZ=             11.3404

 Normal termination of Gaussian 16 at Sun Nov 29 21:36:00 2020.
