 Gaussian 16, Revision C.01,
 Gaussian 16:  ES64L-G16RevC.01  3-Jul-2019

 --------------------------------------
 # opt=modredundant wb97xd/6-311+g(d,p)
 --------------------------------------

 -----------
 NDI_-15.pdb
 -----------
 Symbolic Z-matrix:
 Charge =  0 Multiplicity = 1

 SCF Done:  E(RwB97XD) =  -2358.76143494     A.U. after   20 cycles
 SCF Done:  E(RwB97XD) =  -2358.74724474     A.U. after   22 cycles
 SCF Done:  E(RwB97XD) =  -2358.76643266     A.U. after   17 cycles
 SCF Done:  E(RwB97XD) =  -2358.76924133     A.U. after   18 cycles
 SCF Done:  E(RwB97XD) =  -2358.76995039     A.U. after   19 cycles
 SCF Done:  E(RwB97XD) =  -2358.77048318     A.U. after   16 cycles
 SCF Done:  E(RwB97XD) =  -2358.77060186     A.U. after   14 cycles
 SCF Done:  E(RwB97XD) =  -2358.77061573     A.U. after   16 cycles
 SCF Done:  E(RwB97XD) =  -2358.77074342     A.U. after   15 cycles
 SCF Done:  E(RwB97XD) =  -2358.77074872     A.U. after   13 cycles
 SCF Done:  E(RwB97XD) =  -2358.77075009     A.U. after   13 cycles
 SCF Done:  E(RwB97XD) =  -2358.77075057     A.U. after   11 cycles
 SCF Done:  E(RwB97XD) =  -2358.77075077     A.U. after   12 cycles
 SCF Done:  E(RwB97XD) =  -2358.77075086     A.U. after   10 cycles
 Optimization completed.
    -- Stationary point found.

                         Standard orientation:
 ---------------------------------------------------------------------
 Center     Atomic      Atomic             Coordinates (Angstroms)
 Number     Number       Type             X           Y           Z
 ---------------------------------------------------------------------
      1          6           0       -2.507912   -3.017171   -0.191334
      2          6           0       -2.221426   -1.561394   -0.087184
      3          6           0       -3.274305   -0.624353   -0.075906
      4          6           0       -4.610504   -1.054158   -0.167071
      5          6           0       -4.929343   -2.503745   -0.281822
      6          6           0       -0.930008   -1.138665   -0.035325
      7          6           0       -2.956442    0.744547    0.050799
      8          6           0       -1.597251    1.182212    0.123720
      9          6           0       -0.555437    0.238102    0.047427
     10          6           0       -1.377527    2.610001    0.493774
     11          6           0       -3.802671    3.104046    0.271373
     12          6           0       -4.037888    1.654778    0.089683
     13          6           0       -5.342434    1.221107   -0.016996
     14          6           0       -5.638528   -0.139151   -0.147155
     15          1           0       -6.660819   -0.487427   -0.223201
     16          1           0       -6.131724    1.962227    0.011526
     17          1           0       -0.165079   -1.902728   -0.098935
     18          7           0       -2.484029    3.469587    0.505301
     19          7           0       -3.847396   -3.389490   -0.277920
     20          8           0       -1.634023   -3.854354   -0.208750
     21          8           0       -6.068099   -2.902153   -0.370526
     22          8           0       -4.699738    3.918447    0.248343
     23          8           0       -0.299261    3.082019    0.782129
     24          6           0       -2.198981    4.869872    0.815422
     25          1           0       -1.743180    4.944663    1.802485
     26          1           0       -1.503429    5.278311    0.081855
     27          1           0       -3.138492    5.413464    0.786432
     28          6           0       -4.114288   -4.823075   -0.384918
     29          1           0       -3.614410   -5.225525   -1.266009
     30          1           0       -3.730706   -5.336090    0.497284
     31          1           0       -5.188768   -4.958778   -0.463446
     32          6           0        0.877588    0.487114   -0.131536
     33          6           0        1.560779    1.608837   -0.533845
     34         16           0        2.003374   -0.788292    0.261715
     35          6           0        2.955928    1.432348   -0.557049
     36          1           0        1.077019    2.526895   -0.814809
     37          6           0        3.375580    0.181750   -0.140231
     38          8           0        3.871221    2.354551   -0.931646
     39          6           0        4.732978   -0.297818   -0.031776
     40          6           0        3.403288    3.660996   -1.205717
     41          6           0        5.144423   -1.552647    0.370086
     42         16           0        6.121815    0.685776   -0.406318
     43          1           0        4.288132    4.262371   -1.406061
     44          1           0        2.752976    3.669737   -2.087220
     45          1           0        2.863495    4.074005   -0.347258
     46          6           0        6.555837   -1.721438    0.376887
     47          8           0        4.223921   -2.479304    0.713308
     48          6           0        7.198621   -0.588060   -0.021065
     49          1           0        7.066922   -2.630152    0.660077
     50          6           0        4.685685   -3.762747    1.084430
     51          1           0        8.263762   -0.436075   -0.109321
     52          1           0        5.317221   -3.711595    1.977761
     53          1           0        3.796857   -4.351238    1.303785
     54          1           0        5.240436   -4.233885    0.266127
 ---------------------------------------------------------------------

 The electronic state is 1-A.
 Alpha  occ. eigenvalues --  -89.05089 -89.04946 -19.29373 -19.29006 -19.24899
 Alpha  occ. eigenvalues --  -19.24890 -19.24337 -19.24308 -14.50474 -14.50066
 Alpha  occ. eigenvalues --  -10.42673 -10.42491 -10.42469 -10.42015 -10.35822
 Alpha  occ. eigenvalues --  -10.35683 -10.35471 -10.34719 -10.34336 -10.34254
 Alpha  occ. eigenvalues --  -10.34019 -10.33676 -10.33544 -10.33523 -10.33514
 Alpha  occ. eigenvalues --  -10.33268 -10.33257 -10.32678 -10.32671 -10.32394
 Alpha  occ. eigenvalues --  -10.32316 -10.32147 -10.32146 -10.31937 -10.29947
 Alpha  occ. eigenvalues --  -10.29911  -8.09129  -8.08966  -6.03978  -6.03809
 Alpha  occ. eigenvalues --   -6.03578  -6.03412  -6.03201  -6.03055  -1.19386
 Alpha  occ. eigenvalues --   -1.19110  -1.19106  -1.18739  -1.17469  -1.17064
 Alpha  occ. eigenvalues --   -1.06635  -1.06144  -1.02926  -1.00826  -0.99176
 Alpha  occ. eigenvalues --   -0.96999  -0.94455  -0.90532  -0.88475  -0.87596
 Alpha  occ. eigenvalues --   -0.86167  -0.85137  -0.84990  -0.82920  -0.82212
 Alpha  occ. eigenvalues --   -0.81495  -0.79733  -0.78358  -0.76799  -0.75356
 Alpha  occ. eigenvalues --   -0.75133  -0.74132  -0.70314  -0.69031  -0.67976
 Alpha  occ. eigenvalues --   -0.66470  -0.65804  -0.65393  -0.64472  -0.63823
 Alpha  occ. eigenvalues --   -0.62314  -0.60583  -0.59649  -0.59171  -0.58686
 Alpha  occ. eigenvalues --   -0.58410  -0.57642  -0.57566  -0.57227  -0.57098
 Alpha  occ. eigenvalues --   -0.56726  -0.55780  -0.55352  -0.55015  -0.54510
 Alpha  occ. eigenvalues --   -0.53826  -0.53689  -0.53250  -0.53099  -0.51751
 Alpha  occ. eigenvalues --   -0.51702  -0.51111  -0.50926  -0.50641  -0.50403
 Alpha  occ. eigenvalues --   -0.50144  -0.49487  -0.49388  -0.48770  -0.48350
 Alpha  occ. eigenvalues --   -0.47841  -0.47784  -0.46880  -0.45934  -0.45369
 Alpha  occ. eigenvalues --   -0.44583  -0.44222  -0.42555  -0.41940  -0.41452
 Alpha  occ. eigenvalues --   -0.41195  -0.39986  -0.39514  -0.38472  -0.37859
 Alpha  occ. eigenvalues --   -0.37225  -0.37055  -0.36673  -0.36285  -0.34491
 Alpha  occ. eigenvalues --   -0.33119  -0.31865  -0.31739  -0.25712
 Alpha virt. eigenvalues --   -0.07164  -0.01157   0.00548   0.02571   0.03650
 Alpha virt. eigenvalues --    0.05291   0.05714   0.06106   0.06763   0.07115
 Alpha virt. eigenvalues --    0.07122   0.07403   0.07840   0.08061   0.08089

 Mulliken charges:
               1
     1  C    0.302355
     2  C   -0.010085
     3  C    0.228657
     4  C    0.242654
     5  C    0.327030
     6  C    0.114757
     7  C    0.247626
     8  C    0.399866
     9  C    0.234745
    10  C   -0.939368
    11  C    0.244941
    12  C    0.121517
    13  C   -0.555386
    14  C   -0.669424
    15  H    0.186399
    16  H    0.188454
    17  H    0.189624
    18  N   -0.042707
    19  N   -0.089449
    20  O   -0.269419
    21  O   -0.264746
    22  O   -0.275953
    23  O   -0.243231
    24  C   -0.257593
    25  H    0.198772
    26  H    0.188204
    27  H    0.201473
    28  C   -0.282702
    29  H    0.192668
    30  H    0.192764
    31  H    0.199324
    32  C   -0.079232
    33  C   -0.265884
    34  S   -0.733982
    35  C   -0.338695
    36  H    0.169671
    37  C    0.674728
    38  O   -0.106362
    39  C    0.964952
    40  C   -0.315377
    41  C    0.045612
    42  S   -0.255911
    43  H    0.182455
    44  H    0.157107
    45  H    0.179946
    46  C   -0.649385
    47  O   -0.109379
    48  C   -0.361946
    49  H    0.157716
    50  C   -0.308967
    51  H    0.188676
    52  H    0.156755
    53  H    0.185835
    54  H    0.159905
 Sum of Mulliken charges =  -0.00000

 Dipole moment (field-independent basis, Debye):
    X=              3.5912    Y=             -0.5176    Z=             -0.1235  Tot=              3.6304
 Quadrupole moment (field-independent basis, Debye-Ang):
   XX=           -214.4291   YY=           -205.8454   ZZ=           -220.4382
   XY=             -4.6778   XZ=              0.7657   YZ=             -8.6103

 Normal termination of Gaussian 16 at Sun Nov 29 22:52:52 2020.
