 Gaussian 16, Revision C.01,
 Gaussian 16:  ES64L-G16RevC.01  3-Jul-2019

 --------------------------------------
 # opt=modredundant wb97xd/6-311+g(d,p)
 --------------------------------------

 ------------
 NDI_-125.pdb
 ------------
 Symbolic Z-matrix:
 Charge =  0 Multiplicity = 1

 SCF Done:  E(RwB97XD) =  -2358.76118384     A.U. after   21 cycles
 SCF Done:  E(RwB97XD) =  -2358.76835703     A.U. after   18 cycles
 SCF Done:  E(RwB97XD) =  -2358.77167728     A.U. after   16 cycles
 SCF Done:  E(RwB97XD) =  -2358.77262665     A.U. after   16 cycles
 SCF Done:  E(RwB97XD) =  -2358.77286912     A.U. after   15 cycles
 SCF Done:  E(RwB97XD) =  -2358.77292438     A.U. after   16 cycles
 SCF Done:  E(RwB97XD) =  -2358.77304190     A.U. after   15 cycles
 SCF Done:  E(RwB97XD) =  -2358.77305533     A.U. after   14 cycles
 SCF Done:  E(RwB97XD) =  -2358.77305876     A.U. after   13 cycles
 SCF Done:  E(RwB97XD) =  -2358.77305934     A.U. after   11 cycles
 SCF Done:  E(RwB97XD) =  -2358.77305958     A.U. after   12 cycles
 SCF Done:  E(RwB97XD) =  -2358.77305968     A.U. after   11 cycles
 SCF Done:  E(RwB97XD) =  -2358.77305971     A.U. after   11 cycles
 SCF Done:  E(RwB97XD) =  -2358.77305972     A.U. after    9 cycles
 Optimization completed.
    -- Stationary point found.

                         Standard orientation:
 ---------------------------------------------------------------------
 Center     Atomic      Atomic             Coordinates (Angstroms)
 Number     Number       Type             X           Y           Z
 ---------------------------------------------------------------------
      1          6           0       -3.373944   -2.754759    0.397423
      2          6           0       -2.678179   -1.468987    0.126104
      3          6           0       -3.395338   -0.255919    0.147059
      4          6           0       -4.778392   -0.243921    0.419453
      5          6           0       -5.500792   -1.515900    0.695699
      6          6           0       -1.337380   -1.467393   -0.143318
      7          6           0       -2.715851    0.948086   -0.134730
      8          6           0       -1.321243    0.937995   -0.405031
      9          6           0       -0.625618   -0.266715   -0.396429
     10          6           0       -0.681932    2.209928   -0.858760
     11          6           0       -2.807870    3.440335   -0.478813
     12          6           0       -3.460276    2.149091   -0.142872
     13          6           0       -4.807840    2.143320    0.136405
     14          6           0       -5.473853    0.942193    0.421572
     15          1           0       -6.535574    0.930047    0.634725
     16          1           0       -5.342626    3.085088    0.122695
     17          1           0       -0.796629   -2.406068   -0.131510
     18          7           0       -1.467711    3.369902   -0.842137
     19          7           0       -4.743836   -2.690281    0.650003
     20          8           0       -2.795182   -3.817130    0.414371
     21          8           0       -6.684633   -1.537322    0.943222
     22          8           0       -3.411214    4.490089   -0.456706
     23          8           0        0.467071    2.287139   -1.221474
     24          6           0       -0.789874    4.600364   -1.249527
     25          1           0        0.055755    4.791782   -0.588745
     26          1           0       -0.416306    4.495386   -2.267986
     27          1           0       -1.508163    5.412405   -1.189469
     28          6           0       -5.410743   -3.964229    0.916778
     29          1           0       -5.271751   -4.634878    0.068956
     30          1           0       -4.977459   -4.429875    1.802309
     31          1           0       -6.466375   -3.764113    1.073638
     32          6           0        0.832691   -0.414321   -0.556684
     33          6           0        1.466699   -1.189621   -1.484864
     34         16           0        1.934301    0.222164    0.605946
     35          6           0        2.870737   -1.226845   -1.284318
     36          1           0        0.944976   -1.689821   -2.289048
     37          6           0        3.297040   -0.517984   -0.182403
     38          8           0        3.770393   -1.890369   -2.048722
     39          6           0        4.653104   -0.377050    0.304392
     40          6           0        3.298225   -2.500532   -3.231146
     41          6           0        5.073027    0.318530    1.417392
     42         16           0        6.026163   -1.095571   -0.491087
     43          1           0        4.171334   -2.927488   -3.721448
     44          1           0        2.583947   -3.300838   -3.007394
     45          1           0        2.830945   -1.765569   -3.895694
     46          6           0        6.479086    0.278244    1.628410
     47          8           0        4.164609    0.962088    2.188612
     48          6           0        7.110947   -0.452992    0.668948
     49          1           0        6.993984    0.762852    2.445423
     50          6           0        4.638441    1.634171    3.336017
     51          1           0        8.168816   -0.649888    0.583552
     52          1           0        5.336282    2.434620    3.066702
     53          1           0        3.763004    2.067540    3.816537
     54          1           0        5.125675    0.939464    4.028983
 ---------------------------------------------------------------------

 The electronic state is 1-A.
 Alpha  occ. eigenvalues --  -89.04375 -89.04220 -19.28652 -19.28620 -19.25201
 Alpha  occ. eigenvalues --  -19.25168 -19.24748 -19.24640 -14.50758 -14.50318
 Alpha  occ. eigenvalues --  -10.42996 -10.42792 -10.42548 -10.42522 -10.35206
 Alpha  occ. eigenvalues --  -10.34965 -10.34895 -10.34577 -10.34469 -10.34327
 Alpha  occ. eigenvalues --  -10.34295 -10.34267 -10.34022 -10.33989 -10.33906
 Alpha  occ. eigenvalues --  -10.33050 -10.33033 -10.32954 -10.32834 -10.32362
 Alpha  occ. eigenvalues --  -10.32285 -10.31981 -10.31965 -10.31324 -10.29679
 Alpha  occ. eigenvalues --  -10.29274  -8.08394  -8.08242  -6.03252  -6.03085
 Alpha  occ. eigenvalues --   -6.02852  -6.02689  -6.02450  -6.02331  -1.19670
 Alpha  occ. eigenvalues --   -1.19348  -1.18379  -1.18296  -1.17764  -1.17407
 Alpha  occ. eigenvalues --   -1.06920  -1.06448  -1.03410  -1.00296  -0.98705
 Alpha  occ. eigenvalues --   -0.97179  -0.94904  -0.90545  -0.88854  -0.87136
 Alpha  occ. eigenvalues --   -0.85774  -0.85368  -0.84372  -0.82650  -0.82380
 Alpha  occ. eigenvalues --   -0.81230  -0.79489  -0.78210  -0.76976  -0.75705
 Alpha  occ. eigenvalues --   -0.75233  -0.74434  -0.70095  -0.68749  -0.67809
 Alpha  occ. eigenvalues --   -0.66772  -0.65696  -0.64698  -0.64338  -0.63266
 Alpha  occ. eigenvalues --   -0.62881  -0.60838  -0.59867  -0.59242  -0.59006
 Alpha  occ. eigenvalues --   -0.58008  -0.57783  -0.57415  -0.57119  -0.56774
 Alpha  occ. eigenvalues --   -0.56339  -0.56158  -0.55518  -0.55359  -0.54194
 Alpha  occ. eigenvalues --   -0.53927  -0.53744  -0.53393  -0.53174  -0.52509
 Alpha  occ. eigenvalues --   -0.51653  -0.51251  -0.51076  -0.50349  -0.50113
 Alpha  occ. eigenvalues --   -0.49829  -0.49576  -0.49325  -0.48889  -0.48420
 Alpha  occ. eigenvalues --   -0.48230  -0.47157  -0.46661  -0.45842  -0.45169
 Alpha  occ. eigenvalues --   -0.44237  -0.43725  -0.42136  -0.41418  -0.41069
 Alpha  occ. eigenvalues --   -0.40988  -0.40392  -0.39712  -0.38522  -0.37598
 Alpha  occ. eigenvalues --   -0.37486  -0.37108  -0.36813  -0.36131  -0.34945
 Alpha  occ. eigenvalues --   -0.33378  -0.31539  -0.31160  -0.25381
 Alpha virt. eigenvalues --   -0.07276  -0.00153   0.00458   0.02192   0.03125
 Alpha virt. eigenvalues --    0.05076   0.05885   0.06155   0.06644   0.06878
 Alpha virt. eigenvalues --    0.07202   0.07501   0.07587   0.07640   0.07961

 Mulliken charges:
               1
     1  C    0.423413
     2  C   -0.014860
     3  C    0.162004
     4  C    0.254182
     5  C    0.382839
     6  C   -0.573115
     7  C    0.126478
     8  C   -0.031140
     9  C    0.220751
    10  C   -0.185616
    11  C    0.333134
    12  C    0.164390
    13  C   -0.509769
    14  C   -0.799993
    15  H    0.188812
    16  H    0.189430
    17  H    0.201465
    18  N   -0.067312
    19  N   -0.091393
    20  O   -0.260080
    21  O   -0.268582
    22  O   -0.273190
    23  O   -0.174794
    24  C   -0.271102
    25  H    0.199453
    26  H    0.196597
    27  H    0.201343
    28  C   -0.282696
    29  H    0.192332
    30  H    0.195472
    31  H    0.200839
    32  C    0.266207
    33  C   -0.525871
    34  S   -0.452014
    35  C   -0.146799
    36  H    0.153057
    37  C    0.362922
    38  O   -0.099011
    39  C    0.964082
    40  C   -0.310993
    41  C    0.025864
    42  S   -0.268586
    43  H    0.182294
    44  H    0.159027
    45  H    0.166890
    46  C   -0.551797
    47  O   -0.123790
    48  C   -0.359740
    49  H    0.154727
    50  C   -0.302369
    51  H    0.184909
    52  H    0.156487
    53  H    0.178522
    54  H    0.156686
 Sum of Mulliken charges =  -0.00000

 Dipole moment (field-independent basis, Debye):
    X=              1.5360    Y=             -0.0530    Z=              0.0187  Tot=              1.5370
 Quadrupole moment (field-independent basis, Debye-Ang):
   XX=           -215.9508   YY=           -225.0895   ZZ=           -202.5502
   XY=              7.2058   XZ=             10.0699   YZ=             12.7046

 Normal termination of Gaussian 16 at Sun Nov 29 22:29:55 2020.
