 Gaussian 16, Revision C.01,
 Gaussian 16:  ES64L-G16RevC.01  3-Jul-2019

 --------------------------------------
 # opt=modredundant wb97xd/6-311+g(d,p)
 --------------------------------------

 -----------
 NDI_105.pdb
 -----------
 Symbolic Z-matrix:
 Charge =  0 Multiplicity = 1

 SCF Done:  E(RwB97XD) =  -2358.76538764     A.U. after   19 cycles
 SCF Done:  E(RwB97XD) =  -2358.77208745     A.U. after   16 cycles
 SCF Done:  E(RwB97XD) =  -2358.77280866     A.U. after   18 cycles
 SCF Done:  E(RwB97XD) =  -2358.77328126     A.U. after   15 cycles
 SCF Done:  E(RwB97XD) =  -2358.77337440     A.U. after   15 cycles
 SCF Done:  E(RwB97XD) =  -2358.77341107     A.U. after   13 cycles
 SCF Done:  E(RwB97XD) =  -2358.77341411     A.U. after   13 cycles
 SCF Done:  E(RwB97XD) =  -2358.77342001     A.U. after   13 cycles
 SCF Done:  E(RwB97XD) =  -2358.77342111     A.U. after   11 cycles
 SCF Done:  E(RwB97XD) =  -2358.77342190     A.U. after   11 cycles
 SCF Done:  E(RwB97XD) =  -2358.77342218     A.U. after   11 cycles
 Optimization completed.
    -- Stationary point found.

                         Standard orientation:
 ---------------------------------------------------------------------
 Center     Atomic      Atomic             Coordinates (Angstroms)
 Number     Number       Type             X           Y           Z
 ---------------------------------------------------------------------
      1          6           0        3.354187   -2.798047    0.163813
      2          6           0        2.669691   -1.487694    0.005092
      3          6           0        3.404453   -0.288960    0.095248
      4          6           0        4.792738   -0.313148    0.342693
      5          6           0        5.501749   -1.610303    0.519050
      6          6           0        1.319667   -1.448142   -0.219039
      7          6           0        2.736592    0.942359   -0.073349
      8          6           0        1.338259    0.968129   -0.314953
      9          6           0        0.626620   -0.222664   -0.374616
     10          6           0        0.684170    2.287206   -0.574595
     11          6           0        2.841013    3.456375   -0.173586
     12          6           0        3.492357    2.133392    0.009262
     13          6           0        4.845243    2.090153    0.254758
     14          6           0        5.502026    0.861431    0.423764
     15          1           0        6.567014    0.820781    0.616428
     16          1           0        5.390727    3.024012    0.313461
     17          1           0        0.763421   -2.376582   -0.268604
     18          7           0        1.480283    3.434405   -0.460334
     19          7           0        4.725364   -2.767985    0.418096
     20          8           0        2.767838   -3.852754    0.079735
     21          8           0        6.690416   -1.663543    0.736880
     22          8           0        3.460164    4.493191   -0.086782
     23          8           0       -0.479639    2.407077   -0.870859
     24          6           0        0.795097    4.706307   -0.689861
     25          1           0        0.374122    4.722526   -1.695131
     26          1           0       -0.018250    4.820168    0.026823
     27          1           0        1.521798    5.503888   -0.569011
     28          6           0        5.379237   -4.066293    0.579143
     29          1           0        4.912900   -4.612563    1.398939
     30          1           0        5.269241   -4.650693   -0.334624
     31          1           0        6.429539   -3.889079    0.790009
     32          6           0       -0.835503   -0.320663   -0.571651
     33          6           0       -1.484480   -0.689092   -1.710579
     34         16           0       -1.921384   -0.066034    0.740870
     35          6           0       -2.893542   -0.736232   -1.529010
     36          1           0       -0.973828   -0.889217   -2.641998
     37          6           0       -3.305466   -0.429907   -0.252236
     38          8           0       -3.810589   -1.037161   -2.479190
     39          6           0       -4.660952   -0.407191    0.257501
     40          6           0       -3.332321   -1.470397   -3.734686
     41          6           0       -5.067011   -0.110994    1.540030
     42         16           0       -6.050153   -0.767202   -0.729289
     43          1           0       -4.212949   -1.706808   -4.329407
     44          1           0       -2.760753   -0.681030   -4.235342
     45          1           0       -2.710856   -2.367098   -3.634018
     46          6           0       -6.475566   -0.171290    1.729802
     47          8           0       -4.142924    0.197996    2.482037
     48          6           0       -7.123680   -0.514710    0.582471
     49          1           0       -6.980987    0.028458    2.663713
     50          6           0       -4.609447    0.530039    3.772008
     51          1           0       -8.186828   -0.633367    0.438608
     52          1           0       -5.145772   -0.309390    4.228223
     53          1           0       -3.725160    0.756190    4.365399
     54          1           0       -5.261228    1.410197    3.743492
 ---------------------------------------------------------------------

 The electronic state is 1-A.
 Alpha  occ. eigenvalues --  -89.04301 -89.04036 -19.28469 -19.28463 -19.25276
 Alpha  occ. eigenvalues --  -19.25225 -19.24907 -19.24836 -14.50825 -14.50460
 Alpha  occ. eigenvalues --  -10.43077 -10.42853 -10.42694 -10.42688 -10.35195
 Alpha  occ. eigenvalues --  -10.34792 -10.34724 -10.34676 -10.34664 -10.34497
 Alpha  occ. eigenvalues --  -10.34166 -10.34155 -10.34151 -10.34091 -10.34089
 Alpha  occ. eigenvalues --  -10.33209 -10.33135 -10.33112 -10.32696 -10.32411
 Alpha  occ. eigenvalues --  -10.32078 -10.31964 -10.31788 -10.31117 -10.29413
 Alpha  occ. eigenvalues --  -10.29106  -8.08315  -8.08059  -6.03174  -6.02902
 Alpha  occ. eigenvalues --   -6.02774  -6.02506  -6.02373  -6.02148  -1.19739
 Alpha  occ. eigenvalues --   -1.19501  -1.18201  -1.18116  -1.17835  -1.17571
 Alpha  occ. eigenvalues --   -1.06998  -1.06589  -1.03548  -1.00160  -0.98597
 Alpha  occ. eigenvalues --   -0.97197  -0.95038  -0.90541  -0.88975  -0.87036
 Alpha  occ. eigenvalues --   -0.85658  -0.85439  -0.84189  -0.82704  -0.82252
 Alpha  occ. eigenvalues --   -0.81305  -0.79348  -0.78155  -0.77071  -0.75820
 Alpha  occ. eigenvalues --   -0.75326  -0.74461  -0.70121  -0.68643  -0.67738
 Alpha  occ. eigenvalues --   -0.66864  -0.65632  -0.64557  -0.64512  -0.63075
 Alpha  occ. eigenvalues --   -0.62890  -0.60935  -0.59955  -0.59344  -0.59094
 Alpha  occ. eigenvalues --   -0.57897  -0.57830  -0.57469  -0.56994  -0.56652
 Alpha  occ. eigenvalues --   -0.56360  -0.56177  -0.55639  -0.55392  -0.54204
 Alpha  occ. eigenvalues --   -0.53979  -0.53745  -0.53479  -0.53105  -0.52484
 Alpha  occ. eigenvalues --   -0.51726  -0.51325  -0.51210  -0.50409  -0.50076
 Alpha  occ. eigenvalues --   -0.49658  -0.49594  -0.49204  -0.48920  -0.48460
 Alpha  occ. eigenvalues --   -0.48385  -0.47022  -0.46616  -0.45886  -0.45054
 Alpha  occ. eigenvalues --   -0.44146  -0.43547  -0.42028  -0.41284  -0.41018
 Alpha  occ. eigenvalues --   -0.40703  -0.40542  -0.39797  -0.38658  -0.37630
 Alpha  occ. eigenvalues --   -0.37561  -0.37151  -0.36922  -0.35985  -0.35000
 Alpha  occ. eigenvalues --   -0.33542  -0.31421  -0.31092  -0.25296
 Alpha virt. eigenvalues --   -0.07310  -0.00048   0.00596   0.02228   0.02730
 Alpha virt. eigenvalues --    0.05009   0.05974   0.06241   0.06593   0.06899
 Alpha virt. eigenvalues --    0.07302   0.07425   0.07586   0.07694   0.08009

 Mulliken charges:
               1
     1  C    0.459609
     2  C    0.074167
     3  C    0.187672
     4  C    0.180209
     5  C    0.366029
     6  C   -0.680416
     7  C    0.159367
     8  C   -0.111332
     9  C    0.268297
    10  C   -0.231502
    11  C    0.313889
    12  C    0.176128
    13  C   -0.588230
    14  C   -0.736359
    15  H    0.188880
    16  H    0.189675
    17  H    0.197059
    18  N   -0.091043
    19  N   -0.095749
    20  O   -0.257822
    21  O   -0.268513
    22  O   -0.269737
    23  O   -0.128775
    24  C   -0.290393
    25  H    0.195483
    26  H    0.199244
    27  H    0.201857
    28  C   -0.284632
    29  H    0.194019
    30  H    0.194214
    31  H    0.200786
    32  C    0.335774
    33  C   -0.443796
    34  S   -0.233981
    35  C   -0.109345
    36  H    0.142625
    37  C    0.244761
    38  O   -0.113780
    39  C    0.848645
    40  C   -0.290899
    41  C    0.062297
    42  S   -0.304932
    43  H    0.181544
    44  H    0.159470
    45  H    0.163102
    46  C   -0.565254
    47  O   -0.126704
    48  C   -0.389475
    49  H    0.153987
    50  C   -0.299749
    51  H    0.183646
    52  H    0.154902
    53  H    0.177594
    54  H    0.157484
 Sum of Mulliken charges =  -0.00000

 Dipole moment (field-independent basis, Debye):
    X=             -1.0386    Y=             -0.0637    Z=              0.0817  Tot=              1.0437
 Quadrupole moment (field-independent basis, Debye-Ang):
   XX=           -217.5671   YY=           -230.0306   ZZ=           -196.8261
   XY=             -4.0583   XZ=            -10.2566   YZ=              6.3669

 Normal termination of Gaussian 16 at Sun Nov 29 21:14:37 2020.
