 Gaussian 16, Revision C.01,
 Gaussian 16:  ES64L-G16RevC.01  3-Jul-2019

 --------------------------------------
 # opt=modredundant wb97xd/6-311+g(d,p)
 --------------------------------------

 -----------
 NDI_-70.pdb
 -----------
 Symbolic Z-matrix:
 Charge =  0 Multiplicity = 1

 SCF Done:  E(RwB97XD) =  -2358.76666261     A.U. after   20 cycles
 SCF Done:  E(RwB97XD) =  -2358.77277809     A.U. after   17 cycles
 SCF Done:  E(RwB97XD) =  -2358.77345279     A.U. after   15 cycles
 SCF Done:  E(RwB97XD) =  -2358.77358846     A.U. after   14 cycles
 SCF Done:  E(RwB97XD) =  -2358.77363077     A.U. after   14 cycles
 SCF Done:  E(RwB97XD) =  -2358.77365232     A.U. after   12 cycles
 SCF Done:  E(RwB97XD) =  -2358.77365550     A.U. after   13 cycles
 SCF Done:  E(RwB97XD) =  -2358.77365840     A.U. after   11 cycles
 SCF Done:  E(RwB97XD) =  -2358.77365854     A.U. after   10 cycles
 SCF Done:  E(RwB97XD) =  -2358.77365862     A.U. after    8 cycles
 Optimization completed.
    -- Stationary point found.

                         Standard orientation:
 ---------------------------------------------------------------------
 Center     Atomic      Atomic             Coordinates (Angstroms)
 Number     Number       Type             X           Y           Z
 ---------------------------------------------------------------------
      1          6           0        3.016327   -2.865366    0.571435
      2          6           0        2.487243   -1.494325    0.343777
      3          6           0        3.367083   -0.434701    0.045566
      4          6           0        4.756602   -0.658286   -0.041170
      5          6           0        5.315206   -2.018797    0.190796
      6          6           0        1.143047   -1.261118    0.443047
      7          6           0        2.839889    0.855535   -0.175183
      8          6           0        1.440858    1.083483   -0.078026
      9          6           0        0.593527    0.032419    0.254549
     10          6           0        0.919341    2.444323   -0.414618
     11          6           0        3.240188    3.272732   -0.753697
     12          6           0        3.738925    1.899386   -0.489752
     13          6           0        5.092308    1.663185   -0.567360
     14          6           0        5.608034    0.378592   -0.340747
     15          1           0        6.672015    0.185919   -0.401177
     16          1           0        5.748324    2.490375   -0.809160
     17          1           0        0.483631   -2.083635    0.693778
     18          7           0        1.860178    3.439502   -0.713056
     19          7           0        4.398396   -3.031780    0.483891
     20          8           0        2.298969   -3.806413    0.822083
     21          8           0        6.502864   -2.240065    0.128713
     22          8           0        3.988623    4.191989   -1.000844
     23          8           0       -0.254558    2.725057   -0.445525
     24          6           0        1.310334    4.760113   -1.018358
     25          1           0        0.648375    4.693190   -1.881635
     26          1           0        0.734066    5.125977   -0.168455
     27          1           0        2.141433    5.426910   -1.227213
     28          6           0        4.900404   -4.385691    0.715822
     29          1           0        4.599192   -4.723978    1.707198
     30          1           0        4.481598   -5.066451   -0.025616
     31          1           0        5.983017   -4.360107    0.636299
     32          6           0       -0.862415    0.160767    0.458061
     33          6           0       -1.506146    0.781497    1.485424
     34         16           0       -1.961844   -0.638766   -0.602591
     35          6           0       -2.914025    0.628973    1.404443
     36          1           0       -0.988372    1.338800    2.252775
     37          6           0       -3.338342   -0.113703    0.324446
     38          8           0       -3.822616    1.135012    2.271307
     39          6           0       -4.700566   -0.425654   -0.053314
     40          6           0       -3.348476    2.002955    3.279139
     41          6           0       -5.116908   -1.195820   -1.117252
     42         16           0       -6.086086    0.168109    0.819133
     43          1           0       -4.227015    2.340503    3.826230
     44          1           0       -2.674493    1.480783    3.967430
     45          1           0       -2.834492    2.867636    2.845444
     46          6           0       -6.530205   -1.308212   -1.232288
     47          8           0       -4.197509   -1.757716   -1.938470
     48          6           0       -7.171397   -0.618459   -0.248601
     49          1           0       -7.043615   -1.869415   -1.999717
     50          6           0       -4.670381   -2.564923   -2.995690
     51          1           0       -8.236082   -0.534221   -0.092253
     52          1           0       -5.290166   -1.986266   -3.689442
     53          1           0       -3.787150   -2.926891   -3.519117
     54          1           0       -5.242313   -3.419008   -2.616697
 ---------------------------------------------------------------------

 The electronic state is 1-A.
 Alpha  occ. eigenvalues --  -89.04573 -89.04149 -19.28586 -19.28534 -19.25216
 Alpha  occ. eigenvalues --  -19.25153 -19.24873 -19.24776 -14.50761 -14.50452
 Alpha  occ. eigenvalues --  -10.43014 -10.42780 -10.42729 -10.42639 -10.35247
 Alpha  occ. eigenvalues --  -10.34906 -10.34805 -10.34669 -10.34617 -10.34399
 Alpha  occ. eigenvalues --  -10.34223 -10.34169 -10.34086 -10.34021 -10.33992
 Alpha  occ. eigenvalues --  -10.33098 -10.33057 -10.33028 -10.32699 -10.32356
 Alpha  occ. eigenvalues --  -10.32176 -10.32126 -10.31908 -10.31245 -10.29441
 Alpha  occ. eigenvalues --  -10.29210  -8.08585  -8.08172  -6.03440  -6.03041
 Alpha  occ. eigenvalues --   -6.03015  -6.02653  -6.02619  -6.02260  -1.19678
 Alpha  occ. eigenvalues --   -1.19480  -1.18300  -1.18218  -1.17771  -1.17537
 Alpha  occ. eigenvalues --   -1.06937  -1.06552  -1.03470  -1.00281  -0.98667
 Alpha  occ. eigenvalues --   -0.97202  -0.94970  -0.90533  -0.88915  -0.87111
 Alpha  occ. eigenvalues --   -0.85721  -0.85430  -0.84320  -0.82722  -0.82179
 Alpha  occ. eigenvalues --   -0.81471  -0.79345  -0.78202  -0.77055  -0.75768
 Alpha  occ. eigenvalues --   -0.75319  -0.74394  -0.70170  -0.68657  -0.67784
 Alpha  occ. eigenvalues --   -0.66812  -0.65571  -0.64822  -0.64575  -0.63152
 Alpha  occ. eigenvalues --   -0.62730  -0.60891  -0.59918  -0.59338  -0.59041
 Alpha  occ. eigenvalues --   -0.58011  -0.57811  -0.57430  -0.57053  -0.56712
 Alpha  occ. eigenvalues --   -0.56383  -0.56136  -0.55574  -0.55370  -0.54210
 Alpha  occ. eigenvalues --   -0.54056  -0.53610  -0.53478  -0.53128  -0.52423
 Alpha  occ. eigenvalues --   -0.51693  -0.51258  -0.51214  -0.50398  -0.50196
 Alpha  occ. eigenvalues --   -0.49717  -0.49617  -0.49201  -0.48971  -0.48436
 Alpha  occ. eigenvalues --   -0.48332  -0.47109  -0.46863  -0.45835  -0.45110
 Alpha  occ. eigenvalues --   -0.44134  -0.43643  -0.42120  -0.41363  -0.41116
 Alpha  occ. eigenvalues --   -0.40861  -0.40480  -0.39793  -0.38679  -0.37659
 Alpha  occ. eigenvalues --   -0.37518  -0.37128  -0.37029  -0.36128  -0.34767
 Alpha  occ. eigenvalues --   -0.33453  -0.31459  -0.31237  -0.25357
 Alpha virt. eigenvalues --   -0.07301  -0.00111   0.00555   0.02197   0.02854
 Alpha virt. eigenvalues --    0.05005   0.05947   0.06135   0.06748   0.06893
 Alpha virt. eigenvalues --    0.07369   0.07458   0.07594   0.07755   0.07894

 Mulliken charges:
               1
     1  C    0.458021
     2  C   -0.026320
     3  C    0.158405
     4  C    0.186949
     5  C    0.342004
     6  C   -0.663757
     7  C    0.169818
     8  C    0.099157
     9  C    0.443597
    10  C   -0.368160
    11  C    0.247514
    12  C    0.151370
    13  C   -0.534767
    14  C   -0.704957
    15  H    0.188491
    16  H    0.188917
    17  H    0.206455
    18  N   -0.103535
    19  N   -0.095903
    20  O   -0.258525
    21  O   -0.267240
    22  O   -0.270791
    23  O   -0.098539
    24  C   -0.294484
    25  H    0.197708
    26  H    0.193362
    27  H    0.201806
    28  C   -0.284551
    29  H    0.193663
    30  H    0.194222
    31  H    0.200035
    32  C    0.104708
    33  C   -0.406446
    34  S   -0.386518
    35  C   -0.063486
    36  H    0.146777
    37  C    0.497602
    38  O   -0.121190
    39  C    0.798053
    40  C   -0.296489
    41  C    0.008024
    42  S   -0.301355
    43  H    0.181281
    44  H    0.154356
    45  H    0.171468
    46  C   -0.578889
    47  O   -0.117735
    48  C   -0.368207
    49  H    0.154576
    50  C   -0.303003
    51  H    0.184315
    52  H    0.157107
    53  H    0.178738
    54  H    0.156343
 Sum of Mulliken charges =  -0.00000

 Dipole moment (field-independent basis, Debye):
    X=             -1.3411    Y=              0.0058    Z=              0.0540  Tot=              1.3422
 Quadrupole moment (field-independent basis, Debye-Ang):
   XX=           -218.0065   YY=           -221.1885   ZZ=           -204.7378
   XY=              1.5666   XZ=              7.8276   YZ=             15.3556

 Normal termination of Gaussian 16 at Sun Nov 29 20:04:59 2020.
