 Gaussian 16, Revision C.01,
 Gaussian 16:  ES64L-G16RevC.01  3-Jul-2019

 --------------------------------------
 # opt=modredundant wb97xd/6-311+g(d,p)
 --------------------------------------

 ----------
 NDI_55.pdb
 ----------
 Symbolic Z-matrix:
 Charge =  0 Multiplicity = 1

 SCF Done:  E(RwB97XD) =  -2358.76618614     A.U. after   19 cycles
 SCF Done:  E(RwB97XD) =  -2358.77234799     A.U. after   17 cycles
 SCF Done:  E(RwB97XD) =  -2358.77327917     A.U. after   16 cycles
 SCF Done:  E(RwB97XD) =  -2358.77350657     A.U. after   16 cycles
 SCF Done:  E(RwB97XD) =  -2358.77366299     A.U. after   13 cycles
 SCF Done:  E(RwB97XD) =  -2358.77372774     A.U. after   14 cycles
 SCF Done:  E(RwB97XD) =  -2358.77375916     A.U. after   12 cycles
 SCF Done:  E(RwB97XD) =  -2358.77376529     A.U. after   13 cycles
 SCF Done:  E(RwB97XD) =  -2358.77376750     A.U. after   12 cycles
 SCF Done:  E(RwB97XD) =  -2358.77376778     A.U. after   12 cycles
 SCF Done:  E(RwB97XD) =  -2358.77376795     A.U. after   10 cycles
 SCF Done:  E(RwB97XD) =  -2358.77376801     A.U. after   10 cycles
 Optimization completed.
    -- Stationary point found.

                         Standard orientation:
 ---------------------------------------------------------------------
 Center     Atomic      Atomic             Coordinates (Angstroms)
 Number     Number       Type             X           Y           Z
 ---------------------------------------------------------------------
      1          6           0       -2.754716   -2.915802    0.602759
      2          6           0       -2.347274   -1.506917    0.355036
      3          6           0       -3.318823   -0.520780    0.091111
      4          6           0       -4.686235   -0.858134    0.048087
      5          6           0       -5.123539   -2.261307    0.285883
      6          6           0       -1.024203   -1.172566    0.388036
      7          6           0       -2.900103    0.806136   -0.146434
      8          6           0       -1.518442    1.147634   -0.101026
      9          6           0       -0.573199    0.160655    0.184122
     10          6           0       -1.132847    2.547241   -0.456565
     11          6           0       -3.524054    3.172230   -0.738644
     12          6           0       -3.894070    1.768200   -0.437548
     13          6           0       -5.226604    1.422682   -0.469383
     14          6           0       -5.630550    0.103839   -0.223568
     15          1           0       -6.676297   -0.175833   -0.252068
     16          1           0       -5.953104    2.193269   -0.696113
     17          1           0       -0.300840   -1.946908    0.613421
     18          7           0       -2.162651    3.450145   -0.755803
     19          7           0       -4.118235   -3.198926    0.536856
     20          8           0       -1.957511   -3.788786    0.859181
     21          8           0       -6.290588   -2.578837    0.261399
     22          8           0       -4.354362    4.023516   -0.969140
     23          8           0        0.008140    2.943114   -0.504655
     24          6           0       -1.736228    4.808014   -1.092873
     25          1           0       -1.181597    5.240367   -0.259843
     26          1           0       -1.083919    4.782883   -1.965567
     27          1           0       -2.626066    5.394814   -1.299523
     28          6           0       -4.501351   -4.589092    0.779975
     29          1           0       -4.004275   -5.237585    0.058661
     30          1           0       -4.195260   -4.886807    1.783171
     31          1           0       -5.579806   -4.662363    0.676759
     32          6           0        0.876790    0.365578    0.324756
     33          6           0        1.544797    1.226867    1.146741
     34         16           0        1.968320   -0.691471   -0.503996
     35          6           0        2.945900    1.042088    1.100760
     36          1           0        1.045040    1.970730    1.748276
     37          6           0        3.354638    0.040226    0.243797
     38          8           0        3.869915    1.761538    1.779339
     39          6           0        4.710202   -0.365702   -0.055443
     40          6           0        3.399766    2.702281    2.722329
     41          6           0        5.110192   -1.393230   -0.883153
     42         16           0        6.109085    0.424873    0.617407
     43          1           0        4.284969    3.138611    3.181623
     44          1           0        2.817124    3.492096    2.235877
     45          1           0        2.791473    2.217581    3.493919
     46          6           0        6.521090   -1.544301   -0.976665
     47          8           0        4.178796   -2.147104   -1.512493
     48          6           0        7.176516   -0.624700   -0.215173
     49          1           0        7.022889   -2.292525   -1.573108
     50          6           0        4.634323   -3.164517   -2.379689
     51          1           0        8.243420   -0.511586   -0.096365
     52          1           0        5.222089   -3.913085   -1.837341
     53          1           0        3.742260   -3.635530   -2.788659
     54          1           0        5.232621   -2.748373   -3.197482
 ---------------------------------------------------------------------

 The electronic state is 1-A.
 Alpha  occ. eigenvalues --  -89.04771 -89.04420 -19.28865 -19.28688 -19.25098
 Alpha  occ. eigenvalues --  -19.25050 -19.24648 -19.24566 -14.50653 -14.50295
 Alpha  occ. eigenvalues --  -10.42886 -10.42669 -10.42622 -10.42400 -10.35362
 Alpha  occ. eigenvalues --  -10.35151 -10.35112 -10.34527 -10.34420 -10.34410
 Alpha  occ. eigenvalues --  -10.34246 -10.34147 -10.33892 -10.33841 -10.33729
 Alpha  occ. eigenvalues --  -10.32862 -10.32834 -10.32795 -10.32780 -10.32647
 Alpha  occ. eigenvalues --  -10.32279 -10.32175 -10.32018 -10.31548 -10.29673
 Alpha  occ. eigenvalues --  -10.29462  -8.08794  -8.08442  -6.03645  -6.03285
 Alpha  occ. eigenvalues --   -6.03248  -6.02889  -6.02864  -6.02531  -1.19571
 Alpha  occ. eigenvalues --   -1.19321  -1.18567  -1.18408  -1.17659  -1.17345
 Alpha  occ. eigenvalues --   -1.06824  -1.06377  -1.03262  -1.00466  -0.98831
 Alpha  occ. eigenvalues --   -0.97140  -0.94778  -0.90512  -0.88739  -0.87274
 Alpha  occ. eigenvalues --   -0.85884  -0.85318  -0.84572  -0.82704  -0.82228
 Alpha  occ. eigenvalues --   -0.81493  -0.79465  -0.78262  -0.76948  -0.75612
 Alpha  occ. eigenvalues --   -0.75227  -0.74298  -0.70194  -0.68762  -0.67855
 Alpha  occ. eigenvalues --   -0.66674  -0.65657  -0.64954  -0.64605  -0.63374
 Alpha  occ. eigenvalues --   -0.62561  -0.60758  -0.59797  -0.59237  -0.58898
 Alpha  occ. eigenvalues --   -0.58192  -0.57718  -0.57335  -0.57220  -0.56856
 Alpha  occ. eigenvalues --   -0.56475  -0.55965  -0.55488  -0.55237  -0.54273
 Alpha  occ. eigenvalues --   -0.54033  -0.53454  -0.53412  -0.53241  -0.52293
 Alpha  occ. eigenvalues --   -0.51610  -0.51133  -0.51085  -0.50344  -0.50306
 Alpha  occ. eigenvalues --   -0.49991  -0.49543  -0.49313  -0.48874  -0.48325
 Alpha  occ. eigenvalues --   -0.48152  -0.47384  -0.46938  -0.45705  -0.45322
 Alpha  occ. eigenvalues --   -0.44175  -0.43903  -0.42246  -0.41607  -0.41261
 Alpha  occ. eigenvalues --   -0.41051  -0.40289  -0.39712  -0.38624  -0.37700
 Alpha  occ. eigenvalues --   -0.37414  -0.37087  -0.36915  -0.36212  -0.34653
 Alpha  occ. eigenvalues --   -0.33270  -0.31538  -0.31434  -0.25490
 Alpha virt. eigenvalues --   -0.07244  -0.00324   0.00440   0.02273   0.03234
 Alpha virt. eigenvalues --    0.05139   0.05843   0.06128   0.06825   0.06942
 Alpha virt. eigenvalues --    0.07305   0.07530   0.07635   0.07823   0.07848

 Mulliken charges:
               1
     1  C    0.409658
     2  C   -0.090537
     3  C    0.145349
     4  C    0.181685
     5  C    0.350519
     6  C   -0.682531
     7  C    0.167368
     8  C    0.215700
     9  C    0.565665
    10  C   -0.374858
    11  C    0.257820
    12  C    0.141663
    13  C   -0.553876
    14  C   -0.676651
    15  H    0.187660
    16  H    0.188685
    17  H    0.212085
    18  N   -0.099522
    19  N   -0.093134
    20  O   -0.261180
    21  O   -0.267188
    22  O   -0.272378
    23  O   -0.158467
    24  C   -0.295197
    25  H    0.191771
    26  H    0.196625
    27  H    0.201219
    28  C   -0.283407
    29  H    0.192572
    30  H    0.194861
    31  H    0.200445
    32  C    0.034116
    33  C   -0.428096
    34  S   -0.558427
    35  C   -0.047778
    36  H    0.160561
    37  C    0.698063
    38  O   -0.113179
    39  C    0.786359
    40  C   -0.295771
    41  C   -0.035543
    42  S   -0.281798
    43  H    0.181605
    44  H    0.165562
    45  H    0.160223
    46  C   -0.585230
    47  O   -0.115789
    48  C   -0.347380
    49  H    0.155487
    50  C   -0.306762
    51  H    0.185623
    52  H    0.156434
    53  H    0.180525
    54  H    0.158776
 Sum of Mulliken charges =  -0.00000

 Dipole moment (field-independent basis, Debye):
    X=              2.1019    Y=             -0.3607    Z=              0.1688  Tot=              2.1393
 Quadrupole moment (field-independent basis, Debye-Ang):
   XX=           -217.4969   YY=           -215.1695   ZZ=           -210.3305
   XY=             -3.7424   XZ=             -5.6170   YZ=             16.2014

 Normal termination of Gaussian 16 at Sun Nov 29 22:06:01 2020.
