 Gaussian 16, Revision C.01,
 Gaussian 16:  ES64L-G16RevC.01  3-Jul-2019

 --------------------------------------
 # opt=modredundant wb97xd/6-311+g(d,p)
 --------------------------------------

 ---------
 NDI_0.pdb
 ---------
 Symbolic Z-matrix:
 Charge =  0 Multiplicity = 1

 SCF Done:  E(RwB97XD) =  -2358.75137492     A.U. after   19 cycles
 SCF Done:  E(RwB97XD) =  -2358.74590959     A.U. after   19 cycles
 SCF Done:  E(RwB97XD) =  -2358.76490209     A.U. after   17 cycles
 SCF Done:  E(RwB97XD) =  -2358.76739908     A.U. after   17 cycles
 SCF Done:  E(RwB97XD) =  -2358.76756122     A.U. after   14 cycles
 SCF Done:  E(RwB97XD) =  -2358.76798000     A.U. after   14 cycles
 SCF Done:  E(RwB97XD) =  -2358.76804300     A.U. after   14 cycles
 SCF Done:  E(RwB97XD) =  -2358.76808722     A.U. after   13 cycles
 SCF Done:  E(RwB97XD) =  -2358.76810297     A.U. after   14 cycles
 SCF Done:  E(RwB97XD) =  -2358.76810777     A.U. after   13 cycles
 SCF Done:  E(RwB97XD) =  -2358.76811002     A.U. after   11 cycles
 SCF Done:  E(RwB97XD) =  -2358.76811153     A.U. after   11 cycles
 SCF Done:  E(RwB97XD) =  -2358.76811180     A.U. after   12 cycles
 SCF Done:  E(RwB97XD) =  -2358.76811202     A.U. after   11 cycles
 SCF Done:  E(RwB97XD) =  -2358.76811215     A.U. after   10 cycles
 SCF Done:  E(RwB97XD) =  -2358.76811221     A.U. after   10 cycles
 Optimization completed.
    -- Stationary point found.

                         Standard orientation:
 ---------------------------------------------------------------------
 Center     Atomic      Atomic             Coordinates (Angstroms)
 Number     Number       Type             X           Y           Z
 ---------------------------------------------------------------------
      1          6           0       -2.337943   -3.029443    0.083934
      2          6           0       -2.134856   -1.556001    0.079690
      3          6           0       -3.231096   -0.681404   -0.052216
      4          6           0       -4.532758   -1.192061   -0.196733
      5          6           0       -4.767803   -2.661835   -0.218259
      6          6           0       -0.875119   -1.060858    0.182903
      7          6           0       -2.987030    0.707116   -0.005377
      8          6           0       -1.655964    1.225093    0.119342
      9          6           0       -0.557204    0.335643    0.169222
     10          6           0       -1.549461    2.685206    0.386223
     11          6           0       -3.975733    3.021802   -0.020289
     12          6           0       -4.116217    1.553284   -0.106722
     13          6           0       -5.387139    1.040767   -0.267133
     14          6           0       -5.606114   -0.338103   -0.313565
     15          1           0       -6.601596   -0.747488   -0.429730
     16          1           0       -6.211647    1.738431   -0.347231
     17          1           0       -0.086651   -1.798360    0.256967
     18          7           0       -2.697659    3.477667    0.267042
     19          7           0       -3.645962   -3.482811   -0.065711
     20          8           0       -1.423547   -3.814173    0.199928
     21          8           0       -5.875038   -3.129395   -0.355042
     22          8           0       -4.911705    3.778958   -0.160329
     23          8           0       -0.520783    3.250906    0.693130
     24          6           0       -2.507072    4.911827    0.480518
     25          1           0       -2.116863    5.088043    1.482623
     26          1           0       -1.791675    5.302960   -0.243232
     27          1           0       -3.471110    5.395544    0.355880
     28          6           0       -3.831081   -4.933092   -0.072254
     29          1           0       -3.246519   -5.374599   -0.879463
     30          1           0       -3.489109   -5.352388    0.874236
     31          1           0       -4.888191   -5.135847   -0.215128
     32          6           0        0.881089    0.615449    0.047098
     33          6           0        1.598615    1.776467   -0.146407
     34         16           0        1.994864   -0.734833    0.168092
     35          6           0        2.988044    1.577712   -0.220773
     36          1           0        1.137778    2.742021   -0.225288
     37          6           0        3.383610    0.263009   -0.061055
     38          8           0        3.919593    2.536502   -0.425495
     39          6           0        4.728933   -0.258740   -0.071929
     40          6           0        3.479503    3.881193   -0.438655
     41          6           0        5.114572   -1.574789    0.089787
     42         16           0        6.135801    0.744266   -0.299436
     43          1           0        4.375692    4.489937   -0.543645
     44          1           0        2.811548    4.069415   -1.285885
     45          1           0        2.967032    4.137700    0.494127
     46          6           0        6.520731   -1.773815    0.032065
     47          8           0        4.177343   -2.526189    0.284118
     48          6           0        7.185078   -0.602125   -0.173615
     49          1           0        7.012997   -2.729751    0.136958
     50          6           0        4.610440   -3.866194    0.410126
     51          1           0        8.252028   -0.461069   -0.258558
     52          1           0        5.258704   -3.990404    1.284029
     53          1           0        3.709586   -4.462654    0.540802
     54          1           0        5.137644   -4.195943   -0.491310
 ---------------------------------------------------------------------

 The electronic state is 1-A.
 Alpha  occ. eigenvalues --  -89.05061 -89.05060 -19.29460 -19.28982 -19.24896
 Alpha  occ. eigenvalues --  -19.24884 -19.24433 -19.24213 -14.50471 -14.50057
 Alpha  occ. eigenvalues --  -10.42655 -10.42536 -10.42489 -10.41909 -10.36029
 Alpha  occ. eigenvalues --  -10.35979 -10.35416 -10.34755 -10.34263 -10.34257
 Alpha  occ. eigenvalues --  -10.34112 -10.33657 -10.33592 -10.33580 -10.33481
 Alpha  occ. eigenvalues --  -10.33433 -10.33187 -10.32777 -10.32644 -10.32297
 Alpha  occ. eigenvalues --  -10.32288 -10.32220 -10.32157 -10.31908 -10.30050
 Alpha  occ. eigenvalues --  -10.29650  -8.09112  -8.09080  -6.03963  -6.03923
 Alpha  occ. eigenvalues --   -6.03557  -6.03526  -6.03178  -6.03169  -1.19382
 Alpha  occ. eigenvalues --   -1.19211  -1.19162  -1.18700  -1.17462  -1.17054
 Alpha  occ. eigenvalues --   -1.06634  -1.06142  -1.02867  -1.00859  -0.99223
 Alpha  occ. eigenvalues --   -0.96966  -0.94405  -0.90541  -0.88445  -0.87657
 Alpha  occ. eigenvalues --   -0.86199  -0.85138  -0.84991  -0.82965  -0.82199
 Alpha  occ. eigenvalues --   -0.81504  -0.79766  -0.78350  -0.76830  -0.75330
 Alpha  occ. eigenvalues --   -0.75163  -0.74111  -0.70343  -0.69074  -0.68044
 Alpha  occ. eigenvalues --   -0.66451  -0.65802  -0.65485  -0.64508  -0.63846
 Alpha  occ. eigenvalues --   -0.62244  -0.60565  -0.59650  -0.59239  -0.58803
 Alpha  occ. eigenvalues --   -0.58465  -0.57660  -0.57579  -0.57212  -0.57060
 Alpha  occ. eigenvalues --   -0.56771  -0.55959  -0.55274  -0.54939  -0.54593
 Alpha  occ. eigenvalues --   -0.53793  -0.53696  -0.53289  -0.53059  -0.51845
 Alpha  occ. eigenvalues --   -0.51430  -0.51175  -0.50923  -0.50665  -0.50393
 Alpha  occ. eigenvalues --   -0.50133  -0.49523  -0.49406  -0.48785  -0.48294
 Alpha  occ. eigenvalues --   -0.47859  -0.47791  -0.46734  -0.45978  -0.45189
 Alpha  occ. eigenvalues --   -0.44824  -0.44176  -0.42609  -0.41965  -0.41530
 Alpha  occ. eigenvalues --   -0.40862  -0.39995  -0.39454  -0.38367  -0.38014
 Alpha  occ. eigenvalues --   -0.37187  -0.37101  -0.36625  -0.36252  -0.34529
 Alpha  occ. eigenvalues --   -0.33176  -0.31982  -0.31822  -0.25782
 Alpha virt. eigenvalues --   -0.07124  -0.01425   0.00547   0.02628   0.03775
 Alpha virt. eigenvalues --    0.05315   0.05723   0.06146   0.06791   0.07064
 Alpha virt. eigenvalues --    0.07121   0.07303   0.07874   0.08116   0.08259

 Mulliken charges:
               1
     1  C    0.334640
     2  C    0.069465
     3  C    0.175590
     4  C    0.347575
     5  C    0.326944
     6  C    0.092814
     7  C    0.193925
     8  C    0.206484
     9  C    0.238945
    10  C   -0.750165
    11  C    0.277326
    12  C    0.188469
    13  C   -0.589737
    14  C   -0.768738
    15  H    0.186752
    16  H    0.189415
    17  H    0.186779
    18  N   -0.060239
    19  N   -0.088717
    20  O   -0.268300
    21  O   -0.266794
    22  O   -0.277151
    23  O   -0.262652
    24  C   -0.254999
    25  H    0.199019
    26  H    0.189536
    27  H    0.202009
    28  C   -0.278995
    29  H    0.192573
    30  H    0.192517
    31  H    0.199533
    32  C    0.122093
    33  C    0.112925
    34  S   -0.690428
    35  C   -0.883328
    36  H    0.186160
    37  C    0.344067
    38  O   -0.111058
    39  C    1.099338
    40  C   -0.320049
    41  C    0.057109
    42  S   -0.247516
    43  H    0.182575
    44  H    0.159082
    45  H    0.176658
    46  C   -0.551069
    47  O   -0.106891
    48  C   -0.393887
    49  H    0.157935
    50  C   -0.312538
    51  H    0.189248
    52  H    0.157583
    53  H    0.188413
    54  H    0.159755
 Sum of Mulliken charges =  -0.00000

 Dipole moment (field-independent basis, Debye):
    X=              3.8641    Y=             -0.6473    Z=             -0.0853  Tot=              3.9188
 Quadrupole moment (field-independent basis, Debye-Ang):
   XX=           -214.1546   YY=           -203.4361   ZZ=           -222.7780
   XY=             -5.1802   XZ=             -2.2590   YZ=             -2.7344

 Normal termination of Gaussian 16 at Mon Nov 30 03:20:08 2020.
