 Gaussian 16, Revision C.01,
 Gaussian 16:  ES64L-G16RevC.01  3-Jul-2019

 --------------------------------------
 # opt=modredundant wb97xd/6-311+g(d,p)
 --------------------------------------

 ----------
 NDI_80.pdb
 ----------
 Symbolic Z-matrix:
 Charge =  0 Multiplicity = 1

 SCF Done:  E(RwB97XD) =  -2358.76448815     A.U. after   19 cycles
 SCF Done:  E(RwB97XD) =  -2358.77161726     A.U. after   16 cycles
 SCF Done:  E(RwB97XD) =  -2358.77279775     A.U. after   17 cycles
 SCF Done:  E(RwB97XD) =  -2358.77314333     A.U. after   14 cycles
 SCF Done:  E(RwB97XD) =  -2358.77321406     A.U. after   14 cycles
 SCF Done:  E(RwB97XD) =  -2358.77327087     A.U. after   14 cycles
 SCF Done:  E(RwB97XD) =  -2358.77327918     A.U. after   13 cycles
 SCF Done:  E(RwB97XD) =  -2358.77328369     A.U. after   11 cycles
 SCF Done:  E(RwB97XD) =  -2358.77328506     A.U. after   11 cycles
 SCF Done:  E(RwB97XD) =  -2358.77328604     A.U. after   11 cycles
 SCF Done:  E(RwB97XD) =  -2358.77328634     A.U. after   11 cycles
 SCF Done:  E(RwB97XD) =  -2358.77328639     A.U. after    9 cycles
 Optimization completed.
    -- Stationary point found.

                         Standard orientation:
 ---------------------------------------------------------------------
 Center     Atomic      Atomic             Coordinates (Angstroms)
 Number     Number       Type             X           Y           Z
 ---------------------------------------------------------------------
      1          6           0       -3.132236   -2.846967    0.463246
      2          6           0       -2.550503   -1.487249    0.308552
      3          6           0       -3.383176   -0.388420    0.018561
      4          6           0       -4.773982   -0.562773   -0.138005
      5          6           0       -5.383009   -1.913941    0.004375
      6          6           0       -1.200953   -1.305837    0.447008
      7          6           0       -2.808468    0.892233   -0.125348
      8          6           0       -1.408245    1.068340    0.032465
      9          6           0       -0.605106   -0.026329    0.324449
     10          6           0       -0.833879    2.434223   -0.173201
     11          6           0       -3.105583    3.343852   -0.617553
     12          6           0       -3.659248    1.977865   -0.432486
     13          6           0       -5.014183    1.789171   -0.578361
     14          6           0       -5.578270    0.512973   -0.429621
     15          1           0       -6.643677    0.357278   -0.546304
     16          1           0       -5.633552    2.645722   -0.814416
     17          1           0       -0.573396   -2.159927    0.672556
     18          7           0       -1.726405    3.467777   -0.487873
     19          7           0       -4.510848   -2.968118    0.288217
     20          8           0       -2.459830   -3.815287    0.733690
     21          8           0       -6.572734   -2.093760   -0.120122
     22          8           0       -3.812117    4.293481   -0.872368
     23          8           0        0.342841    2.685974   -0.080222
     24          6           0       -1.124502    4.787073   -0.680360
     25          1           0       -0.606996    5.093339    0.228830
     26          1           0       -0.399464    4.745513   -1.493074
     27          1           0       -1.920822    5.486236   -0.916775
     28          6           0       -5.063780   -4.313529    0.440390
     29          1           0       -4.589167   -4.987486   -0.272641
     30          1           0       -4.868978   -4.681134    1.448148
     31          1           0       -6.132826   -4.259656    0.258142
     32          6           0        0.856249    0.039230    0.542799
     33          6           0        1.507616    0.419518    1.675519
     34         16           0        1.942890   -0.499296   -0.680654
     35          6           0        2.916536    0.290272    1.548959
     36          1           0        0.997230    0.795717    2.550553
     37          6           0        3.329517   -0.196215    0.329349
     38          8           0        3.834564    0.612584    2.490904
     39          6           0        4.687394   -0.432654   -0.115306
     40          6           0        3.357980    0.991909    3.764365
     41          6           0        5.093051   -0.941848   -1.329308
     42         16           0        6.080600   -0.086834    0.870852
     43          1           0        4.239713    1.160491    4.380181
     44          1           0        2.773979    1.917282    3.709613
     45          1           0        2.749032    0.198437    4.211590
     46          6           0        6.504441   -1.053420   -1.467769
     47          8           0        4.165964   -1.285511   -2.256323
     48          6           0        7.155130   -0.625073   -0.350892
     49          1           0        7.009886   -1.430334   -2.345270
     50          6           0        4.630545   -1.768278   -3.498602
     51          1           0        8.220637   -0.599425   -0.180293
     52          1           0        5.203143   -2.694200   -3.375333
     53          1           0        3.743396   -1.971706   -4.095922
     54          1           0        5.247252   -1.020288   -4.008972
 ---------------------------------------------------------------------

 The electronic state is 1-A.
 Alpha  occ. eigenvalues --  -89.04442 -89.04034 -19.28470 -19.28448 -19.25269
 Alpha  occ. eigenvalues --  -19.25206 -19.24934 -19.24850 -14.50814 -14.50498
 Alpha  occ. eigenvalues --  -10.43071 -10.42834 -10.42759 -10.42710 -10.35232
 Alpha  occ. eigenvalues --  -10.34795 -10.34763 -10.34706 -10.34662 -10.34501
 Alpha  occ. eigenvalues --  -10.34159 -10.34153 -10.34133 -10.34095 -10.34083
 Alpha  occ. eigenvalues --  -10.33203 -10.33120 -10.33116 -10.32651 -10.32399
 Alpha  occ. eigenvalues --  -10.32125 -10.31973 -10.31796 -10.31113 -10.29331
 Alpha  occ. eigenvalues --  -10.29103  -8.08452  -8.08057  -6.03309  -6.02909
 Alpha  occ. eigenvalues --   -6.02900  -6.02517  -6.02504  -6.02146  -1.19730
 Alpha  occ. eigenvalues --   -1.19535  -1.18195  -1.18110  -1.17825  -1.17600
 Alpha  occ. eigenvalues --   -1.06992  -1.06608  -1.03549  -1.00184  -0.98598
 Alpha  occ. eigenvalues --   -0.97205  -0.95042  -0.90536  -0.88980  -0.87040
 Alpha  occ. eigenvalues --   -0.85656  -0.85457  -0.84200  -0.82731  -0.82162
 Alpha  occ. eigenvalues --   -0.81421  -0.79299  -0.78162  -0.77088  -0.75829
 Alpha  occ. eigenvalues --   -0.75354  -0.74433  -0.70151  -0.68610  -0.67738
 Alpha  occ. eigenvalues --   -0.66864  -0.65558  -0.64773  -0.64504  -0.63045
 Alpha  occ. eigenvalues --   -0.62810  -0.60939  -0.59962  -0.59372  -0.59095
 Alpha  occ. eigenvalues --   -0.57934  -0.57820  -0.57460  -0.56978  -0.56647
 Alpha  occ. eigenvalues --   -0.56404  -0.56145  -0.55634  -0.55391  -0.54208
 Alpha  occ. eigenvalues --   -0.54032  -0.53683  -0.53499  -0.53077  -0.52442
 Alpha  occ. eigenvalues --   -0.51728  -0.51310  -0.51257  -0.50428  -0.50092
 Alpha  occ. eigenvalues --   -0.49658  -0.49636  -0.49136  -0.48971  -0.48464
 Alpha  occ. eigenvalues --   -0.48397  -0.46932  -0.46854  -0.45846  -0.44997
 Alpha  occ. eigenvalues --   -0.44116  -0.43562  -0.42010  -0.41295  -0.41050
 Alpha  occ. eigenvalues --   -0.40732  -0.40531  -0.39828  -0.38717  -0.37648
 Alpha  occ. eigenvalues --   -0.37575  -0.37160  -0.37019  -0.36061  -0.34821
 Alpha  occ. eigenvalues --   -0.33554  -0.31390  -0.31144  -0.25297
 Alpha virt. eigenvalues --   -0.07317  -0.00065   0.00639   0.02267   0.02609
 Alpha virt. eigenvalues --    0.04985   0.05989   0.06201   0.06679   0.06887
 Alpha virt. eigenvalues --    0.07376   0.07436   0.07584   0.07717   0.07983

 Mulliken charges:
               1
     1  C    0.477098
     2  C    0.026442
     3  C    0.199316
     4  C    0.171020
     5  C    0.362997
     6  C   -0.705056
     7  C    0.144348
     8  C    0.050278
     9  C    0.438531
    10  C   -0.361630
    11  C    0.269638
    12  C    0.177328
    13  C   -0.577271
    14  C   -0.719704
    15  H    0.188735
    16  H    0.189414
    17  H    0.202076
    18  N   -0.110607
    19  N   -0.096238
    20  O   -0.257889
    21  O   -0.267938
    22  O   -0.268981
    23  O   -0.083735
    24  C   -0.299195
    25  H    0.194787
    26  H    0.197580
    27  H    0.202201
    28  C   -0.285122
    29  H    0.193420
    30  H    0.194992
    31  H    0.200528
    32  C    0.143889
    33  C   -0.492115
    34  S   -0.235465
    35  C   -0.092441
    36  H    0.143292
    37  C    0.369862
    38  O   -0.120447
    39  C    0.825383
    40  C   -0.289429
    41  C    0.039093
    42  S   -0.299831
    43  H    0.181344
    44  H    0.160301
    45  H    0.161345
    46  C   -0.556290
    47  O   -0.124563
    48  C   -0.387715
    49  H    0.154034
    50  C   -0.302342
    51  H    0.183724
    52  H    0.154685
    53  H    0.178041
    54  H    0.158285
 Sum of Mulliken charges =  -0.00000

 Dipole moment (field-independent basis, Debye):
    X=              1.0237    Y=             -0.0956    Z=              0.0247  Tot=              1.0284
 Quadrupole moment (field-independent basis, Debye-Ang):
   XX=           -218.5048   YY=           -227.4781   ZZ=           -198.4259
   XY=             -0.7942   XZ=             -8.7915   YZ=             11.1446

 Normal termination of Gaussian 16 at Sun Nov 29 22:13:37 2020.
