 Gaussian 16, Revision C.01,
 Gaussian 16:  ES64L-G16RevC.01  3-Jul-2019

 --------------------------------------
 # opt=modredundant wb97xd/6-311+g(d,p)
 --------------------------------------

 ------------
 NDI_-155.pdb
 ------------
 Symbolic Z-matrix:
 Charge =  0 Multiplicity = 1

 SCF Done:  E(RwB97XD) =  -2358.74015065     A.U. after   19 cycles
 SCF Done:  E(RwB97XD) =  -2358.75606431     A.U. after   22 cycles
 SCF Done:  E(RwB97XD) =  -2358.76633226     A.U. after   17 cycles
 SCF Done:  E(RwB97XD) =  -2358.76842728     A.U. after   16 cycles
 SCF Done:  E(RwB97XD) =  -2358.76917336     A.U. after   17 cycles
 SCF Done:  E(RwB97XD) =  -2358.76942921     A.U. after   17 cycles
 SCF Done:  E(RwB97XD) =  -2358.76960192     A.U. after   16 cycles
 SCF Done:  E(RwB97XD) =  -2358.76982187     A.U. after   14 cycles
 SCF Done:  E(RwB97XD) =  -2358.77033615     A.U. after   17 cycles
 SCF Done:  E(RwB97XD) =  -2358.77051768     A.U. after   16 cycles
 SCF Done:  E(RwB97XD) =  -2358.77062878     A.U. after   13 cycles
 SCF Done:  E(RwB97XD) =  -2358.77069237     A.U. after   16 cycles
 SCF Done:  E(RwB97XD) =  -2358.77055878     A.U. after   16 cycles
 SCF Done:  E(RwB97XD) =  -2358.77072024     A.U. after   16 cycles
 SCF Done:  E(RwB97XD) =  -2358.77072679     A.U. after   13 cycles
 SCF Done:  E(RwB97XD) =  -2358.77073320     A.U. after   15 cycles
 SCF Done:  E(RwB97XD) =  -2358.77073347     A.U. after   12 cycles
 SCF Done:  E(RwB97XD) =  -2358.77073349     A.U. after   12 cycles
 SCF Done:  E(RwB97XD) =  -2358.77073363     A.U. after   11 cycles
 SCF Done:  E(RwB97XD) =  -2358.77073366     A.U. after   10 cycles
 Optimization completed.
    -- Stationary point found.

                         Standard orientation:
 ---------------------------------------------------------------------
 Center     Atomic      Atomic             Coordinates (Angstroms)
 Number     Number       Type             X           Y           Z
 ---------------------------------------------------------------------
      1          6           0       -3.372841   -2.728975    0.355788
      2          6           0       -2.680835   -1.441878    0.081529
      3          6           0       -3.388939   -0.225026    0.146817
      4          6           0       -4.760191   -0.210481    0.464799
      5          6           0       -5.481273   -1.483439    0.738410
      6          6           0       -1.351698   -1.446125   -0.222544
      7          6           0       -2.702957    0.974266   -0.136987
      8          6           0       -1.313681    0.959826   -0.450553
      9          6           0       -0.617407   -0.253049   -0.481718
     10          6           0       -0.709534    2.230259   -0.943738
     11          6           0       -2.802424    3.470778   -0.444072
     12          6           0       -3.442616    2.178195   -0.099898
     13          6           0       -4.780959    2.177572    0.226917
     14          6           0       -5.448344    0.979992    0.513582
     15          1           0       -6.502335    0.971846    0.761717
     16          1           0       -5.306074    3.124658    0.246366
     17          1           0       -0.834164   -2.396349   -0.211823
     18          7           0       -1.486881    3.394064   -0.883389
     19          7           0       -4.733925   -2.662384    0.646588
     20          8           0       -2.797492   -3.794049    0.344340
     21          8           0       -6.656903   -1.504176    1.022261
     22          8           0       -3.394401    4.525359   -0.372393
     23          8           0        0.415738    2.310192   -1.378739
     24          6           0       -0.827475    4.621244   -1.328172
     25          1           0        0.055051    4.809435   -0.716413
     26          1           0       -0.512087    4.514775   -2.365917
     27          1           0       -1.537925    5.436184   -1.227520
     28          6           0       -5.400466   -3.936602    0.911989
     29          1           0       -5.288388   -4.594723    0.050448
     30          1           0       -4.946048   -4.418401    1.778129
     31          1           0       -6.450298   -3.733366    1.100542
     32          6           0        0.834583   -0.451145   -0.611706
     33          6           0        1.418753   -1.590496   -1.118192
     34         16           0        2.002646    0.513554    0.218678
     35          6           0        2.805762   -1.653962   -0.877611
     36          1           0        0.867573   -2.341503   -1.666939
     37          6           0        3.287495   -0.594730   -0.131842
     38          8           0        3.650495   -2.631565   -1.282740
     39          6           0        4.651063   -0.371984    0.293357
     40          6           0        3.131681   -3.627918   -2.138633
     41          6           0        5.128050    0.675298    1.054140
     42         16           0        5.961381   -1.445927   -0.114951
     43          1           0        3.968703   -4.276121   -2.391683
     44          1           0        2.357574   -4.218920   -1.636506
     45          1           0        2.722252   -3.187548   -3.054410
     46          6           0        6.526940    0.618292    1.302651
     47          8           0        4.276665    1.634453    1.481314
     48          6           0        7.095040   -0.477955    0.727564
     49          1           0        7.081490    1.346866    1.876181
     50          6           0        4.802533    2.669867    2.285389
     51          1           0        8.133863   -0.769947    0.757759
     52          1           0        5.560071    3.245870    1.743068
     53          1           0        3.963466    3.319032    2.528926
     54          1           0        5.234098    2.271768    3.210112
 ---------------------------------------------------------------------

 The electronic state is 1-A.
 Alpha  occ. eigenvalues --  -89.04646 -89.04642 -19.29072 -19.28924 -19.25045
 Alpha  occ. eigenvalues --  -19.25033 -19.24413 -19.24287 -14.50610 -14.50050
 Alpha  occ. eigenvalues --  -10.42813 -10.42652 -10.42270 -10.42161 -10.35450
 Alpha  occ. eigenvalues --  -10.35396 -10.35264 -10.34581 -10.34488 -10.34302
 Alpha  occ. eigenvalues --  -10.34019 -10.33899 -10.33712 -10.33689 -10.33498
 Alpha  occ. eigenvalues --  -10.33116 -10.32970 -10.32828 -10.32628 -10.32572
 Alpha  occ. eigenvalues --  -10.32369 -10.32257 -10.31819 -10.31811 -10.30148
 Alpha  occ. eigenvalues --  -10.29673  -8.08667  -8.08652  -6.03510  -6.03506
 Alpha  occ. eigenvalues --   -6.03114  -6.03097  -6.02756  -6.02721  -1.19516
 Alpha  occ. eigenvalues --   -1.19075  -1.18813  -1.18639  -1.17606  -1.17096
 Alpha  occ. eigenvalues --   -1.06758  -1.06178  -1.03095  -1.00594  -0.98975
 Alpha  occ. eigenvalues --   -0.97079  -0.94603  -0.90558  -0.88581  -0.87340
 Alpha  occ. eigenvalues --   -0.86071  -0.85192  -0.84777  -0.82823  -0.82356
 Alpha  occ. eigenvalues --   -0.81101  -0.79784  -0.78330  -0.76781  -0.75470
 Alpha  occ. eigenvalues --   -0.75061  -0.74367  -0.70101  -0.68954  -0.67950
 Alpha  occ. eigenvalues --   -0.66585  -0.65766  -0.65068  -0.64116  -0.63641
 Alpha  occ. eigenvalues --   -0.62811  -0.60620  -0.59686  -0.59058  -0.58882
 Alpha  occ. eigenvalues --   -0.58152  -0.57644  -0.57440  -0.57272  -0.57071
 Alpha  occ. eigenvalues --   -0.56580  -0.55854  -0.55359  -0.55201  -0.54253
 Alpha  occ. eigenvalues --   -0.53874  -0.53609  -0.53474  -0.53121  -0.52388
 Alpha  occ. eigenvalues --   -0.51541  -0.51135  -0.50859  -0.50475  -0.50231
 Alpha  occ. eigenvalues --   -0.50029  -0.49552  -0.49422  -0.48822  -0.48339
 Alpha  occ. eigenvalues --   -0.47985  -0.47561  -0.46623  -0.45780  -0.45335
 Alpha  occ. eigenvalues --   -0.44478  -0.44100  -0.42372  -0.41723  -0.41385
 Alpha  occ. eigenvalues --   -0.41144  -0.40060  -0.39532  -0.38299  -0.37747
 Alpha  occ. eigenvalues --   -0.37325  -0.37136  -0.36583  -0.36297  -0.34659
 Alpha  occ. eigenvalues --   -0.33138  -0.31772  -0.31310  -0.25572
 Alpha virt. eigenvalues --   -0.07174  -0.00715   0.00528   0.02380   0.03524
 Alpha virt. eigenvalues --    0.05239   0.05766   0.06076   0.06754   0.06954
 Alpha virt. eigenvalues --    0.07104   0.07512   0.07734   0.07772   0.08000

 Mulliken charges:
               1
     1  C    0.361070
     2  C    0.010675
     3  C    0.201659
     4  C    0.240571
     5  C    0.309115
     6  C   -0.056017
     7  C    0.127052
     8  C    0.087515
     9  C    0.259953
    10  C   -0.409336
    11  C    0.360430
    12  C    0.064240
    13  C   -0.558214
    14  C   -0.721162
    15  H    0.187170
    16  H    0.188670
    17  H    0.188592
    18  N   -0.040751
    19  N   -0.092813
    20  O   -0.266742
    21  O   -0.266631
    22  O   -0.276952
    23  O   -0.211317
    24  C   -0.268123
    25  H    0.196933
    26  H    0.198050
    27  H    0.200118
    28  C   -0.278291
    29  H    0.191118
    30  H    0.194727
    31  H    0.200141
    32  C    0.100587
    33  C   -0.759819
    34  S   -0.710546
    35  C   -0.112143
    36  H    0.160628
    37  C    0.755846
    38  O   -0.118258
    39  C    0.954011
    40  C   -0.300327
    41  C    0.022160
    42  S   -0.268703
    43  H    0.183579
    44  H    0.161183
    45  H    0.165024
    46  C   -0.630688
    47  O   -0.110767
    48  C   -0.346126
    49  H    0.156163
    50  C   -0.307404
    51  H    0.186966
    52  H    0.158099
    53  H    0.180740
    54  H    0.158344
 Sum of Mulliken charges =  -0.00000

 Dipole moment (field-independent basis, Debye):
    X=              2.7313    Y=             -0.3321    Z=              0.2366  Tot=              2.7616
 Quadrupole moment (field-independent basis, Debye-Ang):
   XX=           -212.5658   YY=           -215.6615   ZZ=           -213.6272
   XY=              9.8291   XZ=             10.2914   YZ=             13.2326

 Normal termination of Gaussian 16 at Mon Nov 30 02:31:19 2020.
