 Gaussian 16, Revision C.01,
 Gaussian 16:  ES64L-G16RevC.01  3-Jul-2019

 --------------------------------------
 # opt=modredundant wb97xd/6-311+g(d,p)
 --------------------------------------

 -----------
 NDI_125.pdb
 -----------
 Symbolic Z-matrix:
 Charge =  0 Multiplicity = 1

 SCF Done:  E(RwB97XD) =  -2358.76362160     A.U. after   22 cycles
 SCF Done:  E(RwB97XD) =  -2358.77027281     A.U. after   19 cycles
 SCF Done:  E(RwB97XD) =  -2358.77232488     A.U. after   16 cycles
 SCF Done:  E(RwB97XD) =  -2358.77324283     A.U. after   15 cycles
 SCF Done:  E(RwB97XD) =  -2358.77328796     A.U. after   14 cycles
 SCF Done:  E(RwB97XD) =  -2358.77330300     A.U. after   14 cycles
 SCF Done:  E(RwB97XD) =  -2358.77331785     A.U. after   11 cycles
 SCF Done:  E(RwB97XD) =  -2358.77332007     A.U. after   13 cycles
 SCF Done:  E(RwB97XD) =  -2358.77332154     A.U. after   11 cycles
 SCF Done:  E(RwB97XD) =  -2358.77332181     A.U. after   10 cycles
 SCF Done:  E(RwB97XD) =  -2358.77332203     A.U. after   11 cycles
 SCF Done:  E(RwB97XD) =  -2358.77332209     A.U. after   11 cycles
 Optimization completed.
    -- Stationary point found.

                         Standard orientation:
 ---------------------------------------------------------------------
 Center     Atomic      Atomic             Coordinates (Angstroms)
 Number     Number       Type             X           Y           Z
 ---------------------------------------------------------------------
      1          6           0        3.396048   -2.744083    0.401571
      2          6           0        2.690593   -1.466030    0.119572
      3          6           0        3.397841   -0.247023    0.135432
      4          6           0        4.777733   -0.220387    0.422048
      5          6           0        5.506523   -1.482866    0.723792
      6          6           0        1.347417   -1.475278   -0.138111
      7          6           0        2.710157    0.949155   -0.158855
      8          6           0        1.317458    0.925307   -0.436058
      9          6           0        0.627628   -0.282130   -0.403080
     10          6           0        0.672724    2.185893   -0.912617
     11          6           0        2.777414    3.442147   -0.502552
     12          6           0        3.442464    2.157542   -0.165030
     13          6           0        4.787689    2.165658    0.125173
     14          6           0        5.462183    0.972182    0.422765
     15          1           0        6.521428    0.971508    0.648232
     16          1           0        5.313359    3.112584    0.114179
     17          1           0        0.812578   -2.417080   -0.112730
     18          7           0        1.440189    3.357539   -0.874013
     19          7           0        4.758181   -2.663294    0.688825
     20          8           0        2.832487   -3.814747    0.390966
     21          8           0        6.687919   -1.492072    0.983374
     22          8           0        3.368768    4.498544   -0.474695
     23          8           0       -0.463456    2.242648   -1.316964
     24          6           0        0.754497    4.578885   -1.295362
     25          1           0        0.408166    4.471827   -2.323269
     26          1           0       -0.111224    4.753644   -0.656357
     27          1           0        1.457963    5.401928   -1.213864
     28          6           0        5.433132   -3.929153    0.973241
     29          1           0        4.955328   -4.417249    1.822653
     30          1           0        5.360723   -4.588313    0.107889
     31          1           0        6.473333   -3.711992    1.196481
     32          6           0       -0.830149   -0.436627   -0.554453
     33          6           0       -1.467723   -1.228815   -1.465650
     34         16           0       -1.929224    0.234505    0.591139
     35          6           0       -2.871649   -1.256131   -1.263464
     36          1           0       -0.948752   -1.746659   -2.260359
     37          6           0       -3.294793   -0.520601   -0.177743
     38          8           0       -3.776856   -1.914527   -2.025504
     39          6           0       -4.649546   -0.366667    0.308510
     40          6           0       -3.282174   -2.759623   -3.042593
     41          6           0       -5.066683    0.357460    1.404248
     42         16           0       -6.023874   -1.110898   -0.460813
     43          1           0       -4.153189   -3.225805   -3.499738
     44          1           0       -2.738326   -2.188375   -3.803075
     45          1           0       -2.629457   -3.536597   -2.629406
     46          6           0       -6.471518    0.317776    1.623276
     47          8           0       -4.156132    1.019230    2.157341
     48          6           0       -7.105354   -0.441056    0.686846
     49          1           0       -6.984240    0.822562    2.429363
     50          6           0       -4.634870    1.779000    3.246574
     51          1           0       -8.163015   -0.643098    0.611457
     52          1           0       -5.138232    1.142774    3.982856
     53          1           0       -3.759704    2.235966    3.705231
     54          1           0       -5.319857    2.565121    2.910522
 ---------------------------------------------------------------------

 The electronic state is 1-A.
 Alpha  occ. eigenvalues --  -89.04410 -89.04240 -19.28679 -19.28639 -19.25200
 Alpha  occ. eigenvalues --  -19.25168 -19.24741 -19.24636 -14.50757 -14.50303
 Alpha  occ. eigenvalues --  -10.42994 -10.42792 -10.42533 -10.42516 -10.35189
 Alpha  occ. eigenvalues --  -10.34990 -10.34920 -10.34559 -10.34442 -10.34319
 Alpha  occ. eigenvalues --  -10.34314 -10.34280 -10.34015 -10.33983 -10.33900
 Alpha  occ. eigenvalues --  -10.33056 -10.33027 -10.32948 -10.32845 -10.32362
 Alpha  occ. eigenvalues --  -10.32318 -10.31989 -10.31974 -10.31346 -10.29691
 Alpha  occ. eigenvalues --  -10.29295  -8.08429  -8.08262  -6.03287  -6.03105
 Alpha  occ. eigenvalues --   -6.02887  -6.02709  -6.02487  -6.02351  -1.19667
 Alpha  occ. eigenvalues --   -1.19335  -1.18403  -1.18321  -1.17762  -1.17396
 Alpha  occ. eigenvalues --   -1.06918  -1.06440  -1.03406  -1.00316  -0.98721
 Alpha  occ. eigenvalues --   -0.97185  -0.94899  -0.90549  -0.88849  -0.87151
 Alpha  occ. eigenvalues --   -0.85793  -0.85364  -0.84396  -0.82653  -0.82389
 Alpha  occ. eigenvalues --   -0.81230  -0.79512  -0.78225  -0.76972  -0.75698
 Alpha  occ. eigenvalues --   -0.75228  -0.74436  -0.70102  -0.68763  -0.67818
 Alpha  occ. eigenvalues --   -0.66769  -0.65713  -0.64721  -0.64338  -0.63285
 Alpha  occ. eigenvalues --   -0.62887  -0.60836  -0.59863  -0.59229  -0.59002
 Alpha  occ. eigenvalues --   -0.58027  -0.57781  -0.57410  -0.57142  -0.56797
 Alpha  occ. eigenvalues --   -0.56348  -0.56153  -0.55517  -0.55361  -0.54191
 Alpha  occ. eigenvalues --   -0.53925  -0.53750  -0.53400  -0.53191  -0.52517
 Alpha  occ. eigenvalues --   -0.51662  -0.51245  -0.51072  -0.50351  -0.50135
 Alpha  occ. eigenvalues --   -0.49806  -0.49580  -0.49346  -0.48891  -0.48418
 Alpha  occ. eigenvalues --   -0.48234  -0.47218  -0.46588  -0.45868  -0.45274
 Alpha  occ. eigenvalues --   -0.44236  -0.43725  -0.42173  -0.41477  -0.41100
 Alpha  occ. eigenvalues --   -0.40868  -0.40399  -0.39712  -0.38537  -0.37615
 Alpha  occ. eigenvalues --   -0.37480  -0.37095  -0.36821  -0.36130  -0.34955
 Alpha  occ. eigenvalues --   -0.33367  -0.31565  -0.31190  -0.25399
 Alpha virt. eigenvalues --   -0.07268  -0.00159   0.00458   0.02195   0.03130
 Alpha virt. eigenvalues --    0.05116   0.05888   0.06175   0.06652   0.06889
 Alpha virt. eigenvalues --    0.07196   0.07527   0.07572   0.07702   0.07949

 Mulliken charges:
               1
     1  C    0.415572
     2  C   -0.030685
     3  C    0.170487
     4  C    0.186638
     5  C    0.336571
     6  C   -0.501290
     7  C    0.175750
     8  C   -0.071849
     9  C    0.249467
    10  C   -0.287594
    11  C    0.331251
    12  C    0.091362
    13  C   -0.511258
    14  C   -0.722483
    15  H    0.188317
    16  H    0.189081
    17  H    0.197058
    18  N   -0.053818
    19  N   -0.093031
    20  O   -0.261158
    21  O   -0.268780
    22  O   -0.273537
    23  O   -0.177229
    24  C   -0.267339
    25  H    0.196808
    26  H    0.199112
    27  H    0.201346
    28  C   -0.281180
    29  H    0.193911
    30  H    0.193379
    31  H    0.200891
    32  C    0.396438
    33  C   -0.525544
    34  S   -0.469191
    35  C   -0.070129
    36  H    0.152186
    37  C    0.417700
    38  O   -0.111162
    39  C    0.891009
    40  C   -0.294942
    41  C    0.048388
    42  S   -0.294929
    43  H    0.182255
    44  H    0.159031
    45  H    0.165292
    46  C   -0.600943
    47  O   -0.122375
    48  C   -0.367274
    49  H    0.154725
    50  C   -0.302935
    51  H    0.184647
    52  H    0.155295
    53  H    0.178507
    54  H    0.158181
 Sum of Mulliken charges =  -0.00000

 Dipole moment (field-independent basis, Debye):
    X=             -1.5786    Y=             -0.2014    Z=              0.2381  Tot=              1.6092
 Quadrupole moment (field-independent basis, Debye-Ang):
   XX=           -215.8903   YY=           -223.0292   ZZ=           -204.7188
   XY=             -6.7693   XZ=            -10.5843   YZ=             13.1522

 Normal termination of Gaussian 16 at Sun Nov 29 21:14:11 2020.
