 Gaussian 16, Revision C.01,
 Gaussian 16:  ES64L-G16RevC.01  3-Jul-2019

 --------------------------------------
 # opt=modredundant wb97xd/6-311+g(d,p)
 --------------------------------------

 -----------
 NDI_160.pdb
 -----------
 Symbolic Z-matrix:
 Charge =  0 Multiplicity = 1

 SCF Done:  E(RwB97XD) =  -2358.73324588     A.U. after   20 cycles
 SCF Done:  E(RwB97XD) =  -2358.75433469     A.U. after   21 cycles
 SCF Done:  E(RwB97XD) =  -2358.76441942     A.U. after   17 cycles
 SCF Done:  E(RwB97XD) =  -2358.76764845     A.U. after   15 cycles
 SCF Done:  E(RwB97XD) =  -2358.76888584     A.U. after   17 cycles
 SCF Done:  E(RwB97XD) =  -2358.76916570     A.U. after   17 cycles
 SCF Done:  E(RwB97XD) =  -2358.76959445     A.U. after   15 cycles
 SCF Done:  E(RwB97XD) =  -2358.76997077     A.U. after   18 cycles
 SCF Done:  E(RwB97XD) =  -2358.77018529     A.U. after   15 cycles
 SCF Done:  E(RwB97XD) =  -2358.77024591     A.U. after   16 cycles
 SCF Done:  E(RwB97XD) =  -2358.77037251     A.U. after   16 cycles
 SCF Done:  E(RwB97XD) =  -2358.77041175     A.U. after   16 cycles
 SCF Done:  E(RwB97XD) =  -2358.77041290     A.U. after   14 cycles
 SCF Done:  E(RwB97XD) =  -2358.77041603     A.U. after   14 cycles
 SCF Done:  E(RwB97XD) =  -2358.77041379     A.U. after   14 cycles
 SCF Done:  E(RwB97XD) =  -2358.77041739     A.U. after   14 cycles
 SCF Done:  E(RwB97XD) =  -2358.77041748     A.U. after   10 cycles
 SCF Done:  E(RwB97XD) =  -2358.77041751     A.U. after    9 cycles
 SCF Done:  E(RwB97XD) =  -2358.77041752     A.U. after   10 cycles
 Optimization completed.
    -- Stationary point found.

                         Standard orientation:
 ---------------------------------------------------------------------
 Center     Atomic      Atomic             Coordinates (Angstroms)
 Number     Number       Type             X           Y           Z
 ---------------------------------------------------------------------
      1          6           0       -3.409925   -2.715807   -0.278754
      2          6           0       -2.701529   -1.433890   -0.023295
      3          6           0       -3.389527   -0.208098   -0.125514
      4          6           0       -4.753529   -0.178190   -0.470770
      5          6           0       -5.487899   -1.444694   -0.738310
      6          6           0       -1.372621   -1.451308    0.279495
      7          6           0       -2.687465    0.985249    0.142051
      8          6           0       -1.302965    0.955232    0.475002
      9          6           0       -0.619793   -0.265821    0.522958
     10          6           0       -0.693581    2.223271    0.965822
     11          6           0       -2.745562    3.490795    0.376315
     12          6           0       -3.404800    2.200537    0.061126
     13          6           0       -4.737189    2.214667   -0.289589
     14          6           0       -5.420282    1.022305   -0.559837
     15          1           0       -6.468892    1.026401   -0.829845
     16          1           0       -5.244394    3.170104   -0.344192
     17          1           0       -0.872842   -2.410628    0.283711
     18          7           0       -1.440048    3.402046    0.842450
     19          7           0       -4.759173   -2.632852   -0.616007
     20          8           0       -2.858590   -3.791344   -0.206417
     21          8           0       -6.658226   -1.453271   -1.043800
     22          8           0       -3.314871    4.554051    0.261431
     23          8           0        0.410328    2.287818    1.455481
     24          6           0       -0.769458    4.626939    1.276380
     25          1           0       -0.496163    4.545447    2.328304
     26          1           0        0.140608    4.774982    0.694669
     27          1           0       -1.455452    5.454536    1.123179
     28          6           0       -5.440978   -3.901733   -0.867728
     29          1           0       -4.941833   -4.432879   -1.678203
     30          1           0       -5.406804   -4.522520    0.027851
     31          1           0       -6.470074   -3.682108   -1.135599
     32          6           0        0.830428   -0.479387    0.641143
     33          6           0        1.410259   -1.653631    1.071574
     34         16           0        2.005806    0.526139   -0.130453
     35          6           0        2.793278   -1.716250    0.815264
     36          1           0        0.860571   -2.432292    1.581413
     37          6           0        3.280072   -0.616444    0.133380
     38          8           0        3.635719   -2.714302    1.171940
     39          6           0        4.642197   -0.380331   -0.288037
     40          6           0        3.067172   -3.872701    1.746002
     41          6           0        5.123334    0.708210   -0.986186
     42         16           0        5.944408   -1.491818    0.037467
     43          1           0        3.891589   -4.562707    1.916181
     44          1           0        2.584267   -3.644658    2.702705
     45          1           0        2.340723   -4.334396    1.068105
     46          6           0        6.518721    0.651836   -1.253320
     47          8           0        4.277833    1.698328   -1.348136
     48          6           0        7.080024   -0.484654   -0.754618
     49          1           0        7.075436    1.409325   -1.785814
     50          6           0        4.820909    2.811046   -2.028270
     51          1           0        8.115144   -0.785157   -0.814380
     52          1           0        5.262737    2.512579   -2.985117
     53          1           0        3.988974    3.488560   -2.211477
     54          1           0        5.574253    3.318788   -1.416503
 ---------------------------------------------------------------------

 The electronic state is 1-A.
 Alpha  occ. eigenvalues --  -89.04735 -89.04706 -19.29166 -19.28987 -19.25030
 Alpha  occ. eigenvalues --  -19.25010 -19.24371 -19.24258 -14.50590 -14.50012
 Alpha  occ. eigenvalues --  -10.42787 -10.42634 -10.42230 -10.42116 -10.35562
 Alpha  occ. eigenvalues --  -10.35426 -10.35329 -10.34649 -10.34529 -10.34246
 Alpha  occ. eigenvalues --  -10.33930 -10.33824 -10.33663 -10.33641 -10.33439
 Alpha  occ. eigenvalues --  -10.33191 -10.33102 -10.32809 -10.32569 -10.32515
 Alpha  occ. eigenvalues --  -10.32456 -10.32241 -10.31920 -10.31803 -10.30237
 Alpha  occ. eigenvalues --  -10.29757  -8.08757  -8.08716  -6.03599  -6.03569
 Alpha  occ. eigenvalues --   -6.03203  -6.03159  -6.02846  -6.02786  -1.19492
 Alpha  occ. eigenvalues --   -1.19039  -1.18911  -1.18707  -1.17584  -1.17056
 Alpha  occ. eigenvalues --   -1.06733  -1.06148  -1.03053  -1.00660  -0.99038
 Alpha  occ. eigenvalues --   -0.97066  -0.94559  -0.90567  -0.88544  -0.87390
 Alpha  occ. eigenvalues --   -0.86131  -0.85170  -0.84855  -0.82881  -0.82342
 Alpha  occ. eigenvalues --   -0.81091  -0.79855  -0.78366  -0.76758  -0.75439
 Alpha  occ. eigenvalues --   -0.75040  -0.74360  -0.70117  -0.69011  -0.67975
 Alpha  occ. eigenvalues --   -0.66567  -0.65796  -0.65151  -0.64121  -0.63700
 Alpha  occ. eigenvalues --   -0.62812  -0.60592  -0.59661  -0.59035  -0.58877
 Alpha  occ. eigenvalues --   -0.58173  -0.57634  -0.57507  -0.57265  -0.57129
 Alpha  occ. eigenvalues --   -0.56638  -0.55825  -0.55363  -0.55178  -0.54247
 Alpha  occ. eigenvalues --   -0.53869  -0.53629  -0.53500  -0.53113  -0.52383
 Alpha  occ. eigenvalues --   -0.51540  -0.51161  -0.50834  -0.50409  -0.50296
 Alpha  occ. eigenvalues --   -0.50069  -0.49594  -0.49405  -0.48837  -0.48354
 Alpha  occ. eigenvalues --   -0.47963  -0.47625  -0.46637  -0.45807  -0.45442
 Alpha  occ. eigenvalues --   -0.44491  -0.44157  -0.42438  -0.41878  -0.41340
 Alpha  occ. eigenvalues --   -0.41092  -0.40015  -0.39517  -0.38303  -0.37802
 Alpha  occ. eigenvalues --   -0.37304  -0.37144  -0.36560  -0.36296  -0.34628
 Alpha  occ. eigenvalues --   -0.33111  -0.31828  -0.31369  -0.25623
 Alpha virt. eigenvalues --   -0.07159  -0.00844   0.00561   0.02416   0.03553
 Alpha virt. eigenvalues --    0.05230   0.05746   0.06033   0.06738   0.06971
 Alpha virt. eigenvalues --    0.07093   0.07474   0.07761   0.07773   0.08050

 Mulliken charges:
               1
     1  C    0.370112
     2  C    0.003632
     3  C    0.199721
     4  C    0.258881
     5  C    0.306102
     6  C    0.014437
     7  C    0.101241
     8  C    0.176119
     9  C    0.262804
    10  C   -0.527610
    11  C    0.365139
    12  C    0.083891
    13  C   -0.559548
    14  C   -0.714052
    15  H    0.186968
    16  H    0.188533
    17  H    0.182459
    18  N   -0.018608
    19  N   -0.093838
    20  O   -0.268841
    21  O   -0.265930
    22  O   -0.276863
    23  O   -0.212335
    24  C   -0.271338
    25  H    0.199090
    26  H    0.195881
    27  H    0.200249
    28  C   -0.277291
    29  H    0.192837
    30  H    0.192600
    31  H    0.200070
    32  C    0.050301
    33  C   -0.707070
    34  S   -0.736595
    35  C   -0.157128
    36  H    0.157119
    37  C    0.753035
    38  O   -0.115963
    39  C    0.950590
    40  C   -0.296409
    41  C   -0.002808
    42  S   -0.264699
    43  H    0.184039
    44  H    0.158709
    45  H    0.167388
    46  C   -0.611089
    47  O   -0.108448
    48  C   -0.348212
    49  H    0.156438
    50  C   -0.309409
    51  H    0.187383
    52  H    0.157141
    53  H    0.180840
    54  H    0.160339
 Sum of Mulliken charges =  -0.00000

 Dipole moment (field-independent basis, Debye):
    X=              2.9288    Y=             -0.4477    Z=             -0.5542  Tot=              3.0142
 Quadrupole moment (field-independent basis, Debye-Ang):
   XX=           -211.9791   YY=           -213.0919   ZZ=           -216.7542
   XY=              9.9361   XZ=            -11.1183   YZ=            -11.1073

 Normal termination of Gaussian 16 at Mon Nov 30 03:51:17 2020.
