 Gaussian 16, Revision C.01,
 Gaussian 16:  ES64L-G16RevC.01  3-Jul-2019

 --------------------------------------
 # opt=modredundant wb97xd/6-311+g(d,p)
 --------------------------------------

 ------------
 NDI_-150.pdb
 ------------
 Symbolic Z-matrix:
 Charge =  0 Multiplicity = 1

 SCF Done:  E(RwB97XD) =  -2358.74537642     A.U. after   19 cycles
 SCF Done:  E(RwB97XD) =  -2358.75660090     A.U. after   20 cycles
 SCF Done:  E(RwB97XD) =  -2358.76626729     A.U. after   18 cycles
 SCF Done:  E(RwB97XD) =  -2358.76886131     A.U. after   16 cycles
 SCF Done:  E(RwB97XD) =  -2358.76955408     A.U. after   17 cycles
 SCF Done:  E(RwB97XD) =  -2358.76981635     A.U. after   17 cycles
 SCF Done:  E(RwB97XD) =  -2358.77010712     A.U. after   16 cycles
 SCF Done:  E(RwB97XD) =  -2358.77037229     A.U. after   16 cycles
 SCF Done:  E(RwB97XD) =  -2358.77063340     A.U. after   18 cycles
 SCF Done:  E(RwB97XD) =  -2358.77093097     A.U. after   16 cycles
 SCF Done:  E(RwB97XD) =  -2358.77119789     A.U. after   15 cycles
 SCF Done:  E(RwB97XD) =  -2358.77133006     A.U. after   15 cycles
 SCF Done:  E(RwB97XD) =  -2358.77134506     A.U. after   14 cycles
 SCF Done:  E(RwB97XD) =  -2358.77135540     A.U. after   13 cycles
 SCF Done:  E(RwB97XD) =  -2358.77135679     A.U. after   12 cycles
 SCF Done:  E(RwB97XD) =  -2358.77135724     A.U. after   11 cycles
 SCF Done:  E(RwB97XD) =  -2358.77135742     A.U. after   10 cycles
 SCF Done:  E(RwB97XD) =  -2358.77135750     A.U. after    9 cycles
 Optimization completed.
    -- Stationary point found.

                         Standard orientation:
 ---------------------------------------------------------------------
 Center     Atomic      Atomic             Coordinates (Angstroms)
 Number     Number       Type             X           Y           Z
 ---------------------------------------------------------------------
      1          6           0       -3.367953   -2.732915    0.385208
      2          6           0       -2.676871   -1.447302    0.101763
      3          6           0       -3.387781   -0.231242    0.152105
      4          6           0       -4.760642   -0.216327    0.464631
      5          6           0       -5.480079   -1.487841    0.749353
      6          6           0       -1.346056   -1.451106   -0.198287
      7          6           0       -2.705295    0.967687   -0.142305
      8          6           0       -1.315587    0.953652   -0.450673
      9          6           0       -0.618289   -0.257073   -0.464731
     10          6           0       -0.709412    2.219149   -0.956387
     11          6           0       -2.807648    3.460253   -0.478550
     12          6           0       -3.447481    2.170288   -0.121993
     13          6           0       -4.786793    2.169682    0.199662
     14          6           0       -5.451604    0.972907    0.497329
     15          1           0       -6.506531    0.964632    0.741559
     16          1           0       -5.315058    3.115193    0.206557
     17          1           0       -0.821623   -2.397956   -0.181892
     18          7           0       -1.489845    3.381850   -0.911454
     19          7           0       -4.730141   -2.665973    0.671506
     20          8           0       -2.790915   -3.796991    0.384984
     21          8           0       -6.656535   -1.507841    1.029790
     22          8           0       -3.402332    4.514079   -0.421108
     23          8           0        0.417366    2.295127   -1.387029
     24          6           0       -0.831159    4.605726   -1.366401
     25          1           0        0.048358    4.802182   -0.752917
     26          1           0       -0.511128    4.488896   -2.401615
     27          1           0       -1.543584    5.420302   -1.277549
     28          6           0       -5.395044   -3.938944    0.946947
     29          1           0       -5.279267   -4.604884    0.091933
     30          1           0       -4.942189   -4.411719    1.818849
     31          1           0       -6.445792   -3.735967    1.130633
     32          6           0        0.834524   -0.445388   -0.597295
     33          6           0        1.428447   -1.541822   -1.175790
     34         16           0        1.988222    0.481748    0.291610
     35          6           0        2.819048   -1.599294   -0.943680
     36          1           0        0.881527   -2.264324   -1.765873
     37          6           0        3.289303   -0.581243   -0.136947
     38          8           0        3.675357   -2.538686   -1.410242
     39          6           0        4.651035   -0.366889    0.299606
     40          6           0        3.167249   -3.487291   -2.324690
     41          6           0        5.116395    0.640151    1.119124
     42         16           0        5.973503   -1.399184   -0.171447
     43          1           0        4.012064   -4.107330   -2.619110
     44          1           0        2.402685   -4.118602   -1.858248
     45          1           0        2.749147   -2.996950   -3.210657
     46          6           0        6.516364    0.586144    1.362640
     47          8           0        4.253730    1.562481    1.602500
     48          6           0        7.097029   -0.467805    0.724622
     49          1           0        7.062942    1.287092    1.976843
     50          6           0        4.768479    2.555293    2.465121
     51          1           0        8.139413   -0.748132    0.736529
     52          1           0        5.517787    3.171534    1.956572
     53          1           0        3.922094    3.178695    2.747647
     54          1           0        5.206985    2.109126    3.364314
 ---------------------------------------------------------------------

 The electronic state is 1-A.
 Alpha  occ. eigenvalues --  -89.04605 -89.04575 -19.29006 -19.28879 -19.25065
 Alpha  occ. eigenvalues --  -19.25062 -19.24467 -19.24329 -14.50635 -14.50086
 Alpha  occ. eigenvalues --  -10.42844 -10.42676 -10.42310 -10.42220 -10.35356
 Alpha  occ. eigenvalues --  -10.35340 -10.35227 -10.34538 -10.34456 -10.34347
 Alpha  occ. eigenvalues --  -10.34088 -10.33976 -10.33765 -10.33746 -10.33566
 Alpha  occ. eigenvalues --  -10.33061 -10.32870 -10.32869 -10.32697 -10.32639
 Alpha  occ. eigenvalues --  -10.32305 -10.32275 -10.31832 -10.31735 -10.30078
 Alpha  occ. eigenvalues --  -10.29607  -8.08619  -8.08597  -6.03474  -6.03440
 Alpha  occ. eigenvalues --   -6.03067  -6.03044  -6.02686  -6.02685  -1.19542
 Alpha  occ. eigenvalues --   -1.19109  -1.18742  -1.18592  -1.17633  -1.17139
 Alpha  occ. eigenvalues --   -1.06785  -1.06215  -1.03150  -1.00553  -0.98932
 Alpha  occ. eigenvalues --   -0.97103  -0.94654  -0.90559  -0.88627  -0.87310
 Alpha  occ. eigenvalues --   -0.86026  -0.85219  -0.84716  -0.82783  -0.82377
 Alpha  occ. eigenvalues --   -0.81119  -0.79738  -0.78313  -0.76811  -0.75506
 Alpha  occ. eigenvalues --   -0.75087  -0.74377  -0.70099  -0.68921  -0.67930
 Alpha  occ. eigenvalues --   -0.66614  -0.65759  -0.65011  -0.64134  -0.63591
 Alpha  occ. eigenvalues --   -0.62825  -0.60656  -0.59715  -0.59081  -0.58893
 Alpha  occ. eigenvalues --   -0.58151  -0.57663  -0.57392  -0.57292  -0.57026
 Alpha  occ. eigenvalues --   -0.56542  -0.55895  -0.55367  -0.55239  -0.54246
 Alpha  occ. eigenvalues --   -0.53867  -0.53639  -0.53447  -0.53149  -0.52421
 Alpha  occ. eigenvalues --   -0.51557  -0.51142  -0.50886  -0.50436  -0.50203
 Alpha  occ. eigenvalues --   -0.50030  -0.49528  -0.49443  -0.48831  -0.48345
 Alpha  occ. eigenvalues --   -0.48020  -0.47504  -0.46623  -0.45798  -0.45336
 Alpha  occ. eigenvalues --   -0.44429  -0.44053  -0.42338  -0.41683  -0.41322
 Alpha  occ. eigenvalues --   -0.41146  -0.40117  -0.39564  -0.38334  -0.37698
 Alpha  occ. eigenvalues --   -0.37352  -0.37130  -0.36626  -0.36282  -0.34710
 Alpha  occ. eigenvalues --   -0.33167  -0.31740  -0.31290  -0.25543
 Alpha virt. eigenvalues --   -0.07193  -0.00604   0.00499   0.02339   0.03485
 Alpha virt. eigenvalues --    0.05232   0.05786   0.06091   0.06756   0.06920
 Alpha virt. eigenvalues --    0.07111   0.07530   0.07702   0.07770   0.07961

 Mulliken charges:
               1
     1  C    0.364493
     2  C    0.007581
     3  C    0.187792
     4  C    0.243259
     5  C    0.302745
     6  C   -0.151233
     7  C    0.139496
     8  C    0.043433
     9  C    0.253302
    10  C   -0.372529
    11  C    0.353432
    12  C    0.075412
    13  C   -0.552690
    14  C   -0.722598
    15  H    0.187389
    16  H    0.188746
    17  H    0.192267
    18  N   -0.042745
    19  N   -0.092775
    20  O   -0.265298
    21  O   -0.267125
    22  O   -0.276428
    23  O   -0.210500
    24  C   -0.266597
    25  H    0.197298
    26  H    0.197770
    27  H    0.200089
    28  C   -0.278565
    29  H    0.191157
    30  H    0.194941
    31  H    0.200164
    32  C    0.146612
    33  C   -0.766506
    34  S   -0.682717
    35  C   -0.039240
    36  H    0.162309
    37  C    0.728983
    38  O   -0.119124
    39  C    0.947437
    40  C   -0.298983
    41  C    0.033611
    42  S   -0.272586
    43  H    0.183233
    44  H    0.160946
    45  H    0.165238
    46  C   -0.642540
    47  O   -0.113794
    48  C   -0.346728
    49  H    0.155949
    50  C   -0.306635
    51  H    0.186586
    52  H    0.157752
    53  H    0.180438
    54  H    0.158075
 Sum of Mulliken charges =  -0.00000

 Dipole moment (field-independent basis, Debye):
    X=              2.5279    Y=             -0.2928    Z=              0.2028  Tot=              2.5529
 Quadrupole moment (field-independent basis, Debye-Ang):
   XX=           -213.1400   YY=           -216.9712   ZZ=           -212.0266
   XY=              9.4389   XZ=             10.3036   YZ=             13.7802

 Normal termination of Gaussian 16 at Mon Nov 30 01:25:05 2020.
