 Gaussian 16, Revision C.01,
 Gaussian 16:  ES64L-G16RevC.01  3-Jul-2019

 --------------------------------------
 # opt=modredundant wb97xd/6-311+g(d,p)
 --------------------------------------

 -----------
 NDI_150.pdb
 -----------
 Symbolic Z-matrix:
 Charge =  0 Multiplicity = 1

 SCF Done:  E(RwB97XD) =  -2358.74524395     A.U. after   20 cycles
 SCF Done:  E(RwB97XD) =  -2358.75606945     A.U. after   20 cycles
 SCF Done:  E(RwB97XD) =  -2358.76389883     A.U. after   18 cycles
 SCF Done:  E(RwB97XD) =  -2358.76839731     A.U. after   18 cycles
 SCF Done:  E(RwB97XD) =  -2358.76991270     A.U. after   17 cycles
 SCF Done:  E(RwB97XD) =  -2358.77074341     A.U. after   18 cycles
 SCF Done:  E(RwB97XD) =  -2358.77120865     A.U. after   15 cycles
 SCF Done:  E(RwB97XD) =  -2358.77150919     A.U. after   18 cycles
 SCF Done:  E(RwB97XD) =  -2358.77163600     A.U. after   16 cycles
 SCF Done:  E(RwB97XD) =  -2358.77176253     A.U. after   15 cycles
 SCF Done:  E(RwB97XD) =  -2358.77177779     A.U. after   13 cycles
 SCF Done:  E(RwB97XD) =  -2358.77177973     A.U. after   11 cycles
 SCF Done:  E(RwB97XD) =  -2358.77178143     A.U. after   11 cycles
 SCF Done:  E(RwB97XD) =  -2358.77178159     A.U. after    9 cycles
 SCF Done:  E(RwB97XD) =  -2358.77178172     A.U. after   10 cycles
 SCF Done:  E(RwB97XD) =  -2358.77178174     A.U. after    9 cycles
 Optimization completed.
    -- Stationary point found.

                         Standard orientation:
 ---------------------------------------------------------------------
 Center     Atomic      Atomic             Coordinates (Angstroms)
 Number     Number       Type             X           Y           Z
 ---------------------------------------------------------------------
      1          6           0        3.392279   -2.726462    0.352684
      2          6           0        2.689579   -1.446755    0.071736
      3          6           0        3.387106   -0.223568    0.136801
      4          6           0        4.754925   -0.194595    0.469778
      5          6           0        5.482317   -1.458825    0.766225
      6          6           0        1.357187   -1.461022   -0.222603
      7          6           0        2.695287    0.969999   -0.157083
      8          6           0        1.309514    0.942696   -0.478381
      9          6           0        0.620867   -0.272464   -0.487088
     10          6           0        0.697947    2.200733   -0.996130
     11          6           0        2.766485    3.467555   -0.461285
     12          6           0        3.421568    2.181671   -0.116460
     13          6           0        4.756572    2.194078    0.222044
     14          6           0        5.431220    1.002498    0.519582
     15          1           0        6.482159    1.005026    0.780611
     16          1           0        5.273207    3.145721    0.246053
     17          1           0        0.840167   -2.412076   -0.208651
     18          7           0        1.454578    3.376834   -0.910260
     19          7           0        4.744359   -2.644086    0.680087
     20          8           0        2.834064   -3.799716    0.309057
     21          8           0        6.654661   -1.467362    1.063921
     22          8           0        3.345246    4.528778   -0.382052
     23          8           0       -0.410597    2.257132   -1.474171
     24          6           0        0.787885    4.595284   -1.368028
     25          1           0        0.502837    4.489092   -2.414638
     26          1           0       -0.114863    4.764271   -0.780678
     27          1           0        1.480887    5.421802   -1.243367
     28          6           0        5.418972   -3.911086    0.959473
     29          1           0        4.920788   -4.418382    1.785655
     30          1           0        5.375312   -4.553756    0.079891
     31          1           0        6.451065   -3.692087    1.216079
     32          6           0       -0.831324   -0.463559   -0.611918
     33          6           0       -1.431967   -1.558401   -1.185260
     34         16           0       -1.976954    0.473993    0.276303
     35          6           0       -2.822253   -1.608366   -0.946871
     36          1           0       -0.890708   -2.284140   -1.776576
     37          6           0       -3.284893   -0.584732   -0.142862
     38          8           0       -3.688791   -2.532038   -1.425341
     39          6           0       -4.643111   -0.363964    0.301120
     40          6           0       -3.147245   -3.631628   -2.126772
     41          6           0       -5.100279    0.649569    1.117218
     42         16           0       -5.970302   -1.399327   -0.149277
     43          1           0       -3.989194   -4.271961   -2.383453
     44          1           0       -2.647019   -3.307575   -3.046121
     45          1           0       -2.442317   -4.191294   -1.502037
     46          6           0       -6.497776    0.597709    1.374978
     47          8           0       -4.231438    1.571318    1.590773
     48          6           0       -7.084868   -0.460879    0.750626
     49          1           0       -7.038249    1.303564    1.988963
     50          6           0       -4.750031    2.612268    2.392258
     51          1           0       -8.127272   -0.740379    0.774184
     52          1           0       -5.203947    2.217923    3.307907
     53          1           0       -3.902611    3.243448    2.653633
     54          1           0       -5.487662    3.205490    1.841154
 ---------------------------------------------------------------------

 The electronic state is 1-A.
 Alpha  occ. eigenvalues --  -89.04636 -89.04596 -19.29034 -19.28899 -19.25069
 Alpha  occ. eigenvalues --  -19.25065 -19.24475 -19.24338 -14.50638 -14.50082
 Alpha  occ. eigenvalues --  -10.42847 -10.42680 -10.42304 -10.42230 -10.35378
 Alpha  occ. eigenvalues --  -10.35308 -10.35255 -10.34562 -10.34466 -10.34333
 Alpha  occ. eigenvalues --  -10.34060 -10.33974 -10.33767 -10.33752 -10.33572
 Alpha  occ. eigenvalues --  -10.33073 -10.32902 -10.32889 -10.32703 -10.32646
 Alpha  occ. eigenvalues --  -10.32328 -10.32276 -10.31841 -10.31754 -10.30092
 Alpha  occ. eigenvalues --  -10.29628  -8.08653  -8.08617  -6.03507  -6.03460
 Alpha  occ. eigenvalues --   -6.03102  -6.03064  -6.02718  -6.02706  -1.19542
 Alpha  occ. eigenvalues --   -1.19102  -1.18766  -1.18614  -1.17635  -1.17138
 Alpha  occ. eigenvalues --   -1.06785  -1.06218  -1.03157  -1.00575  -0.98952
 Alpha  occ. eigenvalues --   -0.97112  -0.94659  -0.90567  -0.88632  -0.87328
 Alpha  occ. eigenvalues --   -0.86042  -0.85220  -0.84736  -0.82797  -0.82382
 Alpha  occ. eigenvalues --   -0.81124  -0.79762  -0.78332  -0.76814  -0.75507
 Alpha  occ. eigenvalues --   -0.75089  -0.74380  -0.70110  -0.68941  -0.67935
 Alpha  occ. eigenvalues --   -0.66619  -0.65780  -0.65035  -0.64141  -0.63607
 Alpha  occ. eigenvalues --   -0.62837  -0.60662  -0.59717  -0.59074  -0.58893
 Alpha  occ. eigenvalues --   -0.58174  -0.57668  -0.57412  -0.57296  -0.57045
 Alpha  occ. eigenvalues --   -0.56562  -0.55894  -0.55378  -0.55247  -0.54239
 Alpha  occ. eigenvalues --   -0.53853  -0.53672  -0.53459  -0.53167  -0.52443
 Alpha  occ. eigenvalues --   -0.51569  -0.51160  -0.50885  -0.50385  -0.50169
 Alpha  occ. eigenvalues --   -0.50097  -0.49550  -0.49448  -0.48845  -0.48358
 Alpha  occ. eigenvalues --   -0.48031  -0.47522  -0.46600  -0.45842  -0.45465
 Alpha  occ. eigenvalues --   -0.44415  -0.44048  -0.42371  -0.41779  -0.41269
 Alpha  occ. eigenvalues --   -0.41071  -0.40126  -0.39575  -0.38364  -0.37704
 Alpha  occ. eigenvalues --   -0.37354  -0.37131  -0.36647  -0.36274  -0.34727
 Alpha  occ. eigenvalues --   -0.33163  -0.31766  -0.31325  -0.25561
 Alpha virt. eigenvalues --   -0.07194  -0.00618   0.00502   0.02334   0.03483
 Alpha virt. eigenvalues --    0.05222   0.05780   0.06064   0.06740   0.06901
 Alpha virt. eigenvalues --    0.07104   0.07531   0.07707   0.07757   0.07954

 Mulliken charges:
               1
     1  C    0.376486
     2  C   -0.006722
     3  C    0.176548
     4  C    0.252879
     5  C    0.302407
     6  C   -0.172792
     7  C    0.133951
     8  C    0.076212
     9  C    0.254761
    10  C   -0.440099
    11  C    0.351428
    12  C    0.083854
    13  C   -0.552722
    14  C   -0.697075
    15  H    0.187351
    16  H    0.188608
    17  H    0.190266
    18  N   -0.025388
    19  N   -0.093647
    20  O   -0.266324
    21  O   -0.267013
    22  O   -0.275945
    23  O   -0.209903
    24  C   -0.267941
    25  H    0.198443
    26  H    0.196748
    27  H    0.200191
    28  C   -0.277608
    29  H    0.193349
    30  H    0.192636
    31  H    0.200266
    32  C    0.153948
    33  C   -0.732016
    34  S   -0.684658
    35  C   -0.011971
    36  H    0.161149
    37  C    0.692495
    38  O   -0.117881
    39  C    0.943818
    40  C   -0.296142
    41  C    0.022219
    42  S   -0.273936
    43  H    0.183441
    44  H    0.158202
    45  H    0.168243
    46  C   -0.640328
    47  O   -0.113566
    48  C   -0.347692
    49  H    0.155966
    50  C   -0.307437
    51  H    0.186627
    52  H    0.156599
    53  H    0.180261
    54  H    0.159454
 Sum of Mulliken charges =  -0.00000

 Dipole moment (field-independent basis, Debye):
    X=             -2.5352    Y=             -0.3899    Z=              0.4827  Tot=              2.6100
 Quadrupole moment (field-independent basis, Debye-Ang):
   XX=           -213.1695   YY=           -215.3649   ZZ=           -213.7971
   XY=             -9.0527   XZ=            -11.1286   YZ=             12.7649

 Normal termination of Gaussian 16 at Mon Nov 30 01:46:39 2020.
