 Gaussian 16, Revision C.01,
 Gaussian 16:  ES64L-G16RevC.01  3-Jul-2019

 --------------------------------------
 # opt=modredundant wb97xd/6-311+g(d,p)
 --------------------------------------

 ----------
 NDI_65.pdb
 ----------
 Symbolic Z-matrix:
 Charge =  0 Multiplicity = 1

 SCF Done:  E(RwB97XD) =  -2358.76521843     A.U. after   19 cycles
 SCF Done:  E(RwB97XD) =  -2358.77174249     A.U. after   16 cycles
 SCF Done:  E(RwB97XD) =  -2358.77280568     A.U. after   16 cycles
 SCF Done:  E(RwB97XD) =  -2358.77330611     A.U. after   14 cycles
 SCF Done:  E(RwB97XD) =  -2358.77341219     A.U. after   15 cycles
 SCF Done:  E(RwB97XD) =  -2358.77346861     A.U. after   13 cycles
 SCF Done:  E(RwB97XD) =  -2358.77349101     A.U. after   14 cycles
 SCF Done:  E(RwB97XD) =  -2358.77349893     A.U. after   13 cycles
 SCF Done:  E(RwB97XD) =  -2358.77350255     A.U. after   11 cycles
 SCF Done:  E(RwB97XD) =  -2358.77350355     A.U. after   12 cycles
 SCF Done:  E(RwB97XD) =  -2358.77350383     A.U. after   11 cycles
 SCF Done:  E(RwB97XD) =  -2358.77350391     A.U. after   10 cycles
 SCF Done:  E(RwB97XD) =  -2358.77350394     A.U. after    8 cycles
 Optimization completed.
    -- Stationary point found.

                         Standard orientation:
 ---------------------------------------------------------------------
 Center     Atomic      Atomic             Coordinates (Angstroms)
 Number     Number       Type             X           Y           Z
 ---------------------------------------------------------------------
      1          6           0       -2.888823   -2.881955    0.621710
      2          6           0       -2.418564   -1.492589    0.376163
      3          6           0       -3.342872   -0.472244    0.075546
      4          6           0       -4.721346   -0.755768   -0.006321
      5          6           0       -5.220637   -2.138553    0.229515
      6          6           0       -1.083394   -1.208396    0.444474
      7          6           0       -2.868883    0.836155   -0.159370
      8          6           0       -1.478573    1.122932   -0.075285
      9          6           0       -0.583503    0.104850    0.242486
     10          6           0       -1.021317    2.505413   -0.415774
     11          6           0       -3.375161    3.222978   -0.780416
     12          6           0       -3.812992    1.835877   -0.485892
     13          6           0       -5.155843    1.542222   -0.556272
     14          6           0       -5.617291    0.240716   -0.313621
     15          1           0       -6.672001    0.002042   -0.371677
     16          1           0       -5.845487    2.338060   -0.809454
     17          1           0       -0.391062   -2.004873    0.690061
     18          7           0       -2.003694    3.448357   -0.748815
     19          7           0       -4.260402   -3.111930    0.517975
     20          8           0       -2.134597   -3.783601    0.906879
     21          8           0       -6.398091   -2.410092    0.172704
     22          8           0       -4.162874    4.104309   -1.043843
     23          8           0        0.136338    2.849689   -0.420421
     24          6           0       -1.511928    4.788012   -1.069917
     25          1           0       -0.969131    5.197546   -0.217819
     26          1           0       -0.831534    4.736069   -1.919723
     27          1           0       -2.369362    5.410518   -1.306706
     28          6           0       -4.703527   -4.484485    0.759924
     29          1           0       -4.210780   -5.157386    0.058272
     30          1           0       -4.437925   -4.785096    1.773726
     31          1           0       -5.780461   -4.518610    0.625947
     32          6           0        0.871590    0.272065    0.411647
     33          6           0        1.532042    0.989729    1.363739
     34         16           0        1.959074   -0.639245   -0.572091
     35          6           0        2.936313    0.816459    1.289410
     36          1           0        1.027089    1.628471    2.073479
     37          6           0        3.346319   -0.036491    0.286853
     38          8           0        3.857951    1.419027    2.076917
     39          6           0        4.702596   -0.394095   -0.069488
     40          6           0        3.384927    2.194251    3.158215
     41          6           0        5.103383   -1.278175   -1.047834
     42         16           0        6.100642    0.278187    0.722506
     43          1           0        4.268487    2.550062    3.685210
     44          1           0        2.804020    3.053299    2.805020
     45          1           0        2.774000    1.591428    3.839221
     46          6           0        6.514528   -1.414984   -1.161104
     47          8           0        4.172271   -1.921960   -1.791426
     48          6           0        7.169677   -0.628592   -0.262675
     49          1           0        7.016616   -2.060491   -1.867281
     50          6           0        4.629982   -2.789628   -2.806891
     51          1           0        8.236371   -0.537372   -0.124928
     52          1           0        5.215977   -3.615196   -2.388301
     53          1           0        3.739137   -3.189448   -3.288118
     54          1           0        5.231066   -2.250264   -3.547087
 ---------------------------------------------------------------------

 The electronic state is 1-A.
 Alpha  occ. eigenvalues --  -89.04655 -89.04245 -19.28688 -19.28585 -19.25172
 Alpha  occ. eigenvalues --  -19.25116 -19.24783 -19.24684 -14.50723 -14.50389
 Alpha  occ. eigenvalues --  -10.42969 -10.42740 -10.42685 -10.42546 -10.35291
 Alpha  occ. eigenvalues --  -10.34982 -10.34926 -10.34618 -10.34555 -10.34309
 Alpha  occ. eigenvalues --  -10.34296 -10.34203 -10.34014 -10.33954 -10.33895
 Alpha  occ. eigenvalues --  -10.32999 -10.32982 -10.32936 -10.32724 -10.32339
 Alpha  occ. eigenvalues --  -10.32333 -10.32072 -10.32005 -10.31350 -10.29522
 Alpha  occ. eigenvalues --  -10.29300  -8.08672  -8.08267  -6.03525  -6.03127
 Alpha  occ. eigenvalues --   -6.03110  -6.02740  -6.02714  -6.02356  -1.19638
 Alpha  occ. eigenvalues --   -1.19414  -1.18390  -1.18291  -1.17730  -1.17460
 Alpha  occ. eigenvalues --   -1.06895  -1.06480  -1.03393  -1.00347  -0.98722
 Alpha  occ. eigenvalues --   -0.97182  -0.94898  -0.90521  -0.88848  -0.87169
 Alpha  occ. eigenvalues --   -0.85781  -0.85389  -0.84412  -0.82701  -0.82197
 Alpha  occ. eigenvalues --   -0.81482  -0.79386  -0.78223  -0.77011  -0.75710
 Alpha  occ. eigenvalues --   -0.75284  -0.74356  -0.70172  -0.68689  -0.67809
 Alpha  occ. eigenvalues --   -0.66760  -0.65601  -0.64849  -0.64613  -0.63228
 Alpha  occ. eigenvalues --   -0.62664  -0.60839  -0.59869  -0.59294  -0.58988
 Alpha  occ. eigenvalues --   -0.58076  -0.57773  -0.57392  -0.57103  -0.56763
 Alpha  occ. eigenvalues --   -0.56405  -0.56090  -0.55533  -0.55326  -0.54212
 Alpha  occ. eigenvalues --   -0.54054  -0.53547  -0.53462  -0.53163  -0.52390
 Alpha  occ. eigenvalues --   -0.51655  -0.51193  -0.51173  -0.50368  -0.50211
 Alpha  occ. eigenvalues --   -0.49855  -0.49596  -0.49232  -0.48933  -0.48385
 Alpha  occ. eigenvalues --   -0.48263  -0.47184  -0.46930  -0.45748  -0.45188
 Alpha  occ. eigenvalues --   -0.44135  -0.43754  -0.42142  -0.41485  -0.41166
 Alpha  occ. eigenvalues --   -0.40921  -0.40402  -0.39770  -0.38672  -0.37673
 Alpha  occ. eigenvalues --   -0.37485  -0.37100  -0.36996  -0.36157  -0.34719
 Alpha  occ. eigenvalues --   -0.33379  -0.31469  -0.31316  -0.25405
 Alpha virt. eigenvalues --   -0.07275  -0.00153   0.00494   0.02205   0.03000
 Alpha virt. eigenvalues --    0.05067   0.05908   0.06146   0.06798   0.06898
 Alpha virt. eigenvalues --    0.07349   0.07479   0.07609   0.07781   0.07864

 Mulliken charges:
               1
     1  C    0.454888
     2  C   -0.061499
     3  C    0.159747
     4  C    0.177540
     5  C    0.360341
     6  C   -0.714691
     7  C    0.164006
     8  C    0.138510
     9  C    0.511069
    10  C   -0.386501
    11  C    0.254120
    12  C    0.136762
    13  C   -0.545066
    14  C   -0.685404
    15  H    0.188161
    16  H    0.188852
    17  H    0.210831
    18  N   -0.107801
    19  N   -0.094126
    20  O   -0.260011
    21  O   -0.267578
    22  O   -0.271708
    23  O   -0.119173
    24  C   -0.296848
    25  H    0.193436
    26  H    0.197240
    27  H    0.201551
    28  C   -0.284001
    29  H    0.192855
    30  H    0.195052
    31  H    0.200361
    32  C    0.013836
    33  C   -0.368546
    34  S   -0.482552
    35  C   -0.024945
    36  H    0.153933
    37  C    0.641332
    38  O   -0.117059
    39  C    0.770181
    40  C   -0.292100
    41  C   -0.021409
    42  S   -0.289088
    43  H    0.181533
    44  H    0.163242
    45  H    0.160099
    46  C   -0.570373
    47  O   -0.118217
    48  C   -0.358494
    49  H    0.154825
    50  C   -0.305534
    51  H    0.184778
    52  H    0.155631
    53  H    0.179236
    54  H    0.158775
 Sum of Mulliken charges =  -0.00000

 Dipole moment (field-independent basis, Debye):
    X=              1.6008    Y=             -0.2608    Z=              0.1188  Tot=              1.6263
 Quadrupole moment (field-independent basis, Debye-Ang):
   XX=           -218.1454   YY=           -219.4270   ZZ=           -206.0842
   XY=             -2.9699   XZ=             -6.8651   YZ=             16.0457

 Normal termination of Gaussian 16 at Sun Nov 29 22:18:30 2020.
