 Gaussian 16, Revision C.01,
 Gaussian 16:  ES64L-G16RevC.01  3-Jul-2019

 --------------------------------------
 # opt=modredundant wb97xd/6-311+g(d,p)
 --------------------------------------

 -----------
 NDI_-35.pdb
 -----------
 Symbolic Z-matrix:
 Charge =  0 Multiplicity = 1

 SCF Done:  E(RwB97XD) =  -2358.76960794     A.U. after   20 cycles
 SCF Done:  E(RwB97XD) =  -2358.77306289     A.U. after   16 cycles
 SCF Done:  E(RwB97XD) =  -2358.77303181     A.U. after   16 cycles
 SCF Done:  E(RwB97XD) =  -2358.77347165     A.U. after   15 cycles
 SCF Done:  E(RwB97XD) =  -2358.77351900     A.U. after   14 cycles
 SCF Done:  E(RwB97XD) =  -2358.77352436     A.U. after   12 cycles
 SCF Done:  E(RwB97XD) =  -2358.77352821     A.U. after   12 cycles
 SCF Done:  E(RwB97XD) =  -2358.77352881     A.U. after   12 cycles
 SCF Done:  E(RwB97XD) =  -2358.77352899     A.U. after    9 cycles
 Optimization completed.
    -- Stationary point found.

                         Standard orientation:
 ---------------------------------------------------------------------
 Center     Atomic      Atomic             Coordinates (Angstroms)
 Number     Number       Type             X           Y           Z
 ---------------------------------------------------------------------
      1          6           0        2.655415   -2.977303    0.403616
      2          6           0        2.296507   -1.545742    0.219316
      3          6           0        3.304016   -0.569356    0.082738
      4          6           0        4.662558   -0.936709    0.120545
      5          6           0        5.053021   -2.360559    0.311998
      6          6           0        0.984112   -1.179727    0.211276
      7          6           0        2.925168    0.776868   -0.108607
      8          6           0        1.548811    1.151087   -0.132425
      9          6           0        0.562925    0.173462    0.059071
     10          6           0        1.229461    2.556435   -0.524155
     11          6           0        3.643787    3.153585   -0.518042
     12          6           0        3.958795    1.727849   -0.269714
     13          6           0        5.284120    1.354016   -0.219906
     14          6           0        5.644661    0.016103   -0.022346
     15          1           0        6.683946   -0.285652    0.012619
     16          1           0        6.039009    2.120628   -0.344039
     17          1           0        0.242591   -1.954256    0.365588
     18          7           0        2.295776    3.455768   -0.663595
     19          7           0        4.013757   -3.287115    0.435853
     20          8           0        1.823220   -3.847259    0.525166
     21          8           0        6.212081   -2.704146    0.356608
     22          8           0        4.504146    4.001501   -0.611961
     23          8           0        0.110421    2.968112   -0.730981
     24          6           0        1.927461    4.828320   -1.008658
     25          1           0        1.390526    4.839227   -1.956973
     26          1           0        1.276621    5.242655   -0.238366
     27          1           0        2.841978    5.409071   -1.081678
     28          6           0        4.349922   -4.698025    0.621517
     29          1           0        3.917884   -5.059016    1.554860
     30          1           0        3.941089   -5.285563   -0.200824
     31          1           0        5.432003   -4.784627    0.645892
     32          6           0       -0.876010    0.398659    0.222384
     33          6           0       -1.537676    1.424175    0.842229
     34         16           0       -1.995721   -0.785858   -0.378559
     35          6           0       -2.936927    1.253579    0.838931
     36          1           0       -1.034635    2.268858    1.283906
     37          6           0       -3.364198    0.102707    0.202951
     38          8           0       -3.846242    2.097158    1.378748
     39          6           0       -4.725888   -0.337636    0.003507
     40          6           0       -3.370157    3.329321    1.882501
     41          6           0       -5.144854   -1.501323   -0.607702
     42         16           0       -6.109588    0.584177    0.524399
     43          1           0       -4.250149    3.887695    2.196611
     44          1           0       -2.713287    3.175529    2.745773
     45          1           0       -2.835757    3.890415    1.108604
     46          6           0       -6.557827   -1.650934   -0.657172
     47          8           0       -4.228719   -2.368686   -1.093694
     48          6           0       -7.195068   -0.594170   -0.080408
     49          1           0       -7.073683   -2.493632   -1.094268
     50          6           0       -4.700681   -3.564136   -1.680852
     51          1           0       -8.259542   -0.447771    0.023314
     52          1           0       -5.320505   -3.354722   -2.559313
     53          1           0       -3.816467   -4.119795   -1.987507
     54          1           0       -5.271381   -4.159456   -0.960093
 ---------------------------------------------------------------------

 The electronic state is 1-A.
 Alpha  occ. eigenvalues --  -89.04976 -89.04707 -19.29147 -19.28877 -19.24984
 Alpha  occ. eigenvalues --  -19.24955 -19.24470 -19.24415 -14.50551 -14.50166
 Alpha  occ. eigenvalues --  -10.42766 -10.42566 -10.42529 -10.42200 -10.35513
 Alpha  occ. eigenvalues --  -10.35458 -10.35336 -10.34584 -10.34372 -10.34304
 Alpha  occ. eigenvalues --  -10.34162 -10.33892 -10.33703 -10.33673 -10.33476
 Alpha  occ. eigenvalues --  -10.33143 -10.32966 -10.32741 -10.32597 -10.32530
 Alpha  occ. eigenvalues --  -10.32452 -10.32203 -10.31983 -10.31872 -10.29879
 Alpha  occ. eigenvalues --  -10.29727  -8.09006  -8.08728  -6.03855  -6.03571
 Alpha  occ. eigenvalues --   -6.03458  -6.03175  -6.03079  -6.02817  -1.19463
 Alpha  occ. eigenvalues --   -1.19186  -1.18862  -1.18606  -1.17548  -1.17182
 Alpha  occ. eigenvalues --   -1.06714  -1.06238  -1.03075  -1.00674  -0.99024
 Alpha  occ. eigenvalues --   -0.97073  -0.94601  -0.90521  -0.88590  -0.87451
 Alpha  occ. eigenvalues --   -0.86044  -0.85213  -0.84824  -0.82804  -0.82243
 Alpha  occ. eigenvalues --   -0.81496  -0.79614  -0.78328  -0.76856  -0.75470
 Alpha  occ. eigenvalues --   -0.75159  -0.74211  -0.70259  -0.68907  -0.67919
 Alpha  occ. eigenvalues --   -0.66559  -0.65749  -0.65187  -0.64528  -0.63640
 Alpha  occ. eigenvalues --   -0.62423  -0.60657  -0.59709  -0.59184  -0.58769
 Alpha  occ. eigenvalues --   -0.58321  -0.57661  -0.57426  -0.57268  -0.57008
 Alpha  occ. eigenvalues --   -0.56616  -0.55794  -0.55439  -0.55106  -0.54404
 Alpha  occ. eigenvalues --   -0.53943  -0.53538  -0.53283  -0.53236  -0.52071
 Alpha  occ. eigenvalues --   -0.51621  -0.51079  -0.50980  -0.50544  -0.50336
 Alpha  occ. eigenvalues --   -0.50091  -0.49496  -0.49396  -0.48807  -0.48329
 Alpha  occ. eigenvalues --   -0.47982  -0.47667  -0.46913  -0.45780  -0.45479
 Alpha  occ. eigenvalues --   -0.44346  -0.44097  -0.42433  -0.41794  -0.41325
 Alpha  occ. eigenvalues --   -0.41273  -0.40124  -0.39606  -0.38542  -0.37757
 Alpha  occ. eigenvalues --   -0.37309  -0.37063  -0.36808  -0.36273  -0.34551
 Alpha  occ. eigenvalues --   -0.33148  -0.31712  -0.31603  -0.25610
 Alpha virt. eigenvalues --   -0.07211  -0.00750   0.00479   0.02426   0.03505
 Alpha virt. eigenvalues --    0.05223   0.05752   0.06092   0.06782   0.07045
 Alpha virt. eigenvalues --    0.07235   0.07490   0.07744   0.07890   0.07969

 Mulliken charges:
               1
     1  C    0.332662
     2  C   -0.076354
     3  C    0.174684
     4  C    0.197057
     5  C    0.332580
     6  C   -0.339717
     7  C    0.196072
     8  C    0.383597
     9  C    0.415248
    10  C   -0.550933
    11  C    0.269320
    12  C    0.112743
    13  C   -0.550526
    14  C   -0.681917
    15  H    0.187019
    16  H    0.188358
    17  H    0.202470
    18  N   -0.057020
    19  N   -0.090598
    20  O   -0.265674
    21  O   -0.266002
    22  O   -0.274057
    23  O   -0.203967
    24  C   -0.275872
    25  H    0.197182
    26  H    0.189084
    27  H    0.201049
    28  C   -0.282555
    29  H    0.192959
    30  H    0.193439
    31  H    0.199922
    32  C    0.067227
    33  C   -0.496160
    34  S   -0.670012
    35  C   -0.142786
    36  H    0.160176
    37  C    0.689862
    38  O   -0.108540
    39  C    0.871584
    40  C   -0.310009
    41  C   -0.001236
    42  S   -0.278078
    43  H    0.181848
    44  H    0.156853
    45  H    0.177582
    46  C   -0.633757
    47  O   -0.111021
    48  C   -0.339727
    49  H    0.156755
    50  C   -0.307242
    51  H    0.187098
    52  H    0.157121
    53  H    0.183087
    54  H    0.159124
 Sum of Mulliken charges =  -0.00000

 Dipole moment (field-independent basis, Debye):
    X=             -2.9219    Y=             -0.3816    Z=              0.1263  Tot=              2.9495
 Quadrupole moment (field-independent basis, Debye-Ang):
   XX=           -215.6482   YY=           -209.2903   ZZ=           -216.8039
   XY=              4.0329   XZ=              3.4502   YZ=             12.8554

 Normal termination of Gaussian 16 at Sun Nov 29 18:56:24 2020.
