 Gaussian 16, Revision C.01,
 Gaussian 16:  ES64L-G16RevC.01  3-Jul-2019

 --------------------------------------
 # opt=modredundant wb97xd/6-311+g(d,p)
 --------------------------------------

 ------------
 NDI_-165.pdb
 ------------
 Symbolic Z-matrix:
 Charge =  0 Multiplicity = 1

 SCF Done:  E(RwB97XD) =  -2358.72954497     A.U. after   20 cycles
 SCF Done:  E(RwB97XD) =  -2358.75460697     A.U. after   20 cycles
 SCF Done:  E(RwB97XD) =  -2358.76547289     A.U. after   18 cycles
 SCF Done:  E(RwB97XD) =  -2358.76727062     A.U. after   16 cycles
 SCF Done:  E(RwB97XD) =  -2358.76808463     A.U. after   17 cycles
 SCF Done:  E(RwB97XD) =  -2358.76834778     A.U. after   17 cycles
 SCF Done:  E(RwB97XD) =  -2358.76839658     A.U. after   17 cycles
 SCF Done:  E(RwB97XD) =  -2358.76860655     A.U. after   14 cycles
 SCF Done:  E(RwB97XD) =  -2358.76888339     A.U. after   18 cycles
 SCF Done:  E(RwB97XD) =  -2358.76904650     A.U. after   15 cycles
 SCF Done:  E(RwB97XD) =  -2358.76908911     A.U. after   17 cycles
 SCF Done:  E(RwB97XD) =  -2358.76914507     A.U. after   16 cycles
 SCF Done:  E(RwB97XD) =  -2358.76919259     A.U. after   16 cycles
 SCF Done:  E(RwB97XD) =  -2358.76919963     A.U. after   13 cycles
 SCF Done:  E(RwB97XD) =  -2358.76920014     A.U. after   11 cycles
 SCF Done:  E(RwB97XD) =  -2358.76920025     A.U. after   11 cycles
 SCF Done:  E(RwB97XD) =  -2358.76920007     A.U. after   13 cycles
 SCF Done:  E(RwB97XD) =  -2358.76920029     A.U. after   11 cycles
 SCF Done:  E(RwB97XD) =  -2358.76920030     A.U. after   10 cycles
 Optimization completed.
    -- Stationary point found.

                         Standard orientation:
 ---------------------------------------------------------------------
 Center     Atomic      Atomic             Coordinates (Angstroms)
 Number     Number       Type             X           Y           Z
 ---------------------------------------------------------------------
      1          6           0       -3.400000   -2.714339    0.275994
      2          6           0       -2.700680   -1.424228    0.036380
      3          6           0       -3.401655   -0.205502    0.130434
      4          6           0       -4.773074   -0.191205    0.443549
      5          6           0       -5.503059   -1.466709    0.678307
      6          6           0       -1.371971   -1.430435   -0.260725
      7          6           0       -2.702024    0.993512   -0.116366
      8          6           0       -1.309469    0.976860   -0.425058
      9          6           0       -0.616456   -0.241109   -0.491126
     10          6           0       -0.699785    2.261055   -0.864906
     11          6           0       -2.787460    3.499177   -0.345270
     12          6           0       -3.434570    2.200578   -0.044891
     13          6           0       -4.775018    2.200688    0.276442
     14          6           0       -5.453832    1.002191    0.524673
     15          1           0       -6.508793    0.995017    0.768413
     16          1           0       -5.291455    3.151628    0.321950
     17          1           0       -0.874326   -2.389842   -0.263567
     18          7           0       -1.469575    3.427169   -0.776384
     19          7           0       -4.761925   -2.647685    0.560613
     20          8           0       -2.829902   -3.782069    0.241552
     21          8           0       -6.680553   -1.488400    0.954166
     22          8           0       -3.373574    4.555053   -0.246534
     23          8           0        0.431400    2.353008   -1.285232
     24          6           0       -0.798520    4.663426   -1.176005
     25          1           0        0.078902    4.827202   -0.550048
     26          1           0       -0.473539    4.587869   -2.213478
     27          1           0       -1.505734    5.478649   -1.056298
     28          6           0       -5.437331   -3.924223    0.789581
     29          1           0       -5.324069   -4.560813   -0.087855
     30          1           0       -4.990768   -4.430658    1.645706
     31          1           0       -6.487055   -3.719661    0.977277
     32          6           0        0.833281   -0.467903   -0.614889
     33          6           0        1.389299   -1.682786   -0.968896
     34         16           0        2.045761    0.561701    0.067816
     35          6           0        2.769929   -1.761444   -0.720334
     36          1           0        0.824238   -2.484518   -1.422010
     37          6           0        3.287070   -0.629068   -0.117164
     38          8           0        3.582010   -2.809429   -0.995382
     39          6           0        4.659582   -0.395514    0.269691
     40          6           0        3.030163   -3.889789   -1.718602
     41          6           0        5.174856    0.727380    0.884902
     42         16           0        5.933115   -1.555201    0.001770
     43          1           0        3.845619   -4.591299   -1.884971
     44          1           0        2.238357   -4.387026   -1.147264
     45          1           0        2.633572   -3.556818   -2.684053
     46          6           0        6.572959    0.658519    1.134166
     47          8           0        4.358254    1.760739    1.184330
     48          6           0        7.101857   -0.521613    0.706350
     49          1           0        7.154178    1.437965    1.605237
     50          6           0        4.922489    2.877189    1.840865
     51          1           0        8.131243   -0.840169    0.771855
     52          1           0        5.692895    3.351149    1.223233
     53          1           0        4.105685    3.579081    1.998352
     54          1           0        5.348948    2.592410    2.808739
 ---------------------------------------------------------------------

 The electronic state is 1-A.
 Alpha  occ. eigenvalues --  -89.04774 -89.04702 -19.29186 -19.29003 -19.25010
 Alpha  occ. eigenvalues --  -19.24980 -19.24306 -19.24246 -14.50564 -14.49995
 Alpha  occ. eigenvalues --  -10.42753 -10.42607 -10.42208 -10.42042 -10.35629
 Alpha  occ. eigenvalues --  -10.35568 -10.35317 -10.34650 -10.34541 -10.34221
 Alpha  occ. eigenvalues --  -10.33906 -10.33736 -10.33603 -10.33563 -10.33360
 Alpha  occ. eigenvalues --  -10.33261 -10.33124 -10.32735 -10.32485 -10.32483
 Alpha  occ. eigenvalues --  -10.32429 -10.32224 -10.31981 -10.31781 -10.30272
 Alpha  occ. eigenvalues --  -10.29794  -8.08796  -8.08695  -6.03638  -6.03547
 Alpha  occ. eigenvalues --   -6.03242  -6.03131  -6.02885  -6.02770  -1.19468
 Alpha  occ. eigenvalues --   -1.19035  -1.18947  -1.18723  -1.17557  -1.17028
 Alpha  occ. eigenvalues --   -1.06708  -1.06123  -1.02984  -1.00655  -0.99043
 Alpha  occ. eigenvalues --   -0.97024  -0.94501  -0.90552  -0.88491  -0.87389
 Alpha  occ. eigenvalues --   -0.86152  -0.85149  -0.84884  -0.82898  -0.82317
 Alpha  occ. eigenvalues --   -0.81077  -0.79864  -0.78353  -0.76730  -0.75410
 Alpha  occ. eigenvalues --   -0.75016  -0.74355  -0.70108  -0.69012  -0.67990
 Alpha  occ. eigenvalues --   -0.66539  -0.65777  -0.65167  -0.64133  -0.63704
 Alpha  occ. eigenvalues --   -0.62777  -0.60550  -0.59632  -0.59034  -0.58883
 Alpha  occ. eigenvalues --   -0.58120  -0.57619  -0.57525  -0.57238  -0.57142
 Alpha  occ. eigenvalues --   -0.56643  -0.55823  -0.55350  -0.55127  -0.54254
 Alpha  occ. eigenvalues --   -0.53929  -0.53594  -0.53455  -0.53068  -0.52301
 Alpha  occ. eigenvalues --   -0.51521  -0.51151  -0.50828  -0.50544  -0.50283
 Alpha  occ. eigenvalues --   -0.50012  -0.49575  -0.49376  -0.48811  -0.48337
 Alpha  occ. eigenvalues --   -0.47926  -0.47662  -0.46639  -0.45719  -0.45279
 Alpha  occ. eigenvalues --   -0.44597  -0.44145  -0.42437  -0.41785  -0.41491
 Alpha  occ. eigenvalues --   -0.41103  -0.39957  -0.39455  -0.38228  -0.37870
 Alpha  occ. eigenvalues --   -0.37272  -0.37143  -0.36488  -0.36316  -0.34557
 Alpha  occ. eigenvalues --   -0.33093  -0.31816  -0.31369  -0.25628
 Alpha virt. eigenvalues --   -0.07125  -0.00944   0.00587   0.02480   0.03574
 Alpha virt. eigenvalues --    0.05246   0.05737   0.06058   0.06748   0.07023
 Alpha virt. eigenvalues --    0.07104   0.07451   0.07772   0.07820   0.08111

 Mulliken charges:
               1
     1  C    0.356832
     2  C    0.007470
     3  C    0.242727
     4  C    0.209395
     5  C    0.331172
     6  C    0.086976
     7  C    0.098462
     8  C    0.173975
     9  C    0.315963
    10  C   -0.461002
    11  C    0.347579
    12  C    0.030169
    13  C   -0.552112
    14  C   -0.703885
    15  H    0.186596
    16  H    0.188473
    17  H    0.180406
    18  N   -0.046433
    19  N   -0.093483
    20  O   -0.269319
    21  O   -0.265023
    22  O   -0.277851
    23  O   -0.211756
    24  C   -0.270185
    25  H    0.196078
    26  H    0.198382
    27  H    0.200476
    28  C   -0.278711
    29  H    0.191133
    30  H    0.194201
    31  H    0.200201
    32  C   -0.007272
    33  C   -0.600194
    34  S   -0.747855
    35  C   -0.299998
    36  H    0.154927
    37  C    0.728722
    38  O   -0.115453
    39  C    0.943877
    40  C   -0.301559
    41  C   -0.000888
    42  S   -0.266901
    43  H    0.184286
    44  H    0.160855
    45  H    0.165196
    46  C   -0.585095
    47  O   -0.103297
    48  C   -0.350345
    49  H    0.156555
    50  C   -0.309073
    51  H    0.187578
    52  H    0.158993
    53  H    0.181608
    54  H    0.158429
 Sum of Mulliken charges =  -0.00000

 Dipole moment (field-independent basis, Debye):
    X=              3.1481    Y=             -0.3943    Z=              0.2530  Tot=              3.1827
 Quadrupole moment (field-independent basis, Debye-Ang):
   XX=           -211.2773   YY=           -213.1360   ZZ=           -216.8576
   XY=             10.8557   XZ=              9.8233   YZ=             11.3220

 Normal termination of Gaussian 16 at Mon Nov 30 02:48:45 2020.
