 Gaussian 16, Revision C.01,
 Gaussian 16:  ES64L-G16RevC.01  3-Jul-2019

 --------------------------------------
 # opt=modredundant wb97xd/6-311+g(d,p)
 --------------------------------------

 -----------
 NDI_145.pdb
 -----------
 Symbolic Z-matrix:
 Charge =  0 Multiplicity = 1

 SCF Done:  E(RwB97XD) =  -2358.75064684     A.U. after   20 cycles
 SCF Done:  E(RwB97XD) =  -2358.75702240     A.U. after   22 cycles
 SCF Done:  E(RwB97XD) =  -2358.76444067     A.U. after   19 cycles
 SCF Done:  E(RwB97XD) =  -2358.76896929     A.U. after   18 cycles
 SCF Done:  E(RwB97XD) =  -2358.77102146     A.U. after   17 cycles
 SCF Done:  E(RwB97XD) =  -2358.77165626     A.U. after   18 cycles
 SCF Done:  E(RwB97XD) =  -2358.77201926     A.U. after   15 cycles
 SCF Done:  E(RwB97XD) =  -2358.77220364     A.U. after   15 cycles
 SCF Done:  E(RwB97XD) =  -2358.77223343     A.U. after   15 cycles
 SCF Done:  E(RwB97XD) =  -2358.77227484     A.U. after   14 cycles
 SCF Done:  E(RwB97XD) =  -2358.77227966     A.U. after   12 cycles
 SCF Done:  E(RwB97XD) =  -2358.77228042     A.U. after   11 cycles
 SCF Done:  E(RwB97XD) =  -2358.77228082     A.U. after   11 cycles
 SCF Done:  E(RwB97XD) =  -2358.77228087     A.U. after    9 cycles
 SCF Done:  E(RwB97XD) =  -2358.77228089     A.U. after    8 cycles
 Optimization completed.
    -- Stationary point found.

                         Standard orientation:
 ---------------------------------------------------------------------
 Center     Atomic      Atomic             Coordinates (Angstroms)
 Number     Number       Type             X           Y           Z
 ---------------------------------------------------------------------
      1          6           0        3.391478   -2.729051    0.379393
      2          6           0        2.688315   -1.451300    0.090826
      3          6           0        3.387713   -0.228396    0.140377
      4          6           0        4.757677   -0.197958    0.465802
      5          6           0        5.484945   -1.460103    0.771584
      6          6           0        1.353971   -1.466144   -0.197769
      7          6           0        2.697628    0.964136   -0.162215
      8          6           0        1.310785    0.936013   -0.476203
      9          6           0        0.622040   -0.277558   -0.468437
     10          6           0        0.695012    2.189644   -1.001768
     11          6           0        2.769368    3.458335   -0.492673
     12          6           0        3.425540    2.175175   -0.138237
     13          6           0        4.762109    2.188673    0.192897
     14          6           0        5.435869    0.998434    0.499329
     15          1           0        6.488197    1.001753    0.754775
     16          1           0        5.280987    3.139330    0.204397
     17          1           0        0.831895   -2.414668   -0.177660
     18          7           0        1.454048    3.365388   -0.931652
     19          7           0        4.745137   -2.645007    0.700535
     20          8           0        2.832353   -3.802093    0.347183
     21          8           0        6.658703   -1.466960    1.063735
     22          8           0        3.350351    4.519246   -0.428188
     23          8           0       -0.416684    2.242089   -1.472028
     24          6           0        0.785758    4.580621   -1.395787
     25          1           0        0.493340    4.465312   -2.439399
     26          1           0       -0.112651    4.755988   -0.803689
     27          1           0        1.480568    5.407386   -1.283502
     28          6           0        5.419573   -3.910196    0.988570
     29          1           0        4.924138   -4.409470    1.821257
     30          1           0        5.371653   -4.560732    0.115016
     31          1           0        6.452918   -3.690039    1.239062
     32          6           0       -0.831112   -0.461028   -0.595486
     33          6           0       -1.441116   -1.508948   -1.237616
     34         16           0       -1.964044    0.436987    0.346552
     35          6           0       -2.834747   -1.552153   -1.007543
     36          1           0       -0.904641   -2.203782   -1.869152
     37          6           0       -3.286931   -0.572298   -0.146230
     38          8           0       -3.711578   -2.433450   -1.543741
     39          6           0       -4.643886   -0.359884    0.306828
     40          6           0       -3.182089   -3.495886   -2.308649
     41          6           0       -5.090579    0.610220    1.179092
     42         16           0       -5.982876   -1.349077   -0.207333
     43          1           0       -4.031504   -4.108264   -2.605819
     44          1           0       -2.674349   -3.123749   -3.205390
     45          1           0       -2.486888   -4.101606   -1.716840
     46          6           0       -6.489656    0.562294    1.429361
     47          8           0       -4.211184    1.491511    1.708227
     48          6           0       -7.088612   -0.449916    0.742591
     49          1           0       -7.022971    1.238352    2.081942
     50          6           0       -4.719290    2.490565    2.567403
     51          1           0       -8.134714   -0.716193    0.746504
     52          1           0       -5.180625    2.049717    3.457818
     53          1           0       -3.865056    3.095177    2.866769
     54          1           0       -5.448156    3.123784    2.050101
 ---------------------------------------------------------------------

 The electronic state is 1-A.
 Alpha  occ. eigenvalues --  -89.04599 -89.04524 -19.28965 -19.28853 -19.25092
 Alpha  occ. eigenvalues --  -19.25089 -19.24526 -19.24390 -14.50663 -14.50120
 Alpha  occ. eigenvalues --  -10.42877 -10.42704 -10.42347 -10.42286 -10.35285
 Alpha  occ. eigenvalues --  -10.35268 -10.35215 -10.34516 -10.34434 -10.34378
 Alpha  occ. eigenvalues --  -10.34136 -10.34048 -10.33818 -10.33805 -10.33638
 Alpha  occ. eigenvalues --  -10.33026 -10.32927 -10.32792 -10.32770 -10.32709
 Alpha  occ. eigenvalues --  -10.32294 -10.32261 -10.31863 -10.31670 -10.30019
 Alpha  occ. eigenvalues --  -10.29561  -8.08618  -8.08546  -6.03473  -6.03389
 Alpha  occ. eigenvalues --   -6.03070  -6.02993  -6.02681  -6.02635  -1.19568
 Alpha  occ. eigenvalues --   -1.19142  -1.18692  -1.18564  -1.17661  -1.17184
 Alpha  occ. eigenvalues --   -1.06812  -1.06256  -1.03209  -1.00529  -0.98907
 Alpha  occ. eigenvalues --   -0.97133  -0.94708  -0.90565  -0.88676  -0.87295
 Alpha  occ. eigenvalues --   -0.85995  -0.85247  -0.84673  -0.82755  -0.82400
 Alpha  occ. eigenvalues --   -0.81145  -0.79715  -0.78313  -0.76844  -0.75543
 Alpha  occ. eigenvalues --   -0.75115  -0.74391  -0.70106  -0.68907  -0.67914
 Alpha  occ. eigenvalues --   -0.66648  -0.65772  -0.64974  -0.64169  -0.63550
 Alpha  occ. eigenvalues --   -0.62849  -0.60697  -0.59746  -0.59100  -0.58908
 Alpha  occ. eigenvalues --   -0.58162  -0.57688  -0.57366  -0.57311  -0.56999
 Alpha  occ. eigenvalues --   -0.56520  -0.55942  -0.55392  -0.55280  -0.54229
 Alpha  occ. eigenvalues --   -0.53858  -0.53698  -0.53426  -0.53192  -0.52469
 Alpha  occ. eigenvalues --   -0.51586  -0.51169  -0.50917  -0.50373  -0.50123
 Alpha  occ. eigenvalues --   -0.50089  -0.49529  -0.49462  -0.48852  -0.48365
 Alpha  occ. eigenvalues --   -0.48067  -0.47468  -0.46591  -0.45851  -0.45452
 Alpha  occ. eigenvalues --   -0.44379  -0.43986  -0.42335  -0.41721  -0.41238
 Alpha  occ. eigenvalues --   -0.41050  -0.40182  -0.39603  -0.38397  -0.37668
 Alpha  occ. eigenvalues --   -0.37379  -0.37120  -0.36685  -0.36257  -0.34778
 Alpha  occ. eigenvalues --   -0.33195  -0.31732  -0.31307  -0.25531
 Alpha virt. eigenvalues --   -0.07210  -0.00510   0.00477   0.02299   0.03430
 Alpha virt. eigenvalues --    0.05209   0.05799   0.06083   0.06733   0.06877
 Alpha virt. eigenvalues --    0.07116   0.07546   0.07677   0.07750   0.07925

 Mulliken charges:
               1
     1  C    0.382110
     2  C   -0.019578
     3  C    0.171031
     4  C    0.242911
     5  C    0.305953
     6  C   -0.264153
     7  C    0.145060
     8  C    0.040212
     9  C    0.266398
    10  C   -0.408389
    11  C    0.339172
    12  C    0.081237
    13  C   -0.543064
    14  C   -0.690738
    15  H    0.187537
    16  H    0.188657
    17  H    0.192855
    18  N   -0.029408
    19  N   -0.093654
    20  O   -0.265120
    21  O   -0.267394
    22  O   -0.275655
    23  O   -0.207099
    24  C   -0.265567
    25  H    0.198078
    26  H    0.197217
    27  H    0.200295
    28  C   -0.278039
    29  H    0.193528
    30  H    0.192701
    31  H    0.200360
    32  C    0.212437
    33  C   -0.691985
    34  S   -0.653263
    35  C    0.006382
    36  H    0.161410
    37  C    0.636490
    38  O   -0.117359
    39  C    0.935193
    40  C   -0.295924
    41  C    0.033709
    42  S   -0.278864
    43  H    0.183199
    44  H    0.158319
    45  H    0.167950
    46  C   -0.640161
    47  O   -0.115815
    48  C   -0.349961
    49  H    0.155718
    50  C   -0.306504
    51  H    0.186208
    52  H    0.156388
    53  H    0.179967
    54  H    0.159014
 Sum of Mulliken charges =  -0.00000

 Dipole moment (field-independent basis, Debye):
    X=             -2.3388    Y=             -0.3579    Z=              0.4362  Tot=              2.4059
 Quadrupole moment (field-independent basis, Debye-Ang):
   XX=           -213.7284   YY=           -216.6640   ZZ=           -212.2015
   XY=             -8.6298   XZ=            -11.0494   YZ=             13.3105

 Normal termination of Gaussian 16 at Mon Nov 30 03:39:02 2020.
