 Gaussian 16, Revision C.01,
 Gaussian 16:  ES64L-G16RevC.01  3-Jul-2019

 --------------------------------------
 # opt=modredundant wb97xd/6-311+g(d,p)
 --------------------------------------

 -----------
 NDI_-75.pdb
 -----------
 Symbolic Z-matrix:
 Charge =  0 Multiplicity = 1

 SCF Done:  E(RwB97XD) =  -2358.76597242     A.U. after   20 cycles
 SCF Done:  E(RwB97XD) =  -2358.77269825     A.U. after   16 cycles
 SCF Done:  E(RwB97XD) =  -2358.77337350     A.U. after   14 cycles
 SCF Done:  E(RwB97XD) =  -2358.77348202     A.U. after   14 cycles
 SCF Done:  E(RwB97XD) =  -2358.77352868     A.U. after   14 cycles
 SCF Done:  E(RwB97XD) =  -2358.77354493     A.U. after   12 cycles
 SCF Done:  E(RwB97XD) =  -2358.77354625     A.U. after   12 cycles
 SCF Done:  E(RwB97XD) =  -2358.77354838     A.U. after   11 cycles
 SCF Done:  E(RwB97XD) =  -2358.77354851     A.U. after   10 cycles
 SCF Done:  E(RwB97XD) =  -2358.77354861     A.U. after    8 cycles
 SCF Done:  E(RwB97XD) =  -2358.77354865     A.U. after    8 cycles
 Optimization completed.
    -- Stationary point found.

                         Standard orientation:
 ---------------------------------------------------------------------
 Center     Atomic      Atomic             Coordinates (Angstroms)
 Number     Number       Type             X           Y           Z
 ---------------------------------------------------------------------
      1          6           0        3.077007   -2.852948    0.540961
      2          6           0        2.520072   -1.489712    0.334276
      3          6           0        3.376011   -0.412450    0.030565
      4          6           0        4.767771   -0.610492   -0.081515
      5          6           0        5.354023   -1.962953    0.128420
      6          6           0        1.173223   -1.280977    0.456525
      7          6           0        2.823673    0.870764   -0.167962
      8          6           0        1.423006    1.072406   -0.046553
      9          6           0        0.599561    0.003630    0.285386
     10          6           0        0.872010    2.431217   -0.341896
     11          6           0        3.170730    3.302515   -0.720403
     12          6           0        3.698390    1.934367   -0.484709
     13          6           0        5.053925    1.722579   -0.588276
     14          6           0        5.595338    0.444339   -0.384767
     15          1           0        6.661358    0.270996   -0.465138
     16          1           0        5.691767    2.563482   -0.831367
     17          1           0        0.530623   -2.116747    0.707089
     18          7           0        1.789606    3.446938   -0.642876
     19          7           0        4.460272   -2.994062    0.429244
     20          8           0        2.380468   -3.808840    0.794001
     21          8           0        6.544043   -2.162711    0.043125
     22          8           0        3.898381    4.236547   -0.973739
     23          8           0       -0.306641    2.692049   -0.336868
     24          6           0        1.211350    4.763716   -0.910074
     25          1           0        0.530477    4.701939   -1.758937
     26          1           0        0.648968    5.103198   -0.040180
     27          1           0        2.025834    5.448723   -1.125098
     28          6           0        4.989381   -4.341074    0.640369
     29          1           0        4.710087   -4.693386    1.633270
     30          1           0        4.570252   -5.022343   -0.100427
     31          1           0        6.069941   -4.296189    0.543711
     32          6           0       -0.858738    0.104979    0.499019
     33          6           0       -1.503529    0.626352    1.578807
     34         16           0       -1.954067   -0.591107   -0.634764
     35          6           0       -2.912350    0.482687    1.479790
     36          1           0       -0.987443    1.109317    2.396188
     37          6           0       -3.333672   -0.155774    0.334803
     38          8           0       -3.822792    0.904675    2.388950
     39          6           0       -4.694755   -0.436423   -0.071681
     40          6           0       -3.350788    1.670896    3.476869
     41          6           0       -5.107972   -1.103574   -1.203990
     42         16           0       -6.082752    0.065217    0.853070
     43          1           0       -4.230351    1.953537    4.052705
     44          1           0       -2.677576    1.084793    4.112442
     45          1           0       -2.836634    2.573949    3.130253
     46          6           0       -6.520829   -1.211054   -1.329409
     47          8           0       -4.186269   -1.580496   -2.075285
     48          6           0       -7.165002   -0.621022   -0.284746
     49          1           0       -7.031694   -1.699115   -2.146933
     50          6           0       -4.656008   -2.287278   -3.203276
     51          1           0       -8.230003   -0.556683   -0.121290
     52          1           0       -5.280873   -1.649934   -3.838604
     53          1           0       -3.771534   -2.592390   -3.759835
     54          1           0       -5.221730   -3.177135   -2.906000
 ---------------------------------------------------------------------

 The electronic state is 1-A.
 Alpha  occ. eigenvalues --  -89.04499 -89.04085 -19.28519 -19.28489 -19.25244
 Alpha  occ. eigenvalues --  -19.25180 -19.24916 -19.24829 -14.50789 -14.50487
 Alpha  occ. eigenvalues --  -10.43045 -10.42808 -10.42753 -10.42688 -10.35235
 Alpha  occ. eigenvalues --  -10.34845 -10.34724 -10.34714 -10.34667 -10.34455
 Alpha  occ. eigenvalues --  -10.34180 -10.34146 -10.34128 -10.34056 -10.34052
 Alpha  occ. eigenvalues --  -10.33158 -10.33093 -10.33081 -10.32677 -10.32378
 Alpha  occ. eigenvalues --  -10.32143 -10.32063 -10.31844 -10.31173 -10.29382
 Alpha  occ. eigenvalues --  -10.29150  -8.08509  -8.08108  -6.03365  -6.02966
 Alpha  occ. eigenvalues --   -6.02951  -6.02575  -6.02556  -6.02197  -1.19705
 Alpha  occ. eigenvalues --   -1.19518  -1.18240  -1.18158  -1.17799  -1.17579
 Alpha  occ. eigenvalues --   -1.06967  -1.06591  -1.03515  -1.00227  -0.98628
 Alpha  occ. eigenvalues --   -0.97205  -0.95012  -0.90535  -0.88953  -0.87072
 Alpha  occ. eigenvalues --   -0.85681  -0.85451  -0.84252  -0.82732  -0.82166
 Alpha  occ. eigenvalues --   -0.81451  -0.79317  -0.78181  -0.77077  -0.75805
 Alpha  occ. eigenvalues --   -0.75341  -0.74415  -0.70162  -0.68633  -0.67760
 Alpha  occ. eigenvalues --   -0.66845  -0.65558  -0.64802  -0.64537  -0.63094
 Alpha  occ. eigenvalues --   -0.62773  -0.60919  -0.59945  -0.59361  -0.59072
 Alpha  occ. eigenvalues --   -0.57965  -0.57824  -0.57451  -0.57014  -0.56674
 Alpha  occ. eigenvalues --   -0.56386  -0.56147  -0.55606  -0.55385  -0.54211
 Alpha  occ. eigenvalues --   -0.54049  -0.53652  -0.53488  -0.53101  -0.52437
 Alpha  occ. eigenvalues --   -0.51711  -0.51294  -0.51238  -0.50417  -0.50148
 Alpha  occ. eigenvalues --   -0.49684  -0.49610  -0.49171  -0.48983  -0.48455
 Alpha  occ. eigenvalues --   -0.48375  -0.47012  -0.46857  -0.45860  -0.45043
 Alpha  occ. eigenvalues --   -0.44124  -0.43586  -0.42071  -0.41300  -0.41081
 Alpha  occ. eigenvalues --   -0.40812  -0.40517  -0.39812  -0.38693  -0.37652
 Alpha  occ. eigenvalues --   -0.37545  -0.37155  -0.37026  -0.36094  -0.34800
 Alpha  occ. eigenvalues --   -0.33508  -0.31427  -0.31183  -0.25324
 Alpha virt. eigenvalues --   -0.07312  -0.00084   0.00601   0.02218   0.02732
 Alpha virt. eigenvalues --    0.04983   0.05973   0.06155   0.06712   0.06891
 Alpha virt. eigenvalues --    0.07375   0.07446   0.07584   0.07739   0.07935

 Mulliken charges:
               1
     1  C    0.463677
     2  C   -0.001845
     3  C    0.172883
     4  C    0.182760
     5  C    0.343441
     6  C   -0.669990
     7  C    0.162227
     8  C    0.079074
     9  C    0.440068
    10  C   -0.364402
    11  C    0.252098
    12  C    0.166049
    13  C   -0.548696
    14  C   -0.712970
    15  H    0.188632
    16  H    0.189105
    17  H    0.203805
    18  N   -0.106384
    19  N   -0.096748
    20  O   -0.257715
    21  O   -0.267366
    22  O   -0.269783
    23  O   -0.090398
    24  C   -0.296581
    25  H    0.197782
    26  H    0.193745
    27  H    0.201985
    28  C   -0.284559
    29  H    0.193617
    30  H    0.194401
    31  H    0.200093
    32  C    0.142289
    33  C   -0.457280
    34  S   -0.304987
    35  C   -0.080976
    36  H    0.144398
    37  C    0.412547
    38  O   -0.122080
    39  C    0.815821
    40  C   -0.295188
    41  C    0.025250
    42  S   -0.303249
    43  H    0.181257
    44  H    0.154294
    45  H    0.170595
    46  C   -0.571463
    47  O   -0.119797
    48  C   -0.376984
    49  H    0.154310
    50  C   -0.302216
    51  H    0.184016
    52  H    0.156793
    53  H    0.178407
    54  H    0.156236
 Sum of Mulliken charges =  -0.00000

 Dipole moment (field-independent basis, Debye):
    X=             -1.1638    Y=              0.0546    Z=              0.0483  Tot=              1.1661
 Quadrupole moment (field-independent basis, Debye-Ang):
   XX=           -218.2240   YY=           -223.5877   ZZ=           -202.3591
   XY=              0.9469   XZ=              8.3860   YZ=             14.3196

 Normal termination of Gaussian 16 at Sun Nov 29 20:39:32 2020.
