 Gaussian 16, Revision C.01,
 Gaussian 16:  ES64L-G16RevC.01  3-Jul-2019

 --------------------------------------
 # opt=modredundant wb97xd/6-311+g(d,p)
 --------------------------------------

 ----------
 NDI_35.pdb
 ----------
 Symbolic Z-matrix:
 Charge =  0 Multiplicity = 1

 SCF Done:  E(RwB97XD) =  -2358.76431355     A.U. after   19 cycles
 SCF Done:  E(RwB97XD) =  -2358.75806950     A.U. after   19 cycles
 SCF Done:  E(RwB97XD) =  -2358.76823548     A.U. after   16 cycles
 SCF Done:  E(RwB97XD) =  -2358.77125551     A.U. after   17 cycles
 SCF Done:  E(RwB97XD) =  -2358.77220510     A.U. after   17 cycles
 SCF Done:  E(RwB97XD) =  -2358.77256458     A.U. after   17 cycles
 SCF Done:  E(RwB97XD) =  -2358.77296524     A.U. after   15 cycles
 SCF Done:  E(RwB97XD) =  -2358.77304674     A.U. after   14 cycles
 SCF Done:  E(RwB97XD) =  -2358.77310147     A.U. after   14 cycles
 SCF Done:  E(RwB97XD) =  -2358.77311100     A.U. after   13 cycles
 SCF Done:  E(RwB97XD) =  -2358.77311379     A.U. after   12 cycles
 SCF Done:  E(RwB97XD) =  -2358.77311518     A.U. after   11 cycles
 SCF Done:  E(RwB97XD) =  -2358.77311554     A.U. after   12 cycles
 SCF Done:  E(RwB97XD) =  -2358.77311578     A.U. after   10 cycles
 SCF Done:  E(RwB97XD) =  -2358.77311583     A.U. after   10 cycles
 Optimization completed.
    -- Stationary point found.

                         Standard orientation:
 ---------------------------------------------------------------------
 Center     Atomic      Atomic             Coordinates (Angstroms)
 Number     Number       Type             X           Y           Z
 ---------------------------------------------------------------------
      1          6           0       -2.622222   -2.971371    0.448137
      2          6           0       -2.279378   -1.537349    0.252037
      3          6           0       -3.297103   -0.574570    0.096847
      4          6           0       -4.651008   -0.959898    0.117391
      5          6           0       -5.025385   -2.388589    0.305163
      6          6           0       -0.971245   -1.158298    0.234243
      7          6           0       -2.932031    0.774537   -0.101242
      8          6           0       -1.559515    1.166108   -0.114376
      9          6           0       -0.562168    0.198360    0.073247
     10          6           0       -1.255656    2.578287   -0.492869
     11          6           0       -3.678630    3.135435   -0.552906
     12          6           0       -3.976370    1.709526   -0.286280
     13          6           0       -5.297385    1.318901   -0.250638
     14          6           0       -5.643617   -0.021469   -0.046330
     15          1           0       -6.679223   -0.336832   -0.025507
     16          1           0       -6.059891    2.074405   -0.394751
     17          1           0       -0.222370   -1.924620    0.393241
     18          7           0       -2.333293    3.455077   -0.680123
     19          7           0       -3.975961   -3.301804    0.441101
     20          8           0       -1.781755   -3.825081    0.618176
     21          8           0       -6.180343   -2.747217    0.335302
     22          8           0       -4.549741    3.968760   -0.674791
     23          8           0       -0.138191    3.016436   -0.647950
     24          6           0       -1.978688    4.831461   -1.024607
     25          1           0       -1.364466    5.265828   -0.235498
     26          1           0       -1.407237    4.843330   -1.952467
     27          1           0       -2.900871    5.393384   -1.137466
     28          6           0       -4.296522   -4.715771    0.630771
     29          1           0       -3.817619   -5.307194   -0.149494
     30          1           0       -3.924897   -5.052783    1.598828
     31          1           0       -5.375735   -4.824751    0.581647
     32          6           0        0.878410    0.428006    0.223916
     33          6           0        1.550883    1.454367    0.831623
     34         16           0        1.989612   -0.762148   -0.384625
     35          6           0        2.949076    1.275285    0.820840
     36          1           0        1.056231    2.304093    1.271986
     37          6           0        3.366339    0.120341    0.185842
     38          8           0        3.868137    2.126681    1.331392
     39          6           0        4.724366   -0.327691   -0.020956
     40          6           0        3.390695    3.239635    2.059926
     41          6           0        5.133514   -1.495988   -0.630117
     42         16           0        6.115975    0.586441    0.492448
     43          1           0        4.272890    3.772745    2.409677
     44          1           0        2.794218    3.901667    1.423101
     45          1           0        2.793383    2.920056    2.920891
     46          6           0        6.545226   -1.655360   -0.683476
     47          8           0        4.209879   -2.361841   -1.104347
     48          6           0        7.191438   -0.600975   -0.112236
     49          1           0        7.053951   -2.502912   -1.119539
     50          6           0        4.673167   -3.529536   -1.751160
     51          1           0        8.257223   -0.461260   -0.012778
     52          1           0        5.260338   -4.152956   -1.068342
     53          1           0        3.784405   -4.075475   -2.062133
     54          1           0        5.274023   -3.280524   -2.632413
 ---------------------------------------------------------------------

 The electronic state is 1-A.
 Alpha  occ. eigenvalues --  -89.04953 -89.04708 -19.29149 -19.28869 -19.24980
 Alpha  occ. eigenvalues --  -19.24955 -19.24437 -19.24395 -14.50548 -14.50147
 Alpha  occ. eigenvalues --  -10.42761 -10.42563 -10.42519 -10.42167 -10.35517
 Alpha  occ. eigenvalues --  -10.35501 -10.35318 -10.34589 -10.34379 -10.34322
 Alpha  occ. eigenvalues --  -10.34191 -10.33886 -10.33694 -10.33660 -10.33461
 Alpha  occ. eigenvalues --  -10.33140 -10.32985 -10.32723 -10.32578 -10.32514
 Alpha  occ. eigenvalues --  -10.32452 -10.32205 -10.31941 -10.31873 -10.29857
 Alpha  occ. eigenvalues --  -10.29727  -8.08984  -8.08729  -6.03833  -6.03572
 Alpha  occ. eigenvalues --   -6.03436  -6.03175  -6.03056  -6.02818  -1.19463
 Alpha  occ. eigenvalues --   -1.19178  -1.18867  -1.18603  -1.17547  -1.17166
 Alpha  occ. eigenvalues --   -1.06713  -1.06218  -1.03062  -1.00664  -0.99019
 Alpha  occ. eigenvalues --   -0.97062  -0.94588  -0.90515  -0.88578  -0.87452
 Alpha  occ. eigenvalues --   -0.86047  -0.85204  -0.84820  -0.82792  -0.82232
 Alpha  occ. eigenvalues --   -0.81495  -0.79612  -0.78318  -0.76847  -0.75460
 Alpha  occ. eigenvalues --   -0.75153  -0.74206  -0.70248  -0.68903  -0.67916
 Alpha  occ. eigenvalues --   -0.66547  -0.65751  -0.65189  -0.64519  -0.63627
 Alpha  occ. eigenvalues --   -0.62417  -0.60645  -0.59693  -0.59172  -0.58760
 Alpha  occ. eigenvalues --   -0.58340  -0.57643  -0.57429  -0.57256  -0.57009
 Alpha  occ. eigenvalues --   -0.56617  -0.55795  -0.55435  -0.55083  -0.54418
 Alpha  occ. eigenvalues --   -0.53946  -0.53534  -0.53261  -0.53216  -0.52039
 Alpha  occ. eigenvalues --   -0.51608  -0.51095  -0.50968  -0.50442  -0.50388
 Alpha  occ. eigenvalues --   -0.50124  -0.49487  -0.49393  -0.48788  -0.48300
 Alpha  occ. eigenvalues --   -0.47962  -0.47622  -0.46972  -0.45795  -0.45364
 Alpha  occ. eigenvalues --   -0.44351  -0.44110  -0.42412  -0.41756  -0.41398
 Alpha  occ. eigenvalues --   -0.41234  -0.40109  -0.39606  -0.38542  -0.37770
 Alpha  occ. eigenvalues --   -0.37305  -0.37063  -0.36768  -0.36260  -0.34536
 Alpha  occ. eigenvalues --   -0.33151  -0.31703  -0.31601  -0.25610
 Alpha virt. eigenvalues --   -0.07197  -0.00738   0.00476   0.02439   0.03510
 Alpha virt. eigenvalues --    0.05243   0.05757   0.06108   0.06791   0.07057
 Alpha virt. eigenvalues --    0.07205   0.07512   0.07734   0.07911   0.07956

 Mulliken charges:
               1
     1  C    0.321137
     2  C   -0.046863
     3  C    0.195908
     4  C    0.196011
     5  C    0.331069
     6  C   -0.307459
     7  C    0.201389
     8  C    0.366794
     9  C    0.418189
    10  C   -0.545057
    11  C    0.269439
    12  C    0.125090
    13  C   -0.561924
    14  C   -0.692392
    15  H    0.186951
    16  H    0.188596
    17  H    0.203518
    18  N   -0.072063
    19  N   -0.089940
    20  O   -0.264686
    21  O   -0.266621
    22  O   -0.273976
    23  O   -0.205023
    24  C   -0.278423
    25  H    0.189573
    26  H    0.196799
    27  H    0.201020
    28  C   -0.282421
    29  H    0.191989
    30  H    0.194432
    31  H    0.200102
    32  C    0.002272
    33  C   -0.536950
    34  S   -0.672400
    35  C   -0.147667
    36  H    0.166756
    37  C    0.737825
    38  O   -0.107300
    39  C    0.870185
    40  C   -0.303553
    41  C    0.001188
    42  S   -0.271234
    43  H    0.182004
    44  H    0.169198
    45  H    0.161696
    46  C   -0.622338
    47  O   -0.112440
    48  C   -0.343545
    49  H    0.156719
    50  C   -0.308073
    51  H    0.187120
    52  H    0.157599
    53  H    0.183060
    54  H    0.158720
 Sum of Mulliken charges =  -0.00000

 Dipole moment (field-independent basis, Debye):
    X=              2.9333    Y=             -0.4981    Z=              0.2061  Tot=              2.9825
 Quadrupole moment (field-independent basis, Debye-Ang):
   XX=           -216.0420   YY=           -210.2959   ZZ=           -215.5051
   XY=             -4.4156   XZ=             -3.0781   YZ=             13.9868

 Normal termination of Gaussian 16 at Sun Nov 29 22:06:28 2020.
