 Gaussian 16, Revision C.01,
 Gaussian 16:  ES64L-G16RevC.01  3-Jul-2019

 --------------------------------------
 # opt=modredundant wb97xd/6-311+g(d,p)
 --------------------------------------

 ----------
 NDI_95.pdb
 ----------
 Symbolic Z-matrix:
 Charge =  0 Multiplicity = 1

 SCF Done:  E(RwB97XD) =  -2358.76491647     A.U. after   19 cycles
 SCF Done:  E(RwB97XD) =  -2358.77195720     A.U. after   17 cycles
 SCF Done:  E(RwB97XD) =  -2358.77293135     A.U. after   16 cycles
 SCF Done:  E(RwB97XD) =  -2358.77315145     A.U. after   15 cycles
 SCF Done:  E(RwB97XD) =  -2358.77326568     A.U. after   14 cycles
 SCF Done:  E(RwB97XD) =  -2358.77329015     A.U. after   12 cycles
 SCF Done:  E(RwB97XD) =  -2358.77329717     A.U. after   13 cycles
 SCF Done:  E(RwB97XD) =  -2358.77330168     A.U. after   11 cycles
 SCF Done:  E(RwB97XD) =  -2358.77330373     A.U. after   11 cycles
 SCF Done:  E(RwB97XD) =  -2358.77330498     A.U. after   11 cycles
 SCF Done:  E(RwB97XD) =  -2358.77330533     A.U. after   11 cycles
 SCF Done:  E(RwB97XD) =  -2358.77330542     A.U. after    9 cycles
 SCF Done:  E(RwB97XD) =  -2358.77330544     A.U. after    8 cycles
 Optimization completed.
    -- Stationary point found.

                         Standard orientation:
 ---------------------------------------------------------------------
 Center     Atomic      Atomic             Coordinates (Angstroms)
 Number     Number       Type             X           Y           Z
 ---------------------------------------------------------------------
      1          6           0        3.288183   -2.828344   -0.105843
      2          6           0        2.634468   -1.493111   -0.134155
      3          6           0        3.399911   -0.325255    0.052447
      4          6           0        4.790418   -0.404832    0.275676
      5          6           0        5.469628   -1.728976    0.320198
      6          6           0        1.283221   -1.401164   -0.335276
      7          6           0        2.759928    0.931600    0.013438
      8          6           0        1.359998    1.012263   -0.205925
      9          6           0        0.620456   -0.150327   -0.373489
     10          6           0        0.724152    2.364305   -0.273449
     11          6           0        2.921343    3.439859    0.171185
     12          6           0        3.544775    2.091360    0.202240
     13          6           0        4.899546    1.993903    0.419440
     14          6           0        5.528962    0.739963    0.457025
     15          1           0        6.595102    0.656702    0.628469
     16          1           0        5.467909    2.904857    0.561572
     17          1           0        0.704246   -2.307372   -0.467715
     18          7           0        1.551084    3.475891   -0.064390
     19          7           0        4.662971   -2.853966    0.129110
     20          8           0        2.675161   -3.856684   -0.278429
     21          8           0        6.659800   -1.829637    0.511488
     22          8           0        3.568661    4.449251    0.338158
     23          8           0       -0.448892    2.539120   -0.496490
     24          6           0        0.887554    4.778399   -0.121902
     25          1           0        0.428460    4.915803   -1.100926
     26          1           0        0.105676    4.826619    0.635975
     27          1           0        1.637071    5.543397    0.056629
     28          6           0        5.286674   -4.176497    0.160152
     29          1           0        4.817817   -4.784928    0.933407
     30          1           0        5.150408   -4.671517   -0.801613
     31          1           0        6.343670   -4.043722    0.370316
     32          6           0       -0.842972   -0.189892   -0.591327
     33          6           0       -1.495965   -0.252265   -1.783539
     34         16           0       -1.924828   -0.255779    0.747111
     35          6           0       -2.905623   -0.330061   -1.614474
     36          1           0       -0.988405   -0.216372   -2.737010
     37          6           0       -3.314036   -0.345763   -0.300821
     38          8           0       -3.825963   -0.375419   -2.607137
     39          6           0       -4.669351   -0.428371    0.203760
     40          6           0       -3.352617   -0.485017   -3.932424
     41          6           0       -5.070101   -0.463706    1.521069
     42         16           0       -6.064894   -0.495302   -0.835862
     43          1           0       -4.235841   -0.555848   -4.564907
     44          1           0       -2.772799    0.398720   -4.221000
     45          1           0       -2.740662   -1.384651   -4.061400
     46          6           0       -6.479714   -0.543253    1.695633
     47          8           0       -4.140447   -0.424995    2.506768
     48          6           0       -7.134110   -0.567357    0.501678
     49          1           0       -6.981371   -0.580739    2.651921
     50          6           0       -4.601159   -0.427812    3.840724
     51          1           0       -8.199302   -0.624983    0.337043
     52          1           0       -5.154525   -1.345864    4.067516
     53          1           0       -3.713003   -0.379704    4.468513
     54          1           0       -5.235278    0.442430    4.043085
 ---------------------------------------------------------------------

 The electronic state is 1-A.
 Alpha  occ. eigenvalues --  -89.04315 -89.03993 -19.28424 -19.28418 -19.25294
 Alpha  occ. eigenvalues --  -19.25234 -19.24952 -19.24887 -14.50837 -14.50505
 Alpha  occ. eigenvalues --  -10.43097 -10.42863 -10.42750 -10.42734 -10.35211
 Alpha  occ. eigenvalues --  -10.34789 -10.34747 -10.34725 -10.34607 -10.34541
 Alpha  occ. eigenvalues --  -10.34189 -10.34134 -10.34129 -10.34118 -10.34114
 Alpha  occ. eigenvalues --  -10.33250 -10.33152 -10.33151 -10.32654 -10.32418
 Alpha  occ. eigenvalues --  -10.32114 -10.31890 -10.31747 -10.31068 -10.29328
 Alpha  occ. eigenvalues --  -10.29064  -8.08326  -8.08016  -6.03185  -6.02858
 Alpha  occ. eigenvalues --   -6.02785  -6.02463  -6.02386  -6.02105  -1.19755
 Alpha  occ. eigenvalues --   -1.19549  -1.18155  -1.18069  -1.17850  -1.17619
 Alpha  occ. eigenvalues --   -1.07016  -1.06627  -1.03582  -1.00132  -0.98573
 Alpha  occ. eigenvalues --   -0.97200  -0.95071  -0.90540  -0.89007  -0.87011
 Alpha  occ. eigenvalues --   -0.85637  -0.85451  -0.84145  -0.82727  -0.82198
 Alpha  occ. eigenvalues --   -0.81347  -0.79301  -0.78143  -0.77098  -0.75851
 Alpha  occ. eigenvalues --   -0.75357  -0.74461  -0.70134  -0.68609  -0.67720
 Alpha  occ. eigenvalues --   -0.66886  -0.65593  -0.64650  -0.64478  -0.63020
 Alpha  occ. eigenvalues --   -0.62876  -0.60958  -0.59979  -0.59377  -0.59118
 Alpha  occ. eigenvalues --   -0.57907  -0.57804  -0.57477  -0.56962  -0.56628
 Alpha  occ. eigenvalues --   -0.56395  -0.56151  -0.55665  -0.55399  -0.54215
 Alpha  occ. eigenvalues --   -0.53997  -0.53739  -0.53495  -0.53078  -0.52464
 Alpha  occ. eigenvalues --   -0.51742  -0.51344  -0.51253  -0.50434  -0.50061
 Alpha  occ. eigenvalues --   -0.49663  -0.49570  -0.49153  -0.48940  -0.48464
 Alpha  occ. eigenvalues --   -0.48432  -0.46969  -0.46666  -0.45885  -0.44984
 Alpha  occ. eigenvalues --   -0.44127  -0.43508  -0.41984  -0.41241  -0.41015
 Alpha  occ. eigenvalues --   -0.40679  -0.40564  -0.39825  -0.38701  -0.37638
 Alpha  occ. eigenvalues --   -0.37587  -0.37176  -0.36969  -0.35983  -0.34945
 Alpha  occ. eigenvalues --   -0.33594  -0.31381  -0.31081  -0.25274
 Alpha virt. eigenvalues --   -0.07323  -0.00048   0.00654   0.02332   0.02513
 Alpha virt. eigenvalues --    0.04977   0.05999   0.06243   0.06603   0.06890
 Alpha virt. eigenvalues --    0.07354   0.07407   0.07585   0.07698   0.08032

 Mulliken charges:
               1
     1  C    0.474016
     2  C    0.094280
     3  C    0.207252
     4  C    0.177803
     5  C    0.372260
     6  C   -0.746604
     7  C    0.140923
     8  C   -0.065798
     9  C    0.381488
    10  C   -0.281032
    11  C    0.284833
    12  C    0.207048
    13  C   -0.613048
    14  C   -0.729808
    15  H    0.188923
    16  H    0.189776
    17  H    0.197259
    18  N   -0.105313
    19  N   -0.097229
    20  O   -0.256801
    21  O   -0.267990
    22  O   -0.267757
    23  O   -0.102432
    24  C   -0.299857
    25  H    0.194927
    26  H    0.198499
    27  H    0.202031
    28  C   -0.285569
    29  H    0.193893
    30  H    0.194596
    31  H    0.200614
    32  C    0.243957
    33  C   -0.495119
    34  S   -0.120700
    35  C   -0.095593
    36  H    0.141218
    37  C    0.196713
    38  O   -0.118464
    39  C    0.841472
    40  C   -0.289859
    41  C    0.074508
    42  S   -0.305312
    43  H    0.181406
    44  H    0.159627
    45  H    0.162402
    46  C   -0.556959
    47  O   -0.128547
    48  C   -0.399536
    49  H    0.153861
    50  C   -0.299795
    51  H    0.183488
    52  H    0.154736
    53  H    0.177612
    54  H    0.157704
 Sum of Mulliken charges =  -0.00000

 Dipole moment (field-independent basis, Debye):
    X=             -0.9078    Y=             -0.0477    Z=              0.0385  Tot=              0.9099
 Quadrupole moment (field-independent basis, Debye-Ang):
   XX=           -218.1873   YY=           -231.4727   ZZ=           -194.9463
   XY=             -2.0098   XZ=             -9.9841   YZ=             -0.9707

 Normal termination of Gaussian 16 at Sun Nov 29 22:31:05 2020.
