 Gaussian 16, Revision C.01,
 Gaussian 16:  ES64L-G16RevC.01  3-Jul-2019

 --------------------------------------
 # opt=modredundant wb97xd/6-311+g(d,p)
 --------------------------------------

 -----------
 NDI_170.pdb
 -----------
 Symbolic Z-matrix:
 Charge =  0 Multiplicity = 1

 SCF Done:  E(RwB97XD) =  -2358.72343897     A.U. after   20 cycles
 SCF Done:  E(RwB97XD) =  -2358.75284997     A.U. after   20 cycles
 SCF Done:  E(RwB97XD) =  -2358.76371384     A.U. after   18 cycles
 SCF Done:  E(RwB97XD) =  -2358.76633692     A.U. after   16 cycles
 SCF Done:  E(RwB97XD) =  -2358.76743961     A.U. after   17 cycles
 SCF Done:  E(RwB97XD) =  -2358.76780653     A.U. after   17 cycles
 SCF Done:  E(RwB97XD) =  -2358.76796140     A.U. after   17 cycles
 SCF Done:  E(RwB97XD) =  -2358.76821032     A.U. after   15 cycles
 SCF Done:  E(RwB97XD) =  -2358.76853537     A.U. after   17 cycles
 SCF Done:  E(RwB97XD) =  -2358.76862584     A.U. after   16 cycles
 SCF Done:  E(RwB97XD) =  -2358.76868681     A.U. after   16 cycles
 SCF Done:  E(RwB97XD) =  -2358.76866321     A.U. after   15 cycles
 SCF Done:  E(RwB97XD) =  -2358.76861353     A.U. after   17 cycles
 SCF Done:  E(RwB97XD) =  -2358.76870458     A.U. after   16 cycles
 SCF Done:  E(RwB97XD) =  -2358.76871039     A.U. after   13 cycles
 SCF Done:  E(RwB97XD) =  -2358.76871467     A.U. after   14 cycles
 SCF Done:  E(RwB97XD) =  -2358.76871503     A.U. after   11 cycles
 SCF Done:  E(RwB97XD) =  -2358.76871496     A.U. after   11 cycles
 SCF Done:  E(RwB97XD) =  -2358.76871518     A.U. after   12 cycles
 SCF Done:  E(RwB97XD) =  -2358.76871521     A.U. after   11 cycles
 Optimization completed.
    -- Stationary point found.

                         Standard orientation:
 ---------------------------------------------------------------------
 Center     Atomic      Atomic             Coordinates (Angstroms)
 Number     Number       Type             X           Y           Z
 ---------------------------------------------------------------------
      1          6           0       -3.446895   -2.696194   -0.175626
      2          6           0       -2.726920   -1.412189    0.032932
      3          6           0       -3.404135   -0.184645   -0.108246
      4          6           0       -4.768643   -0.154323   -0.447597
      5          6           0       -5.515997   -1.422634   -0.665415
      6          6           0       -1.398304   -1.433315    0.327938
      7          6           0       -2.684858    1.007228    0.113329
      8          6           0       -1.296676    0.973825    0.440125
      9          6           0       -0.619911   -0.253030    0.529549
     10          6           0       -0.678058    2.255914    0.870685
     11          6           0       -2.721690    3.520388    0.252815
     12          6           0       -3.391704    2.225402   -0.009886
     13          6           0       -4.726453    2.241047   -0.354541
     14          6           0       -5.424589    1.048858   -0.577454
     15          1           0       -6.474446    1.054522   -0.842281
     16          1           0       -5.222327    3.200008   -0.441586
     17          1           0       -0.923260   -2.403084    0.358231
     18          7           0       -1.414061    3.436032    0.712124
     19          7           0       -4.797072   -2.612925   -0.507212
     20          8           0       -2.903936   -3.773635   -0.070790
     21          8           0       -6.688473   -1.431538   -0.962450
     22          8           0       -3.282001    4.584344    0.103568
     23          8           0        0.432786    2.333582    1.345642
     24          6           0       -0.728322    4.669821    1.093652
     25          1           0       -0.444548    4.624782    2.144969
     26          1           0        0.176509    4.788692    0.497272
     27          1           0       -1.409528    5.496715    0.916784
     28          6           0       -5.491856   -3.883271   -0.711193
     29          1           0       -5.002726   -4.446350   -1.506076
     30          1           0       -5.457574   -4.473429    0.204868
     31          1           0       -6.520624   -3.663434   -0.980135
     32          6           0        0.827762   -0.498128    0.639802
     33          6           0        1.377109   -1.736486    0.920664
     34         16           0        2.051005    0.559409    0.018080
     35          6           0        2.754037   -1.814932    0.657540
     36          1           0        0.812531   -2.559538    1.333311
     37          6           0        3.279539   -0.653677    0.119546
     38          8           0        3.561293   -2.877466    0.886514
     39          6           0        4.651733   -0.411699   -0.261750
     40          6           0        2.952612   -4.078634    1.312758
     41          6           0        5.176562    0.743090   -0.806425
     42         16           0        5.911184   -1.604218   -0.087218
     43          1           0        3.752732   -4.812158    1.392985
     44          1           0        2.476424   -3.955904    2.291892
     45          1           0        2.211695   -4.426708    0.584556
     46          6           0        6.570542    0.671592   -1.076614
     47          8           0        4.370627    1.802666   -1.032490
     48          6           0        7.086659   -0.541952   -0.735183
     49          1           0        7.158242    1.472624   -1.501057
     50          6           0        4.956752    2.977279   -1.554963
     51          1           0        8.110681   -0.869256   -0.833594
     52          1           0        5.393171    2.795632   -2.543040
     53          1           0        4.150072    3.702378   -1.644851
     54          1           0        5.723753    3.370058   -0.879032
 ---------------------------------------------------------------------

 The electronic state is 1-A.
 Alpha  occ. eigenvalues --  -89.04850 -89.04749 -19.29263 -19.29057 -19.24999
 Alpha  occ. eigenvalues --  -19.24963 -19.24276 -19.24243 -14.50550 -14.49971
 Alpha  occ. eigenvalues --  -10.42734 -10.42594 -10.42181 -10.42008 -10.35728
 Alpha  occ. eigenvalues --  -10.35613 -10.35368 -10.34705 -10.34575 -10.34173
 Alpha  occ. eigenvalues --  -10.33833 -10.33671 -10.33562 -10.33522 -10.33347
 Alpha  occ. eigenvalues --  -10.33311 -10.33224 -10.32724 -10.32558 -10.32436
 Alpha  occ. eigenvalues --  -10.32381 -10.32213 -10.32068 -10.31786 -10.30351
 Alpha  occ. eigenvalues --  -10.29866  -8.08872  -8.08740  -6.03714  -6.03592
 Alpha  occ. eigenvalues --   -6.03318  -6.03175  -6.02961  -6.02816  -1.19450
 Alpha  occ. eigenvalues --   -1.19028  -1.19012  -1.18781  -1.17540  -1.17002
 Alpha  occ. eigenvalues --   -1.06690  -1.06108  -1.02951  -1.00707  -0.99095
 Alpha  occ. eigenvalues --   -0.97014  -0.94468  -0.90561  -0.88463  -0.87434
 Alpha  occ. eigenvalues --   -0.86203  -0.85138  -0.84946  -0.82945  -0.82310
 Alpha  occ. eigenvalues --   -0.81075  -0.79923  -0.78385  -0.76715  -0.75390
 Alpha  occ. eigenvalues --   -0.75003  -0.74353  -0.70126  -0.69065  -0.68014
 Alpha  occ. eigenvalues --   -0.66532  -0.65805  -0.65235  -0.64169  -0.63733
 Alpha  occ. eigenvalues --   -0.62781  -0.60530  -0.59614  -0.59026  -0.58886
 Alpha  occ. eigenvalues --   -0.58132  -0.57622  -0.57572  -0.57254  -0.57175
 Alpha  occ. eigenvalues --   -0.56688  -0.55829  -0.55349  -0.55117  -0.54244
 Alpha  occ. eigenvalues --   -0.53934  -0.53633  -0.53450  -0.53068  -0.52302
 Alpha  occ. eigenvalues --   -0.51524  -0.51197  -0.50818  -0.50448  -0.50366
 Alpha  occ. eigenvalues --   -0.50045  -0.49603  -0.49365  -0.48837  -0.48358
 Alpha  occ. eigenvalues --   -0.47913  -0.47709  -0.46690  -0.45737  -0.45354
 Alpha  occ. eigenvalues --   -0.44581  -0.44199  -0.42499  -0.41950  -0.41386
 Alpha  occ. eigenvalues --   -0.41048  -0.39921  -0.39448  -0.38252  -0.37915
 Alpha  occ. eigenvalues --   -0.37258  -0.37149  -0.36469  -0.36312  -0.34534
 Alpha  occ. eigenvalues --   -0.33078  -0.31859  -0.31434  -0.25669
 Alpha virt. eigenvalues --   -0.07112  -0.01067   0.00616   0.02510   0.03588
 Alpha virt. eigenvalues --    0.05232   0.05727   0.06020   0.06737   0.07037
 Alpha virt. eigenvalues --    0.07102   0.07394   0.07771   0.07860   0.08169

 Mulliken charges:
               1
     1  C    0.371419
     2  C    0.001839
     3  C    0.232549
     4  C    0.234698
     5  C    0.325036
     6  C    0.116874
     7  C    0.066548
     8  C    0.231393
     9  C    0.328795
    10  C   -0.553682
    11  C    0.338854
    12  C    0.056500
    13  C   -0.548796
    14  C   -0.711364
    15  H    0.186449
    16  H    0.188424
    17  H    0.175246
    18  N   -0.027738
    19  N   -0.094843
    20  O   -0.270394
    21  O   -0.264251
    22  O   -0.277932
    23  O   -0.212545
    24  C   -0.269234
    25  H    0.199481
    26  H    0.194621
    27  H    0.200531
    28  C   -0.278190
    29  H    0.192236
    30  H    0.192686
    31  H    0.199971
    32  C   -0.029687
    33  C   -0.515674
    34  S   -0.763860
    35  C   -0.345414
    36  H    0.151117
    37  C    0.714302
    38  O   -0.113165
    39  C    0.936159
    40  C   -0.297086
    41  C   -0.022245
    42  S   -0.264516
    43  H    0.184558
    44  H    0.159771
    45  H    0.165802
    46  C   -0.563447
    47  O   -0.100972
    48  C   -0.355323
    49  H    0.156766
    50  C   -0.310122
    51  H    0.187865
    52  H    0.157132
    53  H    0.181823
    54  H    0.161034
 Sum of Mulliken charges =  -0.00000

 Dipole moment (field-independent basis, Debye):
    X=              3.3088    Y=             -0.4871    Z=             -0.5630  Tot=              3.3915
 Quadrupole moment (field-independent basis, Debye-Ang):
   XX=           -210.6621   YY=           -211.0732   ZZ=           -219.5692
   XY=             11.0571   XZ=            -10.5544   YZ=             -8.4061

 Normal termination of Gaussian 16 at Mon Nov 30 02:42:18 2020.
