 Gaussian 16, Revision C.01,
 Gaussian 16:  ES64L-G16RevC.01  3-Jul-2019

 --------------------------------------
 # opt=modredundant wb97xd/6-311+g(d,p)
 --------------------------------------

 ------------
 NDI_-175.pdb
 ------------
 Symbolic Z-matrix:
 Charge =  0 Multiplicity = 1

 SCF Done:  E(RwB97XD) =  -2358.72168028     A.U. after   20 cycles
 SCF Done:  E(RwB97XD) =  -2358.75306310     A.U. after   20 cycles
 SCF Done:  E(RwB97XD) =  -2358.76382443     A.U. after   18 cycles
 SCF Done:  E(RwB97XD) =  -2358.76576415     A.U. after   16 cycles
 SCF Done:  E(RwB97XD) =  -2358.76641457     A.U. after   16 cycles
 SCF Done:  E(RwB97XD) =  -2358.76653230     A.U. after   14 cycles
 SCF Done:  E(RwB97XD) =  -2358.76659195     A.U. after   17 cycles
 SCF Done:  E(RwB97XD) =  -2358.76680116     A.U. after   14 cycles
 SCF Done:  E(RwB97XD) =  -2358.76710299     A.U. after   17 cycles
 SCF Done:  E(RwB97XD) =  -2358.76714603     A.U. after   17 cycles
 SCF Done:  E(RwB97XD) =  -2358.76730229     A.U. after   14 cycles
 SCF Done:  E(RwB97XD) =  -2358.76735650     A.U. after   15 cycles
 SCF Done:  E(RwB97XD) =  -2358.76738575     A.U. after   14 cycles
 SCF Done:  E(RwB97XD) =  -2358.76740006     A.U. after   12 cycles
 SCF Done:  E(RwB97XD) =  -2358.76740332     A.U. after   13 cycles
 SCF Done:  E(RwB97XD) =  -2358.76740376     A.U. after   11 cycles
 SCF Done:  E(RwB97XD) =  -2358.76740394     A.U. after   10 cycles
 SCF Done:  E(RwB97XD) =  -2358.76740405     A.U. after   10 cycles
 Optimization completed.
    -- Stationary point found.

                         Standard orientation:
 ---------------------------------------------------------------------
 Center     Atomic      Atomic             Coordinates (Angstroms)
 Number     Number       Type             X           Y           Z
 ---------------------------------------------------------------------
      1          6           0       -3.458102   -2.688990    0.156110
      2          6           0       -2.738066   -1.400665   -0.024914
      3          6           0       -3.421654   -0.176248    0.110960
      4          6           0       -4.794642   -0.153489    0.411741
      5          6           0       -5.545526   -1.426013    0.588916
      6          6           0       -1.408603   -1.417571   -0.308740
      7          6           0       -2.697561    1.016982   -0.083863
      8          6           0       -1.299691    0.988889   -0.378765
      9          6           0       -0.618577   -0.237904   -0.483742
     10          6           0       -0.674139    2.281337   -0.756218
     11          6           0       -2.747279    3.530705   -0.214514
     12          6           0       -3.413290    2.231136    0.028920
     13          6           0       -4.757272    2.240668    0.338827
     14          6           0       -5.458386    1.046541    0.533989
     15          1           0       -6.515515    1.047281    0.767960
     16          1           0       -5.257393    3.198173    0.416936
     17          1           0       -0.943802   -2.390759   -0.347215
     18          7           0       -1.426718    3.454628   -0.634657
     19          7           0       -4.821088   -2.613101    0.430935
     20          8           0       -2.903217   -3.763202    0.084496
     21          8           0       -6.725792   -1.441066    0.852950
     22          8           0       -3.318715    4.591074   -0.081747
     23          8           0        0.465154    2.377652   -1.157037
     24          6           0       -0.732496    4.694717   -0.978635
     25          1           0        0.138506    4.822040   -0.335474
     26          1           0       -0.394591    4.653332   -2.013888
     27          1           0       -1.429917    5.514918   -0.837293
     28          6           0       -5.517806   -3.887091    0.602785
     29          1           0       -5.405902   -4.489952   -0.298333
     30          1           0       -5.087116   -4.434007    1.441987
     31          1           0       -6.566050   -3.674045    0.789217
     32          6           0        0.828268   -0.500717   -0.588630
     33          6           0        1.356820   -1.767588   -0.787738
     34         16           0        2.088956    0.574494   -0.069588
     35          6           0        2.733301   -1.855523   -0.540404
     36          1           0        0.780165   -2.611899   -1.132880
     37          6           0        3.288991   -0.668552   -0.095950
     38          8           0        3.511470   -2.954507   -0.681206
     39          6           0        4.672899   -0.427556    0.240349
     40          6           0        2.921782   -4.103506   -1.253154
     41          6           0        5.231075    0.752712    0.689956
     42         16           0        5.906886   -1.653922    0.124027
     43          1           0        3.714919   -4.844956   -1.329960
     44          1           0        2.120984   -4.497228   -0.617314
     45          1           0        2.526376   -3.888664   -2.252053
     46          6           0        6.629366    0.673189    0.934013
     47          8           0        4.451655    1.842800    0.850349
     48          6           0        7.115448   -0.571489    0.668935
     49          1           0        7.241021    1.490608    1.287383
     50          6           0        5.057544    3.021175    1.340905
     51          1           0        8.135412   -0.910908    0.768713
     52          1           0        5.834449    3.379903    0.657326
     53          1           0        4.264105    3.763365    1.404951
     54          1           0        5.486641    2.860043    2.335685
 ---------------------------------------------------------------------

 The electronic state is 1-A.
 Alpha  occ. eigenvalues --  -89.04868 -89.04736 -19.29257 -19.29068 -19.24988
 Alpha  occ. eigenvalues --  -19.24941 -19.24264 -19.24211 -14.50532 -14.49962
 Alpha  occ. eigenvalues --  -10.42709 -10.42576 -10.42165 -10.41938 -10.35780
 Alpha  occ. eigenvalues --  -10.35768 -10.35349 -10.34687 -10.34585 -10.34156
 Alpha  occ. eigenvalues --  -10.33829 -10.33596 -10.33509 -10.33467 -10.33458
 Alpha  occ. eigenvalues --  -10.33242 -10.33178 -10.32671 -10.32563 -10.32359
 Alpha  occ. eigenvalues --  -10.32302 -10.32202 -10.32107 -10.31771 -10.30366
 Alpha  occ. eigenvalues --  -10.29883  -8.08890  -8.08704  -6.03732  -6.03555
 Alpha  occ. eigenvalues --   -6.03336  -6.03132  -6.02980  -6.02783  -1.19434
 Alpha  occ. eigenvalues --   -1.19042  -1.19024  -1.18793  -1.17522  -1.16983
 Alpha  occ. eigenvalues --   -1.06673  -1.06095  -1.02893  -1.00681  -0.99081
 Alpha  occ. eigenvalues --   -0.96979  -0.94421  -0.90545  -0.88423  -0.87424
 Alpha  occ. eigenvalues --   -0.86211  -0.85125  -0.84960  -0.82948  -0.82292
 Alpha  occ. eigenvalues --   -0.81077  -0.79917  -0.78370  -0.76692  -0.75373
 Alpha  occ. eigenvalues --   -0.74990  -0.74354  -0.70116  -0.69062  -0.68030
 Alpha  occ. eigenvalues --   -0.66517  -0.65789  -0.65234  -0.64208  -0.63719
 Alpha  occ. eigenvalues --   -0.62746  -0.60501  -0.59594  -0.59042  -0.58900
 Alpha  occ. eigenvalues --   -0.58063  -0.57616  -0.57578  -0.57239  -0.57176
 Alpha  occ. eigenvalues --   -0.56679  -0.55893  -0.55328  -0.55076  -0.54266
 Alpha  occ. eigenvalues --   -0.53983  -0.53615  -0.53383  -0.53030  -0.52216
 Alpha  occ. eigenvalues --   -0.51512  -0.51219  -0.50831  -0.50578  -0.50313
 Alpha  occ. eigenvalues --   -0.50007  -0.49563  -0.49338  -0.48813  -0.48340
 Alpha  occ. eigenvalues --   -0.47888  -0.47746  -0.46671  -0.45623  -0.45179
 Alpha  occ. eigenvalues --   -0.44731  -0.44122  -0.42489  -0.41820  -0.41561
 Alpha  occ. eigenvalues --   -0.41030  -0.39905  -0.39362  -0.38164  -0.37978
 Alpha  occ. eigenvalues --   -0.37229  -0.37145  -0.36471  -0.36220  -0.34478
 Alpha  occ. eigenvalues --   -0.33067  -0.31838  -0.31481  -0.25668
 Alpha virt. eigenvalues --   -0.07067  -0.01147   0.00624   0.02584   0.03582
 Alpha virt. eigenvalues --    0.05246   0.05729   0.06042   0.06745   0.07053
 Alpha virt. eigenvalues --    0.07125   0.07384   0.07787   0.07903   0.08217

 Mulliken charges:
               1
     1  C    0.365568
     2  C    0.004185
     3  C    0.256702
     4  C    0.190170
     5  C    0.347546
     6  C    0.130491
     7  C    0.068343
     8  C    0.168666
     9  C    0.380901
    10  C   -0.475738
    11  C    0.305915
    12  C    0.018242
    13  C   -0.522310
    14  C   -0.686844
    15  H    0.186118
    16  H    0.188525
    17  H    0.174704
    18  N   -0.058895
    19  N   -0.094762
    20  O   -0.270501
    21  O   -0.263383
    22  O   -0.277818
    23  O   -0.212551
    24  C   -0.269228
    25  H    0.194806
    26  H    0.198535
    27  H    0.200770
    28  C   -0.280638
    29  H    0.191231
    30  H    0.193803
    31  H    0.200137
    32  C   -0.097145
    33  C   -0.365344
    34  S   -0.762260
    35  C   -0.310426
    36  H    0.149249
    37  C    0.634104
    38  O   -0.114929
    39  C    0.889168
    40  C   -0.299843
    41  C   -0.032764
    42  S   -0.273093
    43  H    0.184888
    44  H    0.160565
    45  H    0.165996
    46  C   -0.562040
    47  O   -0.095450
    48  C   -0.358660
    49  H    0.156805
    50  C   -0.309777
    51  H    0.187953
    52  H    0.159218
    53  H    0.183032
    54  H    0.158058
 Sum of Mulliken charges =  -0.00000

 Dipole moment (field-independent basis, Debye):
    X=              3.4945    Y=             -0.4559    Z=              0.2284  Tot=              3.5315
 Quadrupole moment (field-independent basis, Debye-Ang):
   XX=           -209.9995   YY=           -211.1053   ZZ=           -219.7050
   XY=             11.8614   XZ=              8.9559   YZ=              8.3321

 Normal termination of Gaussian 16 at Mon Nov 30 01:43:18 2020.
