 Gaussian 16, Revision C.01,
 Gaussian 16:  ES64L-G16RevC.01  3-Jul-2019

 --------------------------------------
 # opt=modredundant wb97xd/6-311+g(d,p)
 --------------------------------------

 ----------
 NDI_40.pdb
 ----------
 Symbolic Z-matrix:
 Charge =  0 Multiplicity = 1

 SCF Done:  E(RwB97XD) =  -2358.76575850     A.U. after   19 cycles
 SCF Done:  E(RwB97XD) =  -2358.76704621     A.U. after   18 cycles
 SCF Done:  E(RwB97XD) =  -2358.77177700     A.U. after   17 cycles
 SCF Done:  E(RwB97XD) =  -2358.77266127     A.U. after   16 cycles
 SCF Done:  E(RwB97XD) =  -2358.77309265     A.U. after   17 cycles
 SCF Done:  E(RwB97XD) =  -2358.77330066     A.U. after   14 cycles
 SCF Done:  E(RwB97XD) =  -2358.77341882     A.U. after   16 cycles
 SCF Done:  E(RwB97XD) =  -2358.77347180     A.U. after   14 cycles
 SCF Done:  E(RwB97XD) =  -2358.77348216     A.U. after   14 cycles
 SCF Done:  E(RwB97XD) =  -2358.77348522     A.U. after   13 cycles
 SCF Done:  E(RwB97XD) =  -2358.77348609     A.U. after   11 cycles
 SCF Done:  E(RwB97XD) =  -2358.77348654     A.U. after   11 cycles
 SCF Done:  E(RwB97XD) =  -2358.77348671     A.U. after   12 cycles
 SCF Done:  E(RwB97XD) =  -2358.77348678     A.U. after   10 cycles
 Optimization completed.
    -- Stationary point found.

                         Standard orientation:
 ---------------------------------------------------------------------
 Center     Atomic      Atomic             Coordinates (Angstroms)
 Number     Number       Type             X           Y           Z
 ---------------------------------------------------------------------
      1          6           0       -2.655981   -2.959005    0.489636
      2          6           0       -2.296622   -1.531197    0.278292
      3          6           0       -3.303139   -0.561347    0.096657
      4          6           0       -4.661160   -0.933616    0.104386
      5          6           0       -5.051684   -2.355950    0.307304
      6          6           0       -0.984125   -1.164343    0.270409
      7          6           0       -2.924434    0.782169   -0.113840
      8          6           0       -1.548948    1.160230   -0.115245
      9          6           0       -0.564675    0.186531    0.096964
     10          6           0       -1.223560    2.568325   -0.493188
     11          6           0       -3.640546    3.144999   -0.603877
     12          6           0       -3.956702    1.724860   -0.325163
     13          6           0       -5.281341    1.346595   -0.303306
     14          6           0       -5.642207    0.011706   -0.085857
     15          1           0       -6.680897   -0.293971   -0.075010
     16          1           0       -6.035248    2.106530   -0.467940
     17          1           0       -0.241134   -1.932802    0.446129
     18          7           0       -2.290165    3.452389   -0.708338
     19          7           0       -4.012852   -3.276604    0.470802
     20          8           0       -1.825990   -3.818376    0.680794
     21          8           0       -6.210357   -2.703145    0.326796
     22          8           0       -4.502035    3.983945   -0.752042
     23          8           0       -0.099126    2.994557   -0.626035
     24          6           0       -1.917188    4.823116   -1.056093
     25          1           0       -1.315055    5.258350   -0.258215
     26          1           0       -1.327331    4.822988   -1.972458
     27          1           0       -2.832070    5.391904   -1.191703
     28          6           0       -4.349151   -4.684754    0.676144
     29          1           0       -3.866698   -5.291554   -0.090003
     30          1           0       -3.992308   -5.011613    1.653196
     31          1           0       -5.428680   -4.784380    0.615568
     32          6           0        0.877954    0.410809    0.243755
     33          6           0        1.546866    1.403089    0.907008
     34         16           0        1.986207   -0.750500   -0.417474
     35          6           0        2.946008    1.224051    0.889597
     36          1           0        1.049087    2.228689    1.389147
     37          6           0        3.363493    0.101700    0.199620
     38          8           0        3.864582    2.048707    1.443474
     39          6           0        4.721861   -0.336177   -0.028236
     40          6           0        3.386586    3.124161    2.225592
     41          6           0        5.131188   -1.476287   -0.688079
     42         16           0        6.113337    0.555705    0.522961
     43          1           0        4.268373    3.637771    2.604391
     44          1           0        2.793101    3.818498    1.621113
     45          1           0        2.786215    2.762797    3.067735
     46          6           0        6.543047   -1.632024   -0.750136
     47          8           0        4.207410   -2.321825   -1.198443
     48          6           0        7.189314   -0.603063   -0.134409
     49          1           0        7.051925   -2.459435   -1.223145
     50          6           0        4.671040   -3.458068   -1.898486
     51          1           0        8.255081   -0.467079   -0.029840
     52          1           0        5.260093   -4.111389   -1.245861
     53          1           0        3.782502   -3.990522   -2.232721
     54          1           0        5.270206   -3.168538   -2.768475
 ---------------------------------------------------------------------

 The electronic state is 1-A.
 Alpha  occ. eigenvalues --  -89.04915 -89.04639 -19.29081 -19.28828 -19.25008
 Alpha  occ. eigenvalues --  -19.24977 -19.24485 -19.24429 -14.50573 -14.50179
 Alpha  occ. eigenvalues --  -10.42791 -10.42588 -10.42541 -10.42221 -10.35458
 Alpha  occ. eigenvalues --  -10.35429 -10.35273 -10.34547 -10.34415 -10.34309
 Alpha  occ. eigenvalues --  -10.34243 -10.33949 -10.33741 -10.33705 -10.33524
 Alpha  occ. eigenvalues --  -10.33025 -10.32928 -10.32752 -10.32638 -10.32578
 Alpha  occ. eigenvalues --  -10.32386 -10.32223 -10.31956 -10.31794 -10.29829
 Alpha  occ. eigenvalues --  -10.29664  -8.08944  -8.08660  -6.03793  -6.03503
 Alpha  occ. eigenvalues --   -6.03396  -6.03106  -6.03016  -6.02749  -1.19488
 Alpha  occ. eigenvalues --   -1.19206  -1.18794  -1.18561  -1.17573  -1.17204
 Alpha  occ. eigenvalues --   -1.06739  -1.06251  -1.03108  -1.00618  -0.98974
 Alpha  occ. eigenvalues --   -0.97082  -0.94632  -0.90512  -0.88615  -0.87408
 Alpha  occ. eigenvalues --   -0.86010  -0.85229  -0.84765  -0.82763  -0.82236
 Alpha  occ. eigenvalues --   -0.81494  -0.79577  -0.78307  -0.76868  -0.75494
 Alpha  occ. eigenvalues --   -0.75167  -0.74228  -0.70233  -0.68867  -0.67902
 Alpha  occ. eigenvalues --   -0.66575  -0.65730  -0.65130  -0.64540  -0.63570
 Alpha  occ. eigenvalues --   -0.62450  -0.60671  -0.59715  -0.59182  -0.58791
 Alpha  occ. eigenvalues --   -0.58307  -0.57658  -0.57380  -0.57273  -0.56976
 Alpha  occ. eigenvalues --   -0.56583  -0.55825  -0.55450  -0.55119  -0.54385
 Alpha  occ. eigenvalues --   -0.53970  -0.53495  -0.53275  -0.53258  -0.52110
 Alpha  occ. eigenvalues --   -0.51601  -0.51099  -0.50989  -0.50415  -0.50362
 Alpha  occ. eigenvalues --   -0.50107  -0.49496  -0.49384  -0.48806  -0.48299
 Alpha  occ. eigenvalues --   -0.48006  -0.47574  -0.46973  -0.45758  -0.45376
 Alpha  occ. eigenvalues --   -0.44292  -0.44070  -0.42374  -0.41725  -0.41367
 Alpha  occ. eigenvalues --   -0.41205  -0.40151  -0.39632  -0.38561  -0.37747
 Alpha  occ. eigenvalues --   -0.37331  -0.37068  -0.36804  -0.36252  -0.34561
 Alpha  occ. eigenvalues --   -0.33172  -0.31663  -0.31561  -0.25582
 Alpha virt. eigenvalues --   -0.07209  -0.00632   0.00461   0.02397   0.03455
 Alpha virt. eigenvalues --    0.05220   0.05773   0.06109   0.06801   0.07030
 Alpha virt. eigenvalues --    0.07234   0.07529   0.07703   0.07875   0.07928

 Mulliken charges:
               1
     1  C    0.339382
     2  C   -0.063042
     3  C    0.175217
     4  C    0.193721
     5  C    0.334030
     6  C   -0.432636
     7  C    0.188216
     8  C    0.332289
     9  C    0.473605
    10  C   -0.471245
    11  C    0.268100
    12  C    0.131881
    13  C   -0.561271
    14  C   -0.688676
    15  H    0.187134
    16  H    0.188607
    17  H    0.206757
    18  N   -0.077751
    19  N   -0.090638
    20  O   -0.263749
    21  O   -0.266790
    22  O   -0.273586
    23  O   -0.193936
    24  C   -0.283713
    25  H    0.189977
    26  H    0.196537
    27  H    0.201002
    28  C   -0.282437
    29  H    0.192132
    30  H    0.194536
    31  H    0.200200
    32  C    0.036231
    33  C   -0.533481
    34  S   -0.640222
    35  C   -0.131766
    36  H    0.165179
    37  C    0.728861
    38  O   -0.108013
    39  C    0.848911
    40  C   -0.301376
    41  C   -0.013360
    42  S   -0.273732
    43  H    0.181913
    44  H    0.168184
    45  H    0.161351
    46  C   -0.611102
    47  O   -0.113066
    48  C   -0.342083
    49  H    0.156405
    50  C   -0.307890
    51  H    0.186730
    52  H    0.157268
    53  H    0.182394
    54  H    0.158813
 Sum of Mulliken charges =  -0.00000

 Dipole moment (field-independent basis, Debye):
    X=              2.7358    Y=             -0.4706    Z=              0.2062  Tot=              2.7836
 Quadrupole moment (field-independent basis, Debye-Ang):
   XX=           -216.3842   YY=           -211.3943   ZZ=           -214.3513
   XY=             -4.2816   XZ=             -3.6780   YZ=             14.7040

 Normal termination of Gaussian 16 at Sun Nov 29 22:41:08 2020.
