 Gaussian 16, Revision C.01,
 Gaussian 16:  ES64L-G16RevC.01  3-Jul-2019

 --------------------------------------
 # opt=modredundant wb97xd/6-311+g(d,p)
 --------------------------------------

 -----------
 NDI_100.pdb
 -----------
 Symbolic Z-matrix:
 Charge =  0 Multiplicity = 1

 SCF Done:  E(RwB97XD) =  -2358.76515797     A.U. after   19 cycles
 SCF Done:  E(RwB97XD) =  -2358.77199307     A.U. after   16 cycles
 SCF Done:  E(RwB97XD) =  -2358.77289412     A.U. after   18 cycles
 SCF Done:  E(RwB97XD) =  -2358.77321221     A.U. after   14 cycles
 SCF Done:  E(RwB97XD) =  -2358.77332376     A.U. after   14 cycles
 SCF Done:  E(RwB97XD) =  -2358.77335044     A.U. after   13 cycles
 SCF Done:  E(RwB97XD) =  -2358.77335572     A.U. after   13 cycles
 SCF Done:  E(RwB97XD) =  -2358.77335988     A.U. after   11 cycles
 SCF Done:  E(RwB97XD) =  -2358.77336087     A.U. after   11 cycles
 SCF Done:  E(RwB97XD) =  -2358.77336158     A.U. after   11 cycles
 SCF Done:  E(RwB97XD) =  -2358.77336182     A.U. after   11 cycles
 SCF Done:  E(RwB97XD) =  -2358.77336196     A.U. after    9 cycles
 SCF Done:  E(RwB97XD) =  -2358.77336198     A.U. after    9 cycles
 Optimization completed.
    -- Stationary point found.

                         Standard orientation:
 ---------------------------------------------------------------------
 Center     Atomic      Atomic             Coordinates (Angstroms)
 Number     Number       Type             X           Y           Z
 ---------------------------------------------------------------------
      1          6           0        3.328357   -2.814243    0.043361
      2          6           0        2.655939   -1.491914   -0.057290
      3          6           0        3.403111   -0.305071    0.076334
      4          6           0        4.792702   -0.352825    0.313574
      5          6           0        5.490094   -1.662930    0.431290
      6          6           0        1.305080   -1.430077   -0.271868
      7          6           0        2.746185    0.938686   -0.034337
      8          6           0        1.346892    0.987708   -0.266455
      9          6           0        0.624249   -0.192572   -0.375091
     10          6           0        0.698324    2.324168   -0.438358
     11          6           0        2.872901    3.453753   -0.018331
     12          6           0        3.513609    2.117929    0.096317
     13          6           0        4.867630    2.051493    0.329555
     14          6           0        5.513757    0.810422    0.439910
     15          1           0        6.579500    0.751528    0.623537
     16          1           0        5.422359    2.976728    0.425928
     17          1           0        0.739630   -2.350162   -0.359092
     18          7           0        1.507063    3.457372   -0.280588
     19          7           0        4.701399   -2.807871    0.289533
     20          8           0        2.731263   -3.858873   -0.080742
     21          8           0        6.679641   -1.736435    0.638165
     22          8           0        3.503831    4.479867    0.103542
     23          8           0       -0.470628    2.469015   -0.700959
     24          6           0        0.829446    4.745042   -0.431290
     25          1           0        0.389801    4.816710   -1.426119
     26          1           0        0.030828    4.828589    0.305819
     27          1           0        1.565747    5.529223   -0.283687
     28          6           0        5.343342   -4.117980    0.392548
     29          1           0        4.876766   -4.693077    1.192247
     30          1           0        5.221843   -4.663084   -0.543775
     31          1           0        6.396656   -3.959699    0.603476
     32          6           0       -0.838599   -0.265783   -0.583871
     33          6           0       -1.489879   -0.489906   -1.757846
     34         16           0       -1.921991   -0.159716    0.750602
     35          6           0       -2.899460   -0.550201   -1.581245
     36          1           0       -0.981066   -0.579139   -2.707206
     37          6           0       -3.309242   -0.394102   -0.277084
     38          8           0       -3.818254   -0.731057   -2.559810
     39          6           0       -4.664462   -0.419645    0.233788
     40          6           0       -3.342547   -1.014921   -3.858139
     41          6           0       -5.067046   -0.274385    1.543062
     42         16           0       -6.057580   -0.646986   -0.786284
     43          1           0       -4.224493   -1.174613   -4.476036
     44          1           0       -2.766872   -0.174804   -4.262215
     45          1           0       -2.725706   -1.920412   -3.864874
     46          6           0       -6.476043   -0.343909    1.726758
     47          8           0       -4.139672   -0.088267    2.513882
     48          6           0       -7.128080   -0.542359    0.547859
     49          1           0       -6.978971   -0.251987    2.678670
     50          6           0       -4.602828    0.093232    3.834613
     51          1           0       -8.192363   -0.633411    0.392692
     52          1           0       -5.147702   -0.788910    4.188737
     53          1           0       -3.716356    0.238513    4.449685
     54          1           0       -5.245722    0.977059    3.911314
 ---------------------------------------------------------------------

 The electronic state is 1-A.
 Alpha  occ. eigenvalues --  -89.04299 -89.04010 -19.28441 -19.28435 -19.25288
 Alpha  occ. eigenvalues --  -19.25232 -19.24933 -19.24867 -14.50833 -14.50485
 Alpha  occ. eigenvalues --  -10.43090 -10.42861 -10.42726 -10.42714 -10.35203
 Alpha  occ. eigenvalues --  -10.34765 -10.34763 -10.34706 -10.34630 -10.34525
 Alpha  occ. eigenvalues --  -10.34177 -10.34144 -10.34131 -10.34117 -10.34106
 Alpha  occ. eigenvalues --  -10.33235 -10.33146 -10.33136 -10.32669 -10.32416
 Alpha  occ. eigenvalues --  -10.32096 -10.31918 -10.31764 -10.31087 -10.29364
 Alpha  occ. eigenvalues --  -10.29080  -8.08312  -8.08033  -6.03171  -6.02876
 Alpha  occ. eigenvalues --   -6.02771  -6.02480  -6.02370  -6.02122  -1.19749
 Alpha  occ. eigenvalues --   -1.19529  -1.18171  -1.18086  -1.17845  -1.17599
 Alpha  occ. eigenvalues --   -1.07009  -1.06611  -1.03569  -1.00141  -0.98583
 Alpha  occ. eigenvalues --   -0.97199  -0.95059  -0.90540  -0.88995  -0.87020
 Alpha  occ. eigenvalues --   -0.85643  -0.85445  -0.84160  -0.82716  -0.82222
 Alpha  occ. eigenvalues --   -0.81325  -0.79322  -0.78148  -0.77087  -0.75838
 Alpha  occ. eigenvalues --   -0.75344  -0.74463  -0.70126  -0.68624  -0.67725
 Alpha  occ. eigenvalues --   -0.66877  -0.65612  -0.64599  -0.64495  -0.63043
 Alpha  occ. eigenvalues --   -0.62884  -0.60950  -0.59969  -0.59363  -0.59108
 Alpha  occ. eigenvalues --   -0.57899  -0.57816  -0.57474  -0.56974  -0.56637
 Alpha  occ. eigenvalues --   -0.56380  -0.56162  -0.55656  -0.55397  -0.54210
 Alpha  occ. eigenvalues --   -0.53988  -0.53744  -0.53487  -0.53090  -0.52474
 Alpha  occ. eigenvalues --   -0.51736  -0.51338  -0.51234  -0.50423  -0.50067
 Alpha  occ. eigenvalues --   -0.49660  -0.49576  -0.49178  -0.48928  -0.48463
 Alpha  occ. eigenvalues --   -0.48412  -0.46993  -0.46636  -0.45888  -0.45012
 Alpha  occ. eigenvalues --   -0.44135  -0.43519  -0.42003  -0.41258  -0.41011
 Alpha  occ. eigenvalues --   -0.40688  -0.40557  -0.39813  -0.38681  -0.37634
 Alpha  occ. eigenvalues --   -0.37576  -0.37164  -0.36945  -0.35977  -0.34979
 Alpha  occ. eigenvalues --   -0.33574  -0.31396  -0.31082  -0.25283
 Alpha virt. eigenvalues --   -0.07318  -0.00046   0.00630   0.02271   0.02622
 Alpha virt. eigenvalues --    0.04990   0.05988   0.06246   0.06593   0.06895
 Alpha virt. eigenvalues --    0.07329   0.07413   0.07586   0.07695   0.08022

 Mulliken charges:
               1
     1  C    0.467998
     2  C    0.092798
     3  C    0.196549
     4  C    0.181739
     5  C    0.370818
     6  C   -0.721201
     7  C    0.148172
     8  C   -0.093495
     9  C    0.322626
    10  C   -0.251580
    11  C    0.298969
    12  C    0.198113
    13  C   -0.607731
    14  C   -0.733578
    15  H    0.188938
    16  H    0.189775
    17  H    0.196835
    18  N   -0.098265
    19  N   -0.096507
    20  O   -0.257136
    21  O   -0.268237
    22  O   -0.268651
    23  O   -0.115573
    24  C   -0.295939
    25  H    0.195144
    26  H    0.198898
    27  H    0.201946
    28  C   -0.285228
    29  H    0.193974
    30  H    0.194411
    31  H    0.200674
    32  C    0.296099
    33  C   -0.474005
    34  S   -0.167139
    35  C   -0.104608
    36  H    0.141632
    37  C    0.211792
    38  O   -0.116286
    39  C    0.845731
    40  C   -0.290548
    41  C    0.071656
    42  S   -0.305771
    43  H    0.181467
    44  H    0.159570
    45  H    0.162752
    46  C   -0.562519
    47  O   -0.127760
    48  C   -0.395157
    49  H    0.153900
    50  C   -0.299572
    51  H    0.183556
    52  H    0.154764
    53  H    0.177586
    54  H    0.157603
 Sum of Mulliken charges =  -0.00000

 Dipole moment (field-independent basis, Debye):
    X=             -0.9588    Y=             -0.0435    Z=              0.0611  Tot=              0.9617
 Quadrupole moment (field-independent basis, Debye-Ang):
   XX=           -217.8920   YY=           -231.1397   ZZ=           -195.5162
   XY=             -3.1402   XZ=            -10.1652   YZ=              3.1091

 Normal termination of Gaussian 16 at Sun Nov 29 22:34:54 2020.
