 Gaussian 16, Revision C.01,
 Gaussian 16:  ES64L-G16RevC.01  3-Jul-2019

 --------------------------------------
 # opt=modredundant wb97xd/6-311+g(d,p)
 --------------------------------------

 ------------
 NDI_-140.pdb
 ------------
 Symbolic Z-matrix:
 Charge =  0 Multiplicity = 1

 SCF Done:  E(RwB97XD) =  -2358.75390084     A.U. after   19 cycles
 SCF Done:  E(RwB97XD) =  -2358.75793682     A.U. after   20 cycles
 SCF Done:  E(RwB97XD) =  -2358.76655661     A.U. after   18 cycles
 SCF Done:  E(RwB97XD) =  -2358.76938727     A.U. after   17 cycles
 SCF Done:  E(RwB97XD) =  -2358.77031402     A.U. after   17 cycles
 SCF Done:  E(RwB97XD) =  -2358.77082993     A.U. after   17 cycles
 SCF Done:  E(RwB97XD) =  -2358.77119891     A.U. after   17 cycles
 SCF Done:  E(RwB97XD) =  -2358.77156854     A.U. after   15 cycles
 SCF Done:  E(RwB97XD) =  -2358.77206071     A.U. after   16 cycles
 SCF Done:  E(RwB97XD) =  -2358.77221894     A.U. after   16 cycles
 SCF Done:  E(RwB97XD) =  -2358.77225435     A.U. after   14 cycles
 SCF Done:  E(RwB97XD) =  -2358.77226336     A.U. after   14 cycles
 SCF Done:  E(RwB97XD) =  -2358.77226653     A.U. after   12 cycles
 SCF Done:  E(RwB97XD) =  -2358.77226701     A.U. after   12 cycles
 SCF Done:  E(RwB97XD) =  -2358.77226712     A.U. after   11 cycles
 SCF Done:  E(RwB97XD) =  -2358.77226730     A.U. after   12 cycles
 SCF Done:  E(RwB97XD) =  -2358.77226736     A.U. after   10 cycles
 SCF Done:  E(RwB97XD) =  -2358.77226738     A.U. after    9 cycles
 Optimization completed.
    -- Stationary point found.

                         Standard orientation:
 ---------------------------------------------------------------------
 Center     Atomic      Atomic             Coordinates (Angstroms)
 Number     Number       Type             X           Y           Z
 ---------------------------------------------------------------------
      1          6           0       -3.369562   -2.738109    0.423282
      2          6           0       -2.676243   -1.455732    0.130761
      3          6           0       -3.389362   -0.240145    0.156831
      4          6           0       -4.766307   -0.222844    0.454176
      5          6           0       -5.486848   -1.491113    0.750897
      6          6           0       -1.341432   -1.460632   -0.158077
      7          6           0       -2.708860    0.957591   -0.147960
      8          6           0       -1.317384    0.942105   -0.441832
      9          6           0       -0.621221   -0.266117   -0.430712
     10          6           0       -0.700206    2.201734   -0.952975
     11          6           0       -2.808136    3.444963   -0.521714
     12          6           0       -3.452379    2.159349   -0.154168
     13          6           0       -4.794731    2.160246    0.152148
     14          6           0       -5.459307    0.965240    0.460727
     15          1           0       -6.516868    0.958048    0.693541
     16          1           0       -5.326123    3.103942    0.139154
     17          1           0       -0.808538   -2.403241   -0.135056
     18          7           0       -1.483119    3.363709   -0.932884
     19          7           0       -4.734577   -2.668704    0.697111
     20          8           0       -2.792162   -3.801574    0.440586
     21          8           0       -6.665879   -1.508284    1.020591
     22          8           0       -3.405952    4.497896   -0.489249
     23          8           0        0.433034    2.271491   -1.365453
     24          6           0       -0.819115    4.583360   -1.391793
     25          1           0        0.050727    4.787756   -0.767250
     26          1           0       -0.483366    4.455122   -2.420676
     27          1           0       -1.533618    5.398055   -1.323181
     28          6           0       -5.400331   -3.938824    0.983768
     29          1           0       -5.276477   -4.615921    0.138719
     30          1           0       -4.954293   -4.399326    1.865680
     31          1           0       -6.452836   -3.734805    1.155858
     32          6           0        0.833521   -0.438862   -0.570124
     33          6           0        1.445350   -1.431340   -1.290522
     34         16           0        1.962746    0.396945    0.430528
     35          6           0        2.842389   -1.476985   -1.074191
     36          1           0        0.907973   -2.084456   -1.964461
     37          6           0        3.292627   -0.557754   -0.148555
     38          8           0        3.718742   -2.325306   -1.662344
     39          6           0        4.651837   -0.363845    0.307512
     40          6           0        3.226910   -3.164410   -2.686064
     41          6           0        5.097117    0.545033    1.243746
     42         16           0        5.996526   -1.294546   -0.293288
     43          1           0        4.085039   -3.718274   -3.062574
     44          1           0        2.484556   -3.870890   -2.298153
     45          1           0        2.786568   -2.577922   -3.499868
     46          6           0        6.499765    0.497733    1.473617
     47          8           0        4.214299    1.377678    1.842405
     48          6           0        7.102998   -0.452988    0.707418
     49          1           0        7.032472    1.131147    2.168159
     50          6           0        4.710847    2.268701    2.818858
     51          1           0        8.152242   -0.705080    0.679949
     52          1           0        5.440074    2.962936    2.387281
     53          1           0        3.851453    2.829918    3.181391
     54          1           0        5.168254    1.726244    3.653446
 ---------------------------------------------------------------------

 The electronic state is 1-A.
 Alpha  occ. eigenvalues --  -89.04518 -89.04429 -19.28862 -19.28781 -19.25120
 Alpha  occ. eigenvalues --  -19.25108 -19.24579 -19.24442 -14.50686 -14.50173
 Alpha  occ. eigenvalues --  -10.42907 -10.42725 -10.42402 -10.42341 -10.35262
 Alpha  occ. eigenvalues --  -10.35166 -10.35135 -10.34442 -10.34442 -10.34386
 Alpha  occ. eigenvalues --  -10.34241 -10.34127 -10.33873 -10.33855 -10.33706
 Alpha  occ. eigenvalues --  -10.32965 -10.32950 -10.32836 -10.32771 -10.32642
 Alpha  occ. eigenvalues --  -10.32311 -10.32168 -10.31886 -10.31563 -10.29926
 Alpha  occ. eigenvalues --  -10.29470  -8.08536  -8.08452  -6.03393  -6.03294
 Alpha  occ. eigenvalues --   -6.02990  -6.02898  -6.02598  -6.02540  -1.19595
 Alpha  occ. eigenvalues --   -1.19196  -1.18589  -1.18481  -1.17688  -1.17240
 Alpha  occ. eigenvalues --   -1.06841  -1.06302  -1.03258  -1.00455  -0.98840
 Alpha  occ. eigenvalues --   -0.97144  -0.94758  -0.90555  -0.88721  -0.87242
 Alpha  occ. eigenvalues --   -0.85926  -0.85279  -0.84581  -0.82700  -0.82411
 Alpha  occ. eigenvalues --   -0.81163  -0.79640  -0.78275  -0.76877  -0.75584
 Alpha  occ. eigenvalues --   -0.75144  -0.74401  -0.70094  -0.68852  -0.67884
 Alpha  occ. eigenvalues --   -0.66676  -0.65740  -0.64885  -0.64200  -0.63468
 Alpha  occ. eigenvalues --   -0.62852  -0.60731  -0.59777  -0.59139  -0.58929
 Alpha  occ. eigenvalues --   -0.58119  -0.57708  -0.57347  -0.57275  -0.56927
 Alpha  occ. eigenvalues --   -0.56455  -0.55999  -0.55406  -0.55305  -0.54221
 Alpha  occ. eigenvalues --   -0.53876  -0.53700  -0.53386  -0.53195  -0.52475
 Alpha  occ. eigenvalues --   -0.51593  -0.51177  -0.50955  -0.50369  -0.50158
 Alpha  occ. eigenvalues --   -0.49994  -0.49517  -0.49436  -0.48853  -0.48368
 Alpha  occ. eigenvalues --   -0.48099  -0.47372  -0.46634  -0.45820  -0.45298
 Alpha  occ. eigenvalues --   -0.44342  -0.43929  -0.42261  -0.41585  -0.41193
 Alpha  occ. eigenvalues --   -0.41128  -0.40232  -0.39626  -0.38409  -0.37630
 Alpha  occ. eigenvalues --   -0.37407  -0.37112  -0.36708  -0.36243  -0.34813
 Alpha  occ. eigenvalues --   -0.33240  -0.31664  -0.31245  -0.25479
 Alpha virt. eigenvalues --   -0.07230  -0.00394   0.00453   0.02265   0.03371
 Alpha virt. eigenvalues --    0.05198   0.05829   0.06126   0.06736   0.06880
 Alpha virt. eigenvalues --    0.07139   0.07548   0.07643   0.07744   0.07930

 Mulliken charges:
               1
     1  C    0.373031
     2  C   -0.005991
     3  C    0.176101
     4  C    0.229792
     5  C    0.298236
     6  C   -0.329631
     7  C    0.161174
     8  C   -0.016537
     9  C    0.266236
    10  C   -0.326887
    11  C    0.335139
    12  C    0.088747
    13  C   -0.532513
    14  C   -0.722324
    15  H    0.187782
    16  H    0.188913
    17  H    0.196804
    18  N   -0.049742
    19  N   -0.092760
    20  O   -0.262638
    21  O   -0.267907
    22  O   -0.275371
    23  O   -0.202957
    24  C   -0.265183
    25  H    0.198118
    26  H    0.197147
    27  H    0.200335
    28  C   -0.279669
    29  H    0.191310
    30  H    0.195241
    31  H    0.200309
    32  C    0.238209
    33  C   -0.684992
    34  S   -0.608502
    35  C    0.015526
    36  H    0.161454
    37  C    0.620105
    38  O   -0.118124
    39  C    0.923522
    40  C   -0.296833
    41  C    0.050231
    42  S   -0.281811
    43  H    0.182696
    44  H    0.160098
    45  H    0.165864
    46  C   -0.641024
    47  O   -0.118856
    48  C   -0.352490
    49  H    0.155463
    50  C   -0.304958
    51  H    0.185764
    52  H    0.157233
    53  H    0.179731
    54  H    0.157388
 Sum of Mulliken charges =  -0.00000

 Dipole moment (field-independent basis, Debye):
    X=              2.1151    Y=             -0.2052    Z=              0.1265  Tot=              2.1288
 Quadrupole moment (field-independent basis, Debye-Ang):
   XX=           -214.2914   YY=           -219.8877   ZZ=           -208.5532
   XY=              8.6423   XZ=             10.2270   YZ=             14.2325

 Normal termination of Gaussian 16 at Sun Nov 29 23:15:52 2020.
