 Gaussian 16, Revision C.01,
 Gaussian 16:  ES64L-G16RevC.01  3-Jul-2019

 --------------------------------------
 # opt=modredundant wb97xd/6-311+g(d,p)
 --------------------------------------

 -----------
 NDI_115.pdb
 -----------
 Symbolic Z-matrix:
 Charge =  0 Multiplicity = 1

 SCF Done:  E(RwB97XD) =  -2358.76538608     A.U. after   20 cycles
 SCF Done:  E(RwB97XD) =  -2358.77249299     A.U. after   18 cycles
 SCF Done:  E(RwB97XD) =  -2358.77330864     A.U. after   15 cycles
 SCF Done:  E(RwB97XD) =  -2358.77326929     A.U. after   15 cycles
 SCF Done:  E(RwB97XD) =  -2358.77339923     A.U. after   14 cycles
 SCF Done:  E(RwB97XD) =  -2358.77343981     A.U. after   13 cycles
 SCF Done:  E(RwB97XD) =  -2358.77344397     A.U. after   12 cycles
 SCF Done:  E(RwB97XD) =  -2358.77344571     A.U. after   11 cycles
 SCF Done:  E(RwB97XD) =  -2358.77344616     A.U. after   12 cycles
 SCF Done:  E(RwB97XD) =  -2358.77344652     A.U. after   10 cycles
 SCF Done:  E(RwB97XD) =  -2358.77344662     A.U. after   10 cycles
 SCF Done:  E(RwB97XD) =  -2358.77344665     A.U. after    9 cycles
 Optimization completed.
    -- Stationary point found.

                         Standard orientation:
 ---------------------------------------------------------------------
 Center     Atomic      Atomic             Coordinates (Angstroms)
 Number     Number       Type             X           Y           Z
 ---------------------------------------------------------------------
      1          6           0        3.384179   -2.766238    0.327199
      2          6           0        2.684894   -1.476375    0.086407
      3          6           0        3.402188   -0.263972    0.121199
      4          6           0        4.786551   -0.254900    0.388937
      5          6           0        5.509620   -1.530024    0.648616
      6          6           0        1.337936   -1.468538   -0.155591
      7          6           0        2.720772    0.945556   -0.130207
      8          6           0        1.325200    0.938720   -0.390268
      9          6           0        0.628303   -0.263369   -0.384761
     10          6           0        0.671213    2.223339   -0.784791
     11          6           0        2.798314    3.448344   -0.393909
     12          6           0        3.460970    2.148958   -0.111123
     13          6           0        4.810253    2.139021    0.157981
     14          6           0        5.479717    0.932089    0.411364
     15          1           0        6.542066    0.917431    0.621399
     16          1           0        5.343079    3.081955    0.166939
     17          1           0        0.794681   -2.405904   -0.153677
     18          7           0        1.449207    3.387070   -0.725835
     19          7           0        4.750842   -2.702872    0.598179
     20          8           0        2.812634   -3.832066    0.295946
     21          8           0        6.694862   -1.554449    0.889047
     22          8           0        3.400305    4.498103   -0.352141
     23          8           0       -0.479136    2.303708   -1.141508
     24          6           0        0.759538    4.628750   -1.075542
     25          1           0        0.378289    4.564695   -2.094652
     26          1           0       -0.082824    4.783755   -0.401265
     27          1           0        1.471784    5.443319   -0.985970
     28          6           0        5.419465   -3.980641    0.841587
     29          1           0        4.948841   -4.486303    1.684686
     30          1           0        5.330492   -4.617230   -0.038990
     31          1           0        6.464185   -3.777031    1.056378
     32          6           0       -0.831904   -0.395968   -0.557230
     33          6           0       -1.477004   -1.003843   -1.592882
     34         16           0       -1.922059    0.098286    0.682033
     35          6           0       -2.884061   -1.035523   -1.400571
     36          1           0       -0.963676   -1.385272   -2.464483
     37          6           0       -3.299460   -0.483914   -0.209351
     38          8           0       -3.796975   -1.537588   -2.265738
     39          6           0       -4.654088   -0.384088    0.292586
     40          6           0       -3.312589   -2.209422   -3.408981
     41          6           0       -5.063371    0.159723    1.490474
     42         16           0       -6.037813   -0.965010   -0.591232
     43          1           0       -4.189696   -2.574717   -3.940298
     44          1           0       -2.753375   -1.529578   -4.061308
     45          1           0       -2.677368   -3.057618   -3.130596
     46          6           0       -6.469985    0.112538    1.696983
     47          8           0       -4.144056    0.671606    2.344028
     48          6           0       -7.113231   -0.470405    0.647787
     49          1           0       -6.977332    0.489164    2.573498
     50          6           0       -4.614661    1.252189    3.541427
     51          1           0       -8.174127   -0.636067    0.537523
     52          1           0       -5.133749    0.514077    4.162803
     53          1           0       -3.733847    1.611459    4.070843
     54          1           0       -5.283406    2.095493    3.336842
 ---------------------------------------------------------------------

 The electronic state is 1-A.
 Alpha  occ. eigenvalues --  -89.04338 -89.04124 -19.28560 -19.28541 -19.25243
 Alpha  occ. eigenvalues --  -19.25201 -19.24834 -19.24749 -14.50795 -14.50389
 Alpha  occ. eigenvalues --  -10.43041 -10.42828 -10.42620 -10.42613 -10.35185
 Alpha  occ. eigenvalues --  -10.34881 -10.34773 -10.34643 -10.34579 -10.34418
 Alpha  occ. eigenvalues --  -10.34233 -10.34208 -10.34095 -10.34046 -10.34007
 Alpha  occ. eigenvalues --  -10.33131 -10.33102 -10.33042 -10.32764 -10.32390
 Alpha  occ. eigenvalues --  -10.32114 -10.32031 -10.31874 -10.31216 -10.29538
 Alpha  occ. eigenvalues --  -10.29188  -8.08355  -8.08147  -6.03214  -6.02990
 Alpha  occ. eigenvalues --   -6.02814  -6.02594  -6.02412  -6.02236  -1.19707
 Alpha  occ. eigenvalues --   -1.19426  -1.18288  -1.18206  -1.17803  -1.17493
 Alpha  occ. eigenvalues --   -1.06962  -1.06523  -1.03486  -1.00226  -0.98650
 Alpha  occ. eigenvalues --   -0.97194  -0.94978  -0.90543  -0.88920  -0.87086
 Alpha  occ. eigenvalues --   -0.85710  -0.85410  -0.84278  -0.82673  -0.82322
 Alpha  occ. eigenvalues --   -0.81268  -0.79421  -0.78184  -0.77027  -0.75766
 Alpha  occ. eigenvalues --   -0.75281  -0.74451  -0.70108  -0.68698  -0.67772
 Alpha  occ. eigenvalues --   -0.66822  -0.65674  -0.64614  -0.64436  -0.63168
 Alpha  occ. eigenvalues --   -0.62893  -0.60892  -0.59914  -0.59292  -0.59052
 Alpha  occ. eigenvalues --   -0.57944  -0.57821  -0.57445  -0.57056  -0.56712
 Alpha  occ. eigenvalues --   -0.56317  -0.56205  -0.55586  -0.55380  -0.54192
 Alpha  occ. eigenvalues --   -0.53956  -0.53748  -0.53444  -0.53144  -0.52506
 Alpha  occ. eigenvalues --   -0.51698  -0.51289  -0.51147  -0.50376  -0.50106
 Alpha  occ. eigenvalues --   -0.49696  -0.49609  -0.49270  -0.48906  -0.48444
 Alpha  occ. eigenvalues --   -0.48314  -0.47106  -0.46599  -0.45878  -0.45156
 Alpha  occ. eigenvalues --   -0.44184  -0.43621  -0.42095  -0.41369  -0.41046
 Alpha  occ. eigenvalues --   -0.40774  -0.40485  -0.39758  -0.38603  -0.37620
 Alpha  occ. eigenvalues --   -0.37523  -0.37118  -0.36874  -0.36043  -0.35003
 Alpha  occ. eigenvalues --   -0.33461  -0.31486  -0.31132  -0.25341
 Alpha virt. eigenvalues --   -0.07291  -0.00076   0.00517   0.02188   0.02938
 Alpha virt. eigenvalues --    0.05058   0.05934   0.06215   0.06613   0.06901
 Alpha virt. eigenvalues --    0.07247   0.07466   0.07580   0.07694   0.07980

 Mulliken charges:
               1
     1  C    0.437915
     2  C    0.014981
     3  C    0.178903
     4  C    0.173457
     5  C    0.353150
     6  C   -0.585864
     7  C    0.176772
     8  C   -0.113835
     9  C    0.220823
    10  C   -0.237615
    11  C    0.332763
    12  C    0.120491
    13  C   -0.536261
    14  C   -0.733177
    15  H    0.188629
    16  H    0.189364
    17  H    0.197589
    18  N   -0.072196
    19  N   -0.093823
    20  O   -0.259567
    21  O   -0.268972
    22  O   -0.271933
    23  O   -0.153951
    24  C   -0.277213
    25  H    0.196184
    26  H    0.199497
    27  H    0.201690
    28  C   -0.282960
    29  H    0.194004
    30  H    0.193829
    31  H    0.200988
    32  C    0.391208
    33  C   -0.443502
    34  S   -0.364668
    35  C   -0.104984
    36  H    0.146502
    37  C    0.329187
    38  O   -0.110677
    39  C    0.866747
    40  C   -0.292780
    41  C    0.050227
    42  S   -0.301525
    43  H    0.181830
    44  H    0.159246
    45  H    0.164036
    46  C   -0.581375
    47  O   -0.124363
    48  C   -0.376697
    49  H    0.154327
    50  C   -0.301086
    51  H    0.184043
    52  H    0.155071
    53  H    0.177915
    54  H    0.157655
 Sum of Mulliken charges =  -0.00000

 Dipole moment (field-independent basis, Debye):
    X=             -1.2709    Y=             -0.1202    Z=              0.1476  Tot=              1.2851
 Quadrupole moment (field-independent basis, Debye-Ang):
   XX=           -216.8112   YY=           -226.6867   ZZ=           -200.5904
   XY=             -5.5964   XZ=            -10.4066   YZ=             10.9134

 Normal termination of Gaussian 16 at Sun Nov 29 20:54:12 2020.
