 Gaussian 16, Revision C.01,
 Gaussian 16:  ES64L-G16RevC.01  3-Jul-2019

 --------------------------------------
 # opt=modredundant wb97xd/6-311+g(d,p)
 --------------------------------------

 ----------
 NDI_75.pdb
 ----------
 Symbolic Z-matrix:
 Charge =  0 Multiplicity = 1

 SCF Done:  E(RwB97XD) =  -2358.76464391     A.U. after   19 cycles
 SCF Done:  E(RwB97XD) =  -2358.77156751     A.U. after   16 cycles
 SCF Done:  E(RwB97XD) =  -2358.77276776     A.U. after   17 cycles
 SCF Done:  E(RwB97XD) =  -2358.77317270     A.U. after   14 cycles
 SCF Done:  E(RwB97XD) =  -2358.77324172     A.U. after   14 cycles
 SCF Done:  E(RwB97XD) =  -2358.77330212     A.U. after   13 cycles
 SCF Done:  E(RwB97XD) =  -2358.77331311     A.U. after   13 cycles
 SCF Done:  E(RwB97XD) =  -2358.77331849     A.U. after   12 cycles
 SCF Done:  E(RwB97XD) =  -2358.77332038     A.U. after   11 cycles
 SCF Done:  E(RwB97XD) =  -2358.77332197     A.U. after   11 cycles
 SCF Done:  E(RwB97XD) =  -2358.77332250     A.U. after   11 cycles
 SCF Done:  E(RwB97XD) =  -2358.77332262     A.U. after   10 cycles
 SCF Done:  E(RwB97XD) =  -2358.77332263     A.U. after    9 cycles
 Optimization completed.
    -- Stationary point found.

                         Standard orientation:
 ---------------------------------------------------------------------
 Center     Atomic      Atomic             Coordinates (Angstroms)
 Number     Number       Type             X           Y           Z
 ---------------------------------------------------------------------
      1          6           0       -3.062637   -2.853330    0.542984
      2          6           0       -2.512663   -1.485944    0.345289
      3          6           0       -3.372880   -0.412427    0.040586
      4          6           0       -4.761606   -0.620228   -0.090243
      5          6           0       -5.339424   -1.979727    0.096437
      6          6           0       -1.165959   -1.272928    0.459978
      7          6           0       -2.826986    0.875295   -0.146748
      8          6           0       -1.428338    1.085372   -0.013771
      9          6           0       -0.598325    0.015941    0.299592
     10          6           0       -0.885544    2.452485   -0.286011
     11          6           0       -3.184113    3.303449   -0.709315
     12          6           0       -3.705470    1.933153   -0.472423
     13          6           0       -5.058298    1.712468   -0.591586
     14          6           0       -5.593198    0.429951   -0.398444
     15          1           0       -6.656631    0.248931   -0.494568
     16          1           0       -5.698605    2.549150   -0.842624
     17          1           0       -0.518751   -2.107878    0.701147
     18          7           0       -1.805028    3.456922   -0.617724
     19          7           0       -4.440647   -3.008042    0.391877
     20          8           0       -2.365846   -3.799849    0.828571
     21          8           0       -6.526900   -2.187547   -0.003701
     22          8           0       -3.914991    4.231509   -0.975099
     23          8           0        0.287910    2.730527   -0.233075
     24          6           0       -1.233461    4.779236   -0.871997
     25          1           0       -0.701879    5.128818    0.013173
     26          1           0       -0.525969    4.721134   -1.699015
     27          1           0       -2.048425    5.454069   -1.115452
     28          6           0       -4.962216   -4.360390    0.586978
     29          1           0       -4.483423   -5.042476   -0.115449
     30          1           0       -4.744960   -4.697363    1.600850
     31          1           0       -6.034683   -4.333984    0.419421
     32          6           0        0.861292    0.116911    0.507349
     33          6           0        1.513642    0.624012    1.589257
     34         16           0        1.949106   -0.560312   -0.645137
     35          6           0        2.921559    0.478959    1.480029
     36          1           0        1.003557    1.098218    2.415379
     37          6           0        3.335133   -0.144212    0.323822
     38          8           0        3.839517    0.906777    2.378824
     39          6           0        4.693158   -0.424024   -0.093358
     40          6           0        3.362705    1.431796    3.599465
     41          6           0        5.098303   -1.077016   -1.236813
     42         16           0        6.087423    0.053929    0.834442
     43          1           0        4.244350    1.668647    4.192502
     44          1           0        2.780713    2.345771    3.437393
     45          1           0        2.751855    0.696471    4.134797
     46          6           0        6.509927   -1.192942   -1.367985
     47          8           0        4.170473   -1.540382   -2.109014
     48          6           0        7.161384   -0.623028   -0.316655
     49          1           0        7.014795   -1.672391   -2.194289
     50          6           0        4.634147   -2.168591   -3.284965
     51          1           0        8.227314   -0.568214   -0.155804
     52          1           0        5.214070   -3.068360   -3.051600
     53          1           0        3.746376   -2.449866   -3.848797
     54          1           0        5.243446   -1.484443   -3.885762
 ---------------------------------------------------------------------

 The electronic state is 1-A.
 Alpha  occ. eigenvalues --  -89.04508 -89.04087 -19.28525 -19.28485 -19.25244
 Alpha  occ. eigenvalues --  -19.25182 -19.24898 -19.24806 -14.50790 -14.50471
 Alpha  occ. eigenvalues --  -10.43045 -10.42810 -10.42742 -10.42671 -10.35243
 Alpha  occ. eigenvalues --  -10.34845 -10.34725 -10.34721 -10.34672 -10.34455
 Alpha  occ. eigenvalues --  -10.34189 -10.34155 -10.34124 -10.34053 -10.34045
 Alpha  occ. eigenvalues --  -10.33153 -10.33089 -10.33072 -10.32670 -10.32381
 Alpha  occ. eigenvalues --  -10.32114 -10.32062 -10.31847 -10.31172 -10.29375
 Alpha  occ. eigenvalues --  -10.29152  -8.08519  -8.08110  -6.03374  -6.02975
 Alpha  occ. eigenvalues --   -6.02953  -6.02585  -6.02557  -6.02199  -1.19706
 Alpha  occ. eigenvalues --   -1.19505  -1.18242  -1.18161  -1.17800  -1.17565
 Alpha  occ. eigenvalues --   -1.06967  -1.06576  -1.03510  -1.00226  -0.98628
 Alpha  occ. eigenvalues --   -0.97203  -0.95007  -0.90531  -0.88948  -0.87072
 Alpha  occ. eigenvalues --   -0.85685  -0.85445  -0.84255  -0.82722  -0.82165
 Alpha  occ. eigenvalues --   -0.81446  -0.79320  -0.78179  -0.77070  -0.75799
 Alpha  occ. eigenvalues --   -0.75337  -0.74413  -0.70157  -0.68628  -0.67757
 Alpha  occ. eigenvalues --   -0.66837  -0.65562  -0.64798  -0.64540  -0.63091
 Alpha  occ. eigenvalues --   -0.62770  -0.60915  -0.59938  -0.59352  -0.59068
 Alpha  occ. eigenvalues --   -0.57964  -0.57817  -0.57443  -0.57007  -0.56675
 Alpha  occ. eigenvalues --   -0.56394  -0.56146  -0.55605  -0.55380  -0.54202
 Alpha  occ. eigenvalues --   -0.54045  -0.53646  -0.53492  -0.53094  -0.52434
 Alpha  occ. eigenvalues --   -0.51710  -0.51278  -0.51239  -0.50411  -0.50121
 Alpha  occ. eigenvalues --   -0.49700  -0.49638  -0.49154  -0.48971  -0.48448
 Alpha  occ. eigenvalues --   -0.48361  -0.46951  -0.46931  -0.45820  -0.45041
 Alpha  occ. eigenvalues --   -0.44119  -0.43612  -0.42043  -0.41350  -0.41075
 Alpha  occ. eigenvalues --   -0.40786  -0.40500  -0.39816  -0.38707  -0.37652
 Alpha  occ. eigenvalues --   -0.37552  -0.37138  -0.37026  -0.36093  -0.34784
 Alpha  occ. eigenvalues --   -0.33507  -0.31411  -0.31191  -0.25324
 Alpha virt. eigenvalues --   -0.07306  -0.00078   0.00600   0.02220   0.02730
 Alpha virt. eigenvalues --    0.05004   0.05970   0.06180   0.06717   0.06889
 Alpha virt. eigenvalues --    0.07371   0.07449   0.07588   0.07731   0.07946

 Mulliken charges:
               1
     1  C    0.472817
     2  C    0.001064
     3  C    0.186614
     4  C    0.173463
     5  C    0.361261
     6  C   -0.686999
     7  C    0.152702
     8  C    0.078154
     9  C    0.440437
    10  C   -0.374363
    11  C    0.264798
    12  C    0.158386
    13  C   -0.561063
    14  C   -0.710172
    15  H    0.188606
    16  H    0.189225
    17  H    0.204955
    18  N   -0.109667
    19  N   -0.095552
    20  O   -0.258522
    21  O   -0.267905
    22  O   -0.270109
    23  O   -0.088261
    24  C   -0.297728
    25  H    0.194587
    26  H    0.197537
    27  H    0.202107
    28  C   -0.284818
    29  H    0.193228
    30  H    0.195045
    31  H    0.200470
    32  C    0.099297
    33  C   -0.455059
    34  S   -0.330262
    35  C   -0.074918
    36  H    0.145639
    37  C    0.473008
    38  O   -0.119448
    39  C    0.810050
    40  C   -0.289873
    41  C    0.015352
    42  S   -0.296841
    43  H    0.181391
    44  H    0.161154
    45  H    0.160710
    46  C   -0.556944
    47  O   -0.122115
    48  C   -0.377696
    49  H    0.154237
    50  C   -0.303770
    51  H    0.184006
    52  H    0.154936
    53  H    0.178338
    54  H    0.158512
 Sum of Mulliken charges =  -0.00000

 Dipole moment (field-independent basis, Debye):
    X=              1.1647    Y=             -0.1433    Z=              0.0512  Tot=              1.1746
 Quadrupole moment (field-independent basis, Debye-Ang):
   XX=           -218.4689   YY=           -224.9521   ZZ=           -200.8090
   XY=             -1.6089   XZ=             -8.1796   YZ=             13.4963

 Normal termination of Gaussian 16 at Sun Nov 29 22:22:33 2020.
