 Gaussian 16, Revision C.01,
 Gaussian 16:  ES64L-G16RevC.01  3-Jul-2019

 --------------------------------------
 # opt=modredundant wb97xd/6-311+g(d,p)
 --------------------------------------

 ------------
 NDI_-160.pdb
 ------------
 Symbolic Z-matrix:
 Charge =  0 Multiplicity = 1

 SCF Done:  E(RwB97XD) =  -2358.73475708     A.U. after   19 cycles
 SCF Done:  E(RwB97XD) =  -2358.75537883     A.U. after   21 cycles
 SCF Done:  E(RwB97XD) =  -2358.76608186     A.U. after   18 cycles
 SCF Done:  E(RwB97XD) =  -2358.76786770     A.U. after   16 cycles
 SCF Done:  E(RwB97XD) =  -2358.76867816     A.U. after   17 cycles
 SCF Done:  E(RwB97XD) =  -2358.76893326     A.U. after   17 cycles
 SCF Done:  E(RwB97XD) =  -2358.76903594     A.U. after   16 cycles
 SCF Done:  E(RwB97XD) =  -2358.76925507     A.U. after   13 cycles
 SCF Done:  E(RwB97XD) =  -2358.76956984     A.U. after   18 cycles
 SCF Done:  E(RwB97XD) =  -2358.76982466     A.U. after   14 cycles
 SCF Done:  E(RwB97XD) =  -2358.76993159     A.U. after   14 cycles
 SCF Done:  E(RwB97XD) =  -2358.76995171     A.U. after   16 cycles
 SCF Done:  E(RwB97XD) =  -2358.76998081     A.U. after   15 cycles
 SCF Done:  E(RwB97XD) =  -2358.76999704     A.U. after   13 cycles
 SCF Done:  E(RwB97XD) =  -2358.76999762     A.U. after   11 cycles
 SCF Done:  E(RwB97XD) =  -2358.76999795     A.U. after    9 cycles
 Optimization completed.
    -- Stationary point found.

                         Standard orientation:
 ---------------------------------------------------------------------
 Center     Atomic      Atomic             Coordinates (Angstroms)
 Number     Number       Type             X           Y           Z
 ---------------------------------------------------------------------
      1          6           0       -3.383849   -2.722377    0.320555
      2          6           0       -2.689195   -1.433687    0.060731
      3          6           0       -3.394466   -0.216125    0.138710
      4          6           0       -4.765612   -0.202061    0.455205
      5          6           0       -5.490248   -1.476468    0.711804
      6          6           0       -1.360414   -1.438521   -0.240582
      7          6           0       -2.702582    0.983255   -0.128774
      8          6           0       -1.311973    0.968127   -0.441014
      9          6           0       -0.616646   -0.247057   -0.488184
     10          6           0       -0.705830    2.245574   -0.909361
     11          6           0       -2.796469    3.484336   -0.399477
     12          6           0       -3.439300    2.188565   -0.075449
     13          6           0       -4.778455    2.187931    0.249500
     14          6           0       -5.450713    0.989661    0.518897
     15          1           0       -6.505033    0.981693    0.765504
     16          1           0       -5.299752    3.136787    0.281172
     17          1           0       -0.851686   -2.392872   -0.234449
     18          7           0       -1.480246    3.410206   -0.836148
     19          7           0       -4.745169   -2.656140    0.609320
     20          8           0       -2.810428   -3.788497    0.299359
     21          8           0       -6.666749   -1.498010    0.991933
     22          8           0       -3.385836    4.539485   -0.314323
     23          8           0        0.422219    2.331809   -1.337418
     24          6           0       -0.815939    4.642050   -1.260105
     25          1           0        0.064139    4.819544   -0.641650
     26          1           0       -0.495923    4.549838   -2.297782
     27          1           0       -1.525301    5.456849   -1.150864
     28          6           0       -5.415150   -3.931637    0.859281
     29          1           0       -5.302951   -4.580474   -0.009266
     30          1           0       -4.963576   -4.423994    1.720958
     31          1           0       -6.464881   -3.728033    1.048009
     32          6           0        0.834256   -0.458847   -0.615652
     33          6           0        1.404489   -1.639442   -1.044916
     34         16           0        2.023784    0.541941    0.141211
     35          6           0        2.788178   -1.710588   -0.799667
     36          1           0        0.846405   -2.417773   -1.545937
     37          6           0        3.287031   -0.611521   -0.125008
     38          8           0        3.616947   -2.726309   -1.138650
     39          6           0        4.654807   -0.382046    0.281606
     40          6           0        3.082705   -3.767025   -1.929921
     41          6           0        5.149459    0.704587    0.973344
     42         16           0        5.948372   -1.498609   -0.061263
     43          1           0        3.908991   -4.444257   -2.138229
     44          1           0        2.297753   -4.311195   -1.392923
     45          1           0        2.682445   -3.379841   -2.873374
     46          6           0        6.548195    0.643057    1.221244
     47          8           0        4.313968    1.701028    1.340594
     48          6           0        7.098360   -0.495531    0.715034
     49          1           0        7.114983    1.398352    1.746167
     50          6           0        4.857369    2.778057    2.075621
     51          1           0        8.132979   -0.800142    0.761291
     52          1           0        5.621277    3.307063    1.495726
     53          1           0        4.028426    3.453495    2.278916
     54          1           0        5.286089    2.433535    3.022873
 ---------------------------------------------------------------------

 The electronic state is 1-A.
 Alpha  occ. eigenvalues --  -89.04714 -89.04673 -19.29133 -19.28964 -19.25026
 Alpha  occ. eigenvalues --  -19.25004 -19.24357 -19.24257 -14.50585 -14.50020
 Alpha  occ. eigenvalues --  -10.42781 -10.42628 -10.42237 -10.42099 -10.35543
 Alpha  occ. eigenvalues --  -10.35477 -10.35291 -10.34620 -10.34515 -10.34259
 Alpha  occ. eigenvalues --  -10.33958 -10.33815 -10.33655 -10.33624 -10.33426
 Alpha  occ. eigenvalues --  -10.33182 -10.33056 -10.32780 -10.32553 -10.32499
 Alpha  occ. eigenvalues --  -10.32430 -10.32239 -10.31903 -10.31793 -10.30214
 Alpha  occ. eigenvalues --  -10.29737  -8.08735  -8.08676  -6.03578  -6.03528
 Alpha  occ. eigenvalues --   -6.03182  -6.03116  -6.02824  -6.02748  -1.19490
 Alpha  occ. eigenvalues --   -1.19051  -1.18884  -1.18682  -1.17580  -1.17059
 Alpha  occ. eigenvalues --   -1.06731  -1.06147  -1.03037  -1.00629  -0.99013
 Alpha  occ. eigenvalues --   -0.97052  -0.94550  -0.90555  -0.88534  -0.87366
 Alpha  occ. eigenvalues --   -0.86113  -0.85168  -0.84835  -0.82863  -0.82335
 Alpha  occ. eigenvalues --   -0.81086  -0.79827  -0.78343  -0.76754  -0.75437
 Alpha  occ. eigenvalues --   -0.75036  -0.74360  -0.70104  -0.68984  -0.67971
 Alpha  occ. eigenvalues --   -0.66559  -0.65772  -0.65122  -0.64115  -0.63681
 Alpha  occ. eigenvalues --   -0.62794  -0.60583  -0.59657  -0.59043  -0.58880
 Alpha  occ. eigenvalues --   -0.58139  -0.57629  -0.57486  -0.57252  -0.57110
 Alpha  occ. eigenvalues --   -0.56614  -0.55827  -0.55354  -0.55161  -0.54255
 Alpha  occ. eigenvalues --   -0.53899  -0.53588  -0.53479  -0.53095  -0.52346
 Alpha  occ. eigenvalues --   -0.51530  -0.51137  -0.50839  -0.50515  -0.50259
 Alpha  occ. eigenvalues --   -0.50020  -0.49568  -0.49398  -0.48815  -0.48337
 Alpha  occ. eigenvalues --   -0.47953  -0.47614  -0.46629  -0.45753  -0.45315
 Alpha  occ. eigenvalues --   -0.44535  -0.44131  -0.42407  -0.41760  -0.41440
 Alpha  occ. eigenvalues --   -0.41128  -0.40004  -0.39495  -0.38261  -0.37808
 Alpha  occ. eigenvalues --   -0.37297  -0.37141  -0.36531  -0.36313  -0.34605
 Alpha  occ. eigenvalues --   -0.33113  -0.31796  -0.31332  -0.25602
 Alpha virt. eigenvalues --   -0.07151  -0.00832   0.00560   0.02429   0.03555
 Alpha virt. eigenvalues --    0.05245   0.05749   0.06067   0.06751   0.06993
 Alpha virt. eigenvalues --    0.07103   0.07485   0.07770   0.07778   0.08054

 Mulliken charges:
               1
     1  C    0.357321
     2  C    0.009635
     3  C    0.221712
     4  C    0.225900
     5  C    0.320022
     6  C    0.029304
     7  C    0.114272
     8  C    0.136766
     9  C    0.280534
    10  C   -0.434796
    11  C    0.360120
    12  C    0.047389
    13  C   -0.558963
    14  C   -0.714285
    15  H    0.186882
    16  H    0.188563
    17  H    0.184315
    18  N   -0.042598
    19  N   -0.093107
    20  O   -0.268114
    21  O   -0.265874
    22  O   -0.277477
    23  O   -0.211527
    24  C   -0.269609
    25  H    0.196569
    26  H    0.198235
    27  H    0.200283
    28  C   -0.278409
    29  H    0.191115
    30  H    0.194467
    31  H    0.200186
    32  C    0.045323
    33  C   -0.698468
    34  S   -0.733240
    35  C   -0.215396
    36  H    0.157948
    37  C    0.755979
    38  O   -0.116965
    39  C    0.952388
    40  C   -0.301526
    41  C    0.012127
    42  S   -0.267110
    43  H    0.183910
    44  H    0.160974
    45  H    0.165164
    46  C   -0.609125
    47  O   -0.107118
    48  C   -0.347196
    49  H    0.156381
    50  C   -0.308349
    51  H    0.187299
    52  H    0.158565
    53  H    0.181110
    54  H    0.158494
 Sum of Mulliken charges =  -0.00000

 Dipole moment (field-independent basis, Debye):
    X=              2.9459    Y=             -0.3649    Z=              0.2525  Tot=              2.9791
 Quadrupole moment (field-independent basis, Debye-Ang):
   XX=           -211.9352   YY=           -214.3591   ZZ=           -215.2678
   XY=             10.3314   XZ=             10.1034   YZ=             12.4041

 Normal termination of Gaussian 16 at Sun Nov 29 23:35:58 2020.
