 Gaussian 16, Revision C.01,
 Gaussian 16:  ES64L-G16RevC.01  3-Jul-2019

 --------------------------------------
 # opt=modredundant wb97xd/6-311+g(d,p)
 --------------------------------------

 ----------
 NDI_50.pdb
 ----------
 Symbolic Z-matrix:
 Charge =  0 Multiplicity = 1

 SCF Done:  E(RwB97XD) =  -2358.76641519     A.U. after   19 cycles
 SCF Done:  E(RwB97XD) =  -2358.77228093     A.U. after   17 cycles
 SCF Done:  E(RwB97XD) =  -2358.77301127     A.U. after   16 cycles
 SCF Done:  E(RwB97XD) =  -2358.77335587     A.U. after   16 cycles
 SCF Done:  E(RwB97XD) =  -2358.77365913     A.U. after   15 cycles
 SCF Done:  E(RwB97XD) =  -2358.77373428     A.U. after   14 cycles
 SCF Done:  E(RwB97XD) =  -2358.77378682     A.U. after   13 cycles
 SCF Done:  E(RwB97XD) =  -2358.77379407     A.U. after   14 cycles
 SCF Done:  E(RwB97XD) =  -2358.77379767     A.U. after   13 cycles
 SCF Done:  E(RwB97XD) =  -2358.77379808     A.U. after   12 cycles
 SCF Done:  E(RwB97XD) =  -2358.77379854     A.U. after   10 cycles
 SCF Done:  E(RwB97XD) =  -2358.77379860     A.U. after   11 cycles
 SCF Done:  E(RwB97XD) =  -2358.77379869     A.U. after   10 cycles
 Optimization completed.
    -- Stationary point found.

                         Standard orientation:
 ---------------------------------------------------------------------
 Center     Atomic      Atomic             Coordinates (Angstroms)
 Number     Number       Type             X           Y           Z
 ---------------------------------------------------------------------
      1          6           0       -2.719446   -2.931066    0.569073
      2          6           0       -2.329198   -1.515668    0.330769
      3          6           0       -3.313598   -0.535480    0.093329
      4          6           0       -4.678035   -0.885235    0.068801
      5          6           0       -5.098579   -2.295021    0.297583
      6          6           0       -1.009569   -1.169816    0.348687
      7          6           0       -2.909319    0.797210   -0.137348
      8          6           0       -1.529602    1.151619   -0.109101
      9          6           0       -0.570228    0.169557    0.152829
     10          6           0       -1.164955    2.554525   -0.472736
     11          6           0       -3.566690    3.161781   -0.698153
     12          6           0       -3.917395    1.752195   -0.402516
     13          6           0       -5.247451    1.395001   -0.415065
     14          6           0       -5.635897    0.070629   -0.176494
     15          1           0       -6.679384   -0.218312   -0.190675
     16          1           0       -5.984101    2.161595   -0.621648
     17          1           0       -0.278841   -1.941530    0.558566
     18          7           0       -2.208456    3.450246   -0.745314
     19          7           0       -4.080881   -3.226500    0.520241
     20          8           0       -1.910263   -3.798976    0.804702
     21          8           0       -6.262959   -2.623016    0.289160
     22          8           0       -4.408783    4.008432   -0.902005
     23          8           0       -0.029096    2.961777   -0.548782
     24          6           0       -1.800602    4.812576   -1.087191
     25          1           0       -1.230555    5.246781   -0.265583
     26          1           0       -1.168239    4.795653   -1.974619
     27          1           0       -2.699594    5.392886   -1.271251
     28          6           0       -4.447343   -4.622794    0.753491
     29          1           0       -3.954864   -5.258441    0.017730
     30          1           0       -4.123618   -4.928729    1.748661
     31          1           0       -5.526458   -4.705292    0.665307
     32          6           0        0.877225    0.382338    0.292455
     33          6           0        1.544665    1.293830    1.060604
     34         16           0        1.975208   -0.716120   -0.475598
     35          6           0        2.945073    1.110757    1.026443
     36          1           0        1.044671    2.069352    1.619653
     37          6           0        3.357697    0.062142    0.228258
     38          8           0        3.866656    1.870933    1.662260
     39          6           0        4.714750   -0.355367   -0.045386
     40          6           0        3.392913    2.863999    2.548356
     41          6           0        5.119625   -1.427109   -0.812835
     42         16           0        6.109794    0.477519    0.583283
     43          1           0        4.276527    3.330340    2.980370
     44          1           0        2.806542    3.620912    2.016287
     45          1           0        2.787047    2.423084    3.347609
     46          6           0        6.531100   -1.578188   -0.895438
     47          8           0        4.192098   -2.218549   -1.399469
     48          6           0        7.181927   -0.614156   -0.186700
     49          1           0        7.036534   -2.357380   -1.447484
     50          6           0        4.652256   -3.282590   -2.206425
     51          1           0        8.248266   -0.490631   -0.073190
     52          1           0        5.240622   -3.997376   -1.620931
     53          1           0        3.762277   -3.778435   -2.589706
     54          1           0        5.251345   -2.911923   -3.045208
 ---------------------------------------------------------------------

 The electronic state is 1-A.
 Alpha  occ. eigenvalues --  -89.04823 -89.04494 -19.28940 -19.28737 -19.25066
 Alpha  occ. eigenvalues --  -19.25024 -19.24590 -19.24516 -14.50625 -14.50254
 Alpha  occ. eigenvalues --  -10.42853 -10.42640 -10.42594 -10.42337 -10.35393
 Alpha  occ. eigenvalues --  -10.35247 -10.35167 -10.34489 -10.34457 -10.34359
 Alpha  occ. eigenvalues --  -10.34269 -10.34078 -10.33840 -10.33795 -10.33658
 Alpha  occ. eigenvalues --  -10.32835 -10.32820 -10.32780 -10.32765 -10.32711
 Alpha  occ. eigenvalues --  -10.32259 -10.32247 -10.31996 -10.31633 -10.29732
 Alpha  occ. eigenvalues --  -10.29532  -8.08848  -8.08515  -6.03698  -6.03358
 Alpha  occ. eigenvalues --   -6.03302  -6.02962  -6.02919  -6.02604  -1.19542
 Alpha  occ. eigenvalues --   -1.19280  -1.18645  -1.18462  -1.17629  -1.17295
 Alpha  occ. eigenvalues --   -1.06794  -1.06331  -1.03208  -1.00517  -0.98878
 Alpha  occ. eigenvalues --   -0.97121  -0.94727  -0.90511  -0.88695  -0.87320
 Alpha  occ. eigenvalues --   -0.85928  -0.85287  -0.84640  -0.82719  -0.82236
 Alpha  occ. eigenvalues --   -0.81493  -0.79502  -0.78279  -0.76919  -0.75570
 Alpha  occ. eigenvalues --   -0.75204  -0.74274  -0.70208  -0.68796  -0.67873
 Alpha  occ. eigenvalues --   -0.66639  -0.65682  -0.65011  -0.64585  -0.63443
 Alpha  occ. eigenvalues --   -0.62521  -0.60727  -0.59768  -0.59215  -0.58860
 Alpha  occ. eigenvalues --   -0.58236  -0.57696  -0.57314  -0.57273  -0.56898
 Alpha  occ. eigenvalues --   -0.56511  -0.55911  -0.55475  -0.55196  -0.54311
 Alpha  occ. eigenvalues --   -0.54015  -0.53447  -0.53367  -0.53263  -0.52235
 Alpha  occ. eigenvalues --   -0.51601  -0.51117  -0.51049  -0.50354  -0.50335
 Alpha  occ. eigenvalues --   -0.50039  -0.49524  -0.49342  -0.48850  -0.48310
 Alpha  occ. eigenvalues --   -0.48102  -0.47456  -0.46950  -0.45710  -0.45358
 Alpha  occ. eigenvalues --   -0.44205  -0.43966  -0.42290  -0.41650  -0.41300
 Alpha  occ. eigenvalues --   -0.41109  -0.40242  -0.39685  -0.38602  -0.37714
 Alpha  occ. eigenvalues --   -0.37385  -0.37081  -0.36877  -0.36230  -0.34620
 Alpha  occ. eigenvalues --   -0.33231  -0.31579  -0.31478  -0.25523
 Alpha virt. eigenvalues --   -0.07232  -0.00424   0.00440   0.02313   0.03320
 Alpha virt. eigenvalues --    0.05169   0.05817   0.06120   0.06819   0.06972
 Alpha virt. eigenvalues --    0.07283   0.07541   0.07652   0.07830   0.07875

 Mulliken charges:
               1
     1  C    0.385185
     2  C   -0.087041
     3  C    0.148331
     4  C    0.185650
     5  C    0.344596
     6  C   -0.624281
     7  C    0.171592
     8  C    0.253032
     9  C    0.550991
    10  C   -0.384273
    11  C    0.261971
    12  C    0.141688
    13  C   -0.557703
    14  C   -0.679639
    15  H    0.187473
    16  H    0.188652
    17  H    0.211119
    18  N   -0.092501
    19  N   -0.092362
    20  O   -0.261949
    21  O   -0.267019
    22  O   -0.272781
    23  O   -0.171652
    24  C   -0.292439
    25  H    0.191090
    26  H    0.196450
    27  H    0.201124
    28  C   -0.283026
    29  H    0.192426
    30  H    0.194750
    31  H    0.200403
    32  C    0.049223
    33  C   -0.472537
    34  S   -0.583881
    35  C   -0.079131
    36  H    0.162343
    37  C    0.709956
    38  O   -0.111175
    39  C    0.806066
    40  C   -0.297597
    41  C   -0.033049
    42  S   -0.279027
    43  H    0.181698
    44  H    0.166451
    45  H    0.160562
    46  C   -0.591678
    47  O   -0.114908
    48  C   -0.344400
    49  H    0.155804
    50  C   -0.307185
    51  H    0.185984
    52  H    0.156809
    53  H    0.181135
    54  H    0.158683
 Sum of Mulliken charges =  -0.00000

 Dipole moment (field-independent basis, Debye):
    X=              2.3230    Y=             -0.3994    Z=              0.1849  Tot=              2.3643
 Quadrupole moment (field-independent basis, Debye-Ang):
   XX=           -217.1104   YY=           -213.7487   ZZ=           -211.8423
   XY=             -3.9506   XZ=             -4.9784   YZ=             15.8180

 Normal termination of Gaussian 16 at Sun Nov 29 23:44:43 2020.
