 Gaussian 16, Revision C.01,
 Gaussian 16:  ES64L-G16RevC.01  3-Jul-2019

 --------------------------------------
 # opt=modredundant wb97xd/6-311+g(d,p)
 --------------------------------------

 ----------
 NDI_25.pdb
 ----------
 Symbolic Z-matrix:
 Charge =  0 Multiplicity = 1

 SCF Done:  E(RwB97XD) =  -2358.75896088     A.U. after   19 cycles
 SCF Done:  E(RwB97XD) =  -2358.75183700     A.U. after   20 cycles
 SCF Done:  E(RwB97XD) =  -2358.76603136     A.U. after   16 cycles
 SCF Done:  E(RwB97XD) =  -2358.76960010     A.U. after   17 cycles
 SCF Done:  E(RwB97XD) =  -2358.77043132     A.U. after   18 cycles
 SCF Done:  E(RwB97XD) =  -2358.77097277     A.U. after   17 cycles
 SCF Done:  E(RwB97XD) =  -2358.77139808     A.U. after   15 cycles
 SCF Done:  E(RwB97XD) =  -2358.77173951     A.U. after   15 cycles
 SCF Done:  E(RwB97XD) =  -2358.77175807     A.U. after   16 cycles
 SCF Done:  E(RwB97XD) =  -2358.77191082     A.U. after   13 cycles
 SCF Done:  E(RwB97XD) =  -2358.77192317     A.U. after   14 cycles
 SCF Done:  E(RwB97XD) =  -2358.77193422     A.U. after   13 cycles
 SCF Done:  E(RwB97XD) =  -2358.77193535     A.U. after   11 cycles
 SCF Done:  E(RwB97XD) =  -2358.77193602     A.U. after   11 cycles
 SCF Done:  E(RwB97XD) =  -2358.77193640     A.U. after   11 cycles
 SCF Done:  E(RwB97XD) =  -2358.77193648     A.U. after   11 cycles
 Optimization completed.
    -- Stationary point found.

                         Standard orientation:
 ---------------------------------------------------------------------
 Center     Atomic      Atomic             Coordinates (Angstroms)
 Number     Number       Type             X           Y           Z
 ---------------------------------------------------------------------
      1          6           0       -2.560043   -2.993232    0.355177
      2          6           0       -2.247909   -1.547962    0.193274
      3          6           0       -3.285616   -0.598974    0.095350
      4          6           0       -4.630994   -1.008802    0.141640
      5          6           0       -4.975424   -2.448920    0.295897
      6          6           0       -0.948518   -1.145992    0.154498
      7          6           0       -2.945838    0.760299   -0.075101
      8          6           0       -1.579525    1.177293   -0.111566
      9          6           0       -0.558264    0.221339    0.023458
     10          6           0       -1.317633    2.596729   -0.490813
     11          6           0       -3.748311    3.117057   -0.444518
     12          6           0       -4.011596    1.680491   -0.204804
     13          6           0       -5.324951    1.266543   -0.141332
     14          6           0       -5.644100   -0.083798    0.034010
     15          1           0       -6.673336   -0.417364    0.074704
     16          1           0       -6.102683    2.013500   -0.242175
     17          1           0       -0.189751   -1.909489    0.275027
     18          7           0       -2.414394    3.460221   -0.617828
     19          7           0       -3.907308   -3.347411    0.374170
     20          8           0       -1.700599   -3.836129    0.478960
     21          8           0       -6.122678   -2.829153    0.347331
     22          8           0       -4.636172    3.939017   -0.511536
     23          8           0       -0.215751    3.056839   -0.692689
     24          6           0       -2.094396    4.847016   -0.954076
     25          1           0       -1.453450    5.277822   -0.184475
     26          1           0       -1.563325    4.882559   -1.905013
     27          1           0       -3.028176    5.397266   -1.018046
     28          6           0       -4.198979   -4.771618    0.530431
     29          1           0       -3.731605   -5.331696   -0.279389
     30          1           0       -3.795909   -5.130124    1.477987
     31          1           0       -5.277244   -4.897488    0.506804
     32          6           0        0.878626    0.460002    0.187703
     33          6           0        1.558549    1.539585    0.690977
     34         16           0        1.995686   -0.775204   -0.324794
     35          6           0        2.955153    1.360995    0.691464
     36          1           0        1.071127    2.425589    1.058858
     37          6           0        3.371773    0.154530    0.158725
     38          8           0        3.875086    2.254133    1.122141
     39          6           0        4.729073   -0.310632   -0.006499
     40          6           0        3.399291    3.427329    1.751215
     41          6           0        5.137980   -1.525173   -0.518507
     42         16           0        6.120614    0.639273    0.438043
     43          1           0        4.282531    3.989937    2.048039
     44          1           0        2.798793    4.029386    1.061019
     45          1           0        2.806426    3.184588    2.639822
     46          6           0        6.549451   -1.690734   -0.552775
     47          8           0        4.214695   -2.423956   -0.925295
     48          6           0        7.195326   -0.594843   -0.065246
     49          1           0        7.058258   -2.571253   -0.917549
     50          6           0        4.677190   -3.640884   -1.475351
     51          1           0        8.261072   -0.449324    0.026260
     52          1           0        5.259984   -4.209082   -0.742526
     53          1           0        3.787951   -4.207437   -1.745182
     54          1           0        5.281928   -3.464057   -2.371205
 ---------------------------------------------------------------------

 The electronic state is 1-A.
 Alpha  occ. eigenvalues --  -89.05021 -89.04832 -19.29268 -19.28947 -19.24933
 Alpha  occ. eigenvalues --  -19.24917 -19.24349 -19.24338 -14.50504 -14.50090
 Alpha  occ. eigenvalues --  -10.42710 -10.42521 -10.42479 -10.42069 -10.35676
 Alpha  occ. eigenvalues --  -10.35595 -10.35399 -10.34661 -10.34350 -10.34315
 Alpha  occ. eigenvalues --  -10.34106 -10.33775 -10.33609 -10.33579 -10.33349
 Alpha  occ. eigenvalues --  -10.33343 -10.33118 -10.32683 -10.32570 -10.32469
 Alpha  occ. eigenvalues --  -10.32401 -10.32172 -10.32014 -10.31916 -10.29899
 Alpha  occ. eigenvalues --  -10.29842  -8.09058  -8.08852  -6.03906  -6.03694
 Alpha  occ. eigenvalues --   -6.03508  -6.03298  -6.03130  -6.02941  -1.19421
 Alpha  occ. eigenvalues --   -1.19126  -1.18994  -1.18683  -1.17503  -1.17095
 Alpha  occ. eigenvalues --   -1.06669  -1.06159  -1.02981  -1.00747  -0.99099
 Alpha  occ. eigenvalues --   -0.97025  -0.94509  -0.90520  -0.88515  -0.87528
 Alpha  occ. eigenvalues --   -0.86114  -0.85159  -0.84915  -0.82851  -0.82217
 Alpha  occ. eigenvalues --   -0.81496  -0.79675  -0.78336  -0.76811  -0.75398
 Alpha  occ. eigenvalues --   -0.75134  -0.74164  -0.70275  -0.68969  -0.67943
 Alpha  occ. eigenvalues --   -0.66498  -0.65784  -0.65296  -0.64484  -0.63729
 Alpha  occ. eigenvalues --   -0.62362  -0.60604  -0.59655  -0.59159  -0.58711
 Alpha  occ. eigenvalues --   -0.58387  -0.57620  -0.57515  -0.57231  -0.57069
 Alpha  occ. eigenvalues --   -0.56675  -0.55772  -0.55391  -0.55031  -0.54475
 Alpha  occ. eigenvalues --   -0.53886  -0.53613  -0.53240  -0.53135  -0.51896
 Alpha  occ. eigenvalues --   -0.51639  -0.51102  -0.50936  -0.50480  -0.50442
 Alpha  occ. eigenvalues --   -0.50143  -0.49481  -0.49392  -0.48760  -0.48310
 Alpha  occ. eigenvalues --   -0.47883  -0.47699  -0.46966  -0.45868  -0.45325
 Alpha  occ. eigenvalues --   -0.44485  -0.44165  -0.42484  -0.41807  -0.41469
 Alpha  occ. eigenvalues --   -0.41244  -0.40035  -0.39556  -0.38506  -0.37814
 Alpha  occ. eigenvalues --   -0.37259  -0.37052  -0.36701  -0.36263  -0.34499
 Alpha  occ. eigenvalues --   -0.33125  -0.31784  -0.31675  -0.25662
 Alpha virt. eigenvalues --   -0.07174  -0.00941   0.00512   0.02515   0.03590
 Alpha virt. eigenvalues --    0.05273   0.05731   0.06109   0.06777   0.07099
 Alpha virt. eigenvalues --    0.07146   0.07474   0.07787   0.07981   0.08010

 Mulliken charges:
               1
     1  C    0.302478
     2  C   -0.006986
     3  C    0.244559
     4  C    0.212088
     5  C    0.329648
     6  C   -0.020426
     7  C    0.239760
     8  C    0.398784
     9  C    0.284075
    10  C   -0.766002
    11  C    0.261186
    12  C    0.116755
    13  C   -0.560150
    14  C   -0.691509
    15  H    0.186631
    16  H    0.188624
    17  H    0.196027
    18  N   -0.062949
    19  N   -0.088946
    20  O   -0.266974
    21  O   -0.266066
    22  O   -0.275183
    23  O   -0.223802
    24  C   -0.266761
    25  H    0.189072
    26  H    0.197634
    27  H    0.201104
    28  C   -0.282504
    29  H    0.191657
    30  H    0.194278
    31  H    0.199836
    32  C   -0.104638
    33  C   -0.454062
    34  S   -0.720480
    35  C   -0.206175
    36  H    0.170317
    37  C    0.738894
    38  O   -0.106223
    39  C    0.914640
    40  C   -0.307442
    41  C    0.032576
    42  S   -0.264398
    43  H    0.182271
    44  H    0.171068
    45  H    0.161895
    46  C   -0.637362
    47  O   -0.111419
    48  C   -0.353026
    49  H    0.157236
    50  C   -0.308379
    51  H    0.187893
    52  H    0.157976
    53  H    0.184304
    54  H    0.158597
 Sum of Mulliken charges =  -0.00000

 Dipole moment (field-independent basis, Debye):
    X=              3.2894    Y=             -0.5450    Z=              0.2125  Tot=              3.3410
 Quadrupole moment (field-independent basis, Debye-Ang):
   XX=           -215.3858   YY=           -208.4664   ZZ=           -217.4537
   XY=             -4.6284   XZ=             -1.8399   YZ=             12.3650

 Normal termination of Gaussian 16 at Mon Nov 30 02:33:04 2020.
