 Gaussian 16, Revision C.01,
 Gaussian 16:  ES64L-G16RevC.01  3-Jul-2019

 --------------------------------------
 # opt=modredundant wb97xd/6-311+g(d,p)
 --------------------------------------

 ------------
 NDI_-100.pdb
 ------------
 Symbolic Z-matrix:
 Charge =  0 Multiplicity = 1

 SCF Done:  E(RwB97XD) =  -2358.76410544     A.U. after   20 cycles
 SCF Done:  E(RwB97XD) =  -2358.77216183     A.U. after   16 cycles
 SCF Done:  E(RwB97XD) =  -2358.77303468     A.U. after   17 cycles
 SCF Done:  E(RwB97XD) =  -2358.77322616     A.U. after   16 cycles
 SCF Done:  E(RwB97XD) =  -2358.77333476     A.U. after   15 cycles
 SCF Done:  E(RwB97XD) =  -2358.77335056     A.U. after   14 cycles
 SCF Done:  E(RwB97XD) =  -2358.77335394     A.U. after   13 cycles
 SCF Done:  E(RwB97XD) =  -2358.77335624     A.U. after   12 cycles
 SCF Done:  E(RwB97XD) =  -2358.77335650     A.U. after   12 cycles
 SCF Done:  E(RwB97XD) =  -2358.77335693     A.U. after   10 cycles
 SCF Done:  E(RwB97XD) =  -2358.77335706     A.U. after   11 cycles
 SCF Done:  E(RwB97XD) =  -2358.77335714     A.U. after   10 cycles
 SCF Done:  E(RwB97XD) =  -2358.77335714     A.U. after    9 cycles
 Optimization completed.
    -- Stationary point found.

                         Standard orientation:
 ---------------------------------------------------------------------
 Center     Atomic      Atomic             Coordinates (Angstroms)
 Number     Number       Type             X           Y           Z
 ---------------------------------------------------------------------
      1          6           0        3.312019   -2.821479    0.025209
      2          6           0        2.646489   -1.493101    0.084966
      3          6           0        3.400756   -0.314557   -0.078901
      4          6           0        4.792717   -0.376339   -0.298383
      5          6           0        5.485772   -1.692558   -0.360867
      6          6           0        1.297738   -1.417358    0.308027
      7          6           0        2.749796    0.935336   -0.009213
      8          6           0        1.349311    0.998516    0.212522
      9          6           0        0.622939   -0.173837    0.370895
     10          6           0        0.704976    2.342763    0.331061
     11          6           0        2.893761    3.448528   -0.079297
     12          6           0        3.525730    2.106295   -0.162327
     13          6           0        4.881461    2.026050   -0.380782
     14          6           0        5.521532    0.778949   -0.450402
     15          1           0        6.589183    0.709252   -0.618475
     16          1           0        5.442903    2.945338   -0.493780
     17          1           0        0.728289   -2.331193    0.428644
     18          7           0        1.526301    3.466920    0.173808
     19          7           0        4.691123   -2.828471   -0.184549
     20          8           0        2.703307   -3.860001    0.143490
     21          8           0        6.677141   -1.778022   -0.552116
     22          8           0        3.532670    4.467620   -0.217388
     23          8           0       -0.472033    2.501320    0.545662
     24          6           0        0.854783    4.762016    0.282163
     25          1           0        0.077779    4.839242   -0.478407
     26          1           0        0.388893    4.854490    1.263171
     27          1           0        1.601309    5.537835    0.141720
     28          6           0        5.327563   -4.144100   -0.240614
     29          1           0        5.141904   -4.681083    0.689479
     30          1           0        4.908840   -4.721998   -1.064840
     31          1           0        6.393128   -3.995126   -0.386896
     32          6           0       -0.839730   -0.233502    0.586536
     33          6           0       -1.487459   -0.407715    1.770911
     34         16           0       -1.926046   -0.199781   -0.749439
     35          6           0       -2.897328   -0.481262    1.600726
     36          1           0       -0.975909   -0.454302    2.721885
     37          6           0       -3.310422   -0.387256    0.291779
     38          8           0       -3.811670   -0.642405    2.586976
     39          6           0       -4.667100   -0.435860   -0.213677
     40          6           0       -3.347815   -0.607236    3.919745
     41          6           0       -5.072330   -0.363348   -1.528147
     42         16           0       -6.059177   -0.588654    0.821572
     43          1           0       -4.230293   -0.700391    4.550381
     44          1           0       -2.668354   -1.441781    4.126231
     45          1           0       -2.843437    0.340447    4.138020
     46          6           0       -6.482571   -0.428236   -1.703828
     47          8           0       -4.146544   -0.237138   -2.510013
     48          6           0       -7.132906   -0.550592   -0.513689
     49          1           0       -6.987498   -0.387215   -2.658240
     50          6           0       -4.607680   -0.201088   -3.843344
     51          1           0       -8.197482   -0.622712   -0.350787
     52          1           0       -5.258837    0.663202   -4.014898
     53          1           0       -3.720913   -0.112152   -4.468633
     54          1           0       -5.142892   -1.121201   -4.102804
 ---------------------------------------------------------------------

 The electronic state is 1-A.
 Alpha  occ. eigenvalues --  -89.04277 -89.03999 -19.28427 -19.28424 -19.25289
 Alpha  occ. eigenvalues --  -19.25229 -19.24946 -19.24882 -14.50833 -14.50502
 Alpha  occ. eigenvalues --  -10.43091 -10.42859 -10.42742 -10.42727 -10.35209
 Alpha  occ. eigenvalues --  -10.34772 -10.34753 -10.34715 -10.34617 -10.34531
 Alpha  occ. eigenvalues --  -10.34182 -10.34129 -10.34124 -10.34122 -10.34110
 Alpha  occ. eigenvalues --  -10.33239 -10.33145 -10.33143 -10.32671 -10.32415
 Alpha  occ. eigenvalues --  -10.32115 -10.31904 -10.31751 -10.31078 -10.29362
 Alpha  occ. eigenvalues --  -10.29069  -8.08290  -8.08022  -6.03149  -6.02864
 Alpha  occ. eigenvalues --   -6.02749  -6.02469  -6.02348  -6.02111  -1.19749
 Alpha  occ. eigenvalues --   -1.19544  -1.18159  -1.18073  -1.17845  -1.17613
 Alpha  occ. eigenvalues --   -1.07010  -1.06624  -1.03573  -1.00132  -0.98575
 Alpha  occ. eigenvalues --   -0.97195  -0.95064  -0.90540  -0.89000  -0.87013
 Alpha  occ. eigenvalues --   -0.85637  -0.85447  -0.84147  -0.82723  -0.82215
 Alpha  occ. eigenvalues --   -0.81329  -0.79308  -0.78141  -0.77093  -0.75846
 Alpha  occ. eigenvalues --   -0.75349  -0.74461  -0.70126  -0.68620  -0.67721
 Alpha  occ. eigenvalues --   -0.66882  -0.65603  -0.64604  -0.64482  -0.63034
 Alpha  occ. eigenvalues --   -0.62882  -0.60952  -0.59975  -0.59375  -0.59113
 Alpha  occ. eigenvalues --   -0.57901  -0.57808  -0.57483  -0.56962  -0.56624
 Alpha  occ. eigenvalues --   -0.56388  -0.56154  -0.55659  -0.55397  -0.54218
 Alpha  occ. eigenvalues --   -0.53993  -0.53743  -0.53482  -0.53086  -0.52470
 Alpha  occ. eigenvalues --   -0.51730  -0.51351  -0.51236  -0.50428  -0.50049
 Alpha  occ. eigenvalues --   -0.49683  -0.49553  -0.49181  -0.48933  -0.48475
 Alpha  occ. eigenvalues --   -0.48411  -0.46921  -0.46705  -0.45894  -0.44965
 Alpha  occ. eigenvalues --   -0.44137  -0.43505  -0.41986  -0.41213  -0.41009
 Alpha  occ. eigenvalues --   -0.40767  -0.40544  -0.39815  -0.38667  -0.37616
 Alpha  occ. eigenvalues --   -0.37586  -0.37185  -0.36943  -0.35975  -0.34978
 Alpha  occ. eigenvalues --   -0.33581  -0.31387  -0.31065  -0.25275
 Alpha virt. eigenvalues --   -0.07323  -0.00050   0.00631   0.02276   0.02614
 Alpha virt. eigenvalues --    0.04950   0.05993   0.06210   0.06575   0.06875
 Alpha virt. eigenvalues --    0.07329   0.07414   0.07585   0.07621   0.08031

 Mulliken charges:
               1
     1  C    0.459646
     2  C    0.130401
     3  C    0.151654
     4  C    0.198068
     5  C    0.339866
     6  C   -0.837728
     7  C    0.153298
     8  C   -0.059267
     9  C    0.398216
    10  C   -0.158590
    11  C    0.345568
    12  C    0.216444
    13  C   -0.631070
    14  C   -0.751946
    15  H    0.188969
    16  H    0.189983
    17  H    0.197301
    18  N   -0.103099
    19  N   -0.096866
    20  O   -0.256141
    21  O   -0.267887
    22  O   -0.267739
    23  O   -0.111469
    24  C   -0.301371
    25  H    0.198957
    26  H    0.194565
    27  H    0.202015
    28  C   -0.284954
    29  H    0.192980
    30  H    0.195797
    31  H    0.200921
    32  C    0.378660
    33  C   -0.692391
    34  S   -0.143928
    35  C   -0.250150
    36  H    0.141657
    37  C    0.185744
    38  O   -0.105788
    39  C    0.976592
    40  C   -0.300482
    41  C    0.076214
    42  S   -0.284780
    43  H    0.181442
    44  H    0.156873
    45  H    0.168271
    46  C   -0.527041
    47  O   -0.127647
    48  C   -0.388350
    49  H    0.153887
    50  C   -0.299077
    51  H    0.184022
    52  H    0.156146
    53  H    0.177583
    54  H    0.156023
 Sum of Mulliken charges =  -0.00000

 Dipole moment (field-independent basis, Debye):
    X=             -0.9300    Y=              0.1446    Z=              0.0558  Tot=              0.9428
 Quadrupole moment (field-independent basis, Debye-Ang):
   XX=           -217.8873   YY=           -231.7998   ZZ=           -194.8343
   XY=             -3.5035   XZ=             10.0303   YZ=             -0.2634

 Normal termination of Gaussian 16 at Sun Nov 29 21:24:58 2020.
