 Gaussian 16, Revision C.01,
 Gaussian 16:  ES64L-G16RevC.01  3-Jul-2019

 --------------------------------------
 # opt=modredundant wb97xd/6-311+g(d,p)
 --------------------------------------

 -----------
 NDI_-60.pdb
 -----------
 Symbolic Z-matrix:
 Charge =  0 Multiplicity = 1

 SCF Done:  E(RwB97XD) =  -2358.76807822     A.U. after   20 cycles
 SCF Done:  E(RwB97XD) =  -2358.77292211     A.U. after   17 cycles
 SCF Done:  E(RwB97XD) =  -2358.77363450     A.U. after   15 cycles
 SCF Done:  E(RwB97XD) =  -2358.77387648     A.U. after   14 cycles
 SCF Done:  E(RwB97XD) =  -2358.77396521     A.U. after   17 cycles
 SCF Done:  E(RwB97XD) =  -2358.77399775     A.U. after   14 cycles
 SCF Done:  E(RwB97XD) =  -2358.77393543     A.U. after   13 cycles
 SCF Done:  E(RwB97XD) =  -2358.77393705     A.U. after   12 cycles
 SCF Done:  E(RwB97XD) =  -2358.77400436     A.U. after   14 cycles
 SCF Done:  E(RwB97XD) =  -2358.77400448     A.U. after   11 cycles
 Optimization completed.
    -- Stationary point found.

                         Standard orientation:
 ---------------------------------------------------------------------
 Center     Atomic      Atomic             Coordinates (Angstroms)
 Number     Number       Type             X           Y           Z
 ---------------------------------------------------------------------
      1          6           0        2.849060   -2.903085    0.586575
      2          6           0        2.397147   -1.507300    0.342839
      3          6           0        3.337219   -0.492827    0.072077
      4          6           0        4.715081   -0.786299    0.029071
      5          6           0        5.197505   -2.172498    0.279194
      6          6           0        1.065230   -1.208642    0.401417
      7          6           0        2.879107    0.820505   -0.166943
      8          6           0        1.489310    1.118971   -0.114218
      9          6           0        0.579448    0.110500    0.197961
     10          6           0        1.052661    2.499792   -0.485697
     11          6           0        3.422890    3.208805   -0.747516
     12          6           0        3.840329    1.814841   -0.458260
     13          6           0        5.182577    1.511179   -0.492736
     14          6           0        5.627363    0.204944   -0.246148
     15          1           0        6.681624   -0.040986   -0.273215
     16          1           0        5.885172    2.304113   -0.717858
     17          1           0        0.363946   -1.999886    0.638292
     18          7           0        2.052603    3.443083   -0.760692
     19          7           0        4.222731   -3.138844    0.541552
     20          8           0        2.077876   -3.806540    0.815271
     21          8           0        6.374122   -2.452537    0.255801
     22          8           0        4.224743    4.088222   -0.972207
     23          8           0       -0.102799    2.843377   -0.566715
     24          6           0        1.581035    4.785481   -1.099588
     25          1           0        0.947508    4.741139   -1.985323
     26          1           0        0.994335    5.190705   -0.274992
     27          1           0        2.451409    5.407474   -1.285237
     28          6           0        4.648663   -4.515967    0.788170
     29          1           0        4.300433   -4.837752    1.769596
     30          1           0        4.219080   -5.175475    0.033776
     31          1           0        5.733064   -4.545512    0.741931
     32          6           0       -0.871612    0.294375    0.363820
     33          6           0       -1.524743    1.090081    1.258515
     34         16           0       -1.970692   -0.693990   -0.530941
     35          6           0       -2.928829    0.917423    1.208200
     36          1           0       -1.013293    1.781881    1.911427
     37          6           0       -3.348833   -0.013748    0.281161
     38          8           0       -3.841784    1.570753    1.964358
     39          6           0       -4.708717   -0.390772   -0.037784
     40          6           0       -3.373503    2.614364    2.793161
     41          6           0       -5.119026   -1.351327   -0.937176
     42         16           0       -6.099424    0.358394    0.696339
     43          1           0       -4.255263    3.047272    3.262288
     44          1           0       -2.702958    2.231976    3.570821
     45          1           0       -2.857455    3.382057    2.206567
     46          6           0       -6.531432   -1.484815   -1.036712
     47          8           0       -4.195134   -2.058943   -1.629156
     48          6           0       -7.177815   -0.619367   -0.207235
     49          1           0       -7.040550   -2.183453   -1.684887
     50          6           0       -4.660446   -3.056723   -2.513453
     51          1           0       -8.243417   -0.507969   -0.075971
     52          1           0       -5.276819   -2.624357   -3.309210
     53          1           0       -3.773387   -3.510455   -2.951854
     54          1           0       -5.233106   -3.822888   -1.979554
 ---------------------------------------------------------------------

 The electronic state is 1-A.
 Alpha  occ. eigenvalues --  -89.04720 -89.04327 -19.28768 -19.28643 -19.25138
 Alpha  occ. eigenvalues --  -19.25085 -19.24743 -19.24643 -14.50690 -14.50359
 Alpha  occ. eigenvalues --  -10.42931 -10.42707 -10.42663 -10.42500 -10.35299
 Alpha  occ. eigenvalues --  -10.35056 -10.35029 -10.34568 -10.34473 -10.34343
 Alpha  occ. eigenvalues --  -10.34235 -10.34213 -10.33963 -10.33910 -10.33826
 Alpha  occ. eigenvalues --  -10.32936 -10.32931 -10.32875 -10.32759 -10.32481
 Alpha  occ. eigenvalues --  -10.32305 -10.32082 -10.32078 -10.31445 -10.29603
 Alpha  occ. eigenvalues --  -10.29376  -8.08739  -8.08349  -6.03591  -6.03193
 Alpha  occ. eigenvalues --   -6.03192  -6.02808  -6.02796  -6.02438  -1.19605
 Alpha  occ. eigenvalues --   -1.19378  -1.18471  -1.18350  -1.17696  -1.17418
 Alpha  occ. eigenvalues --   -1.06860  -1.06445  -1.03340  -1.00409  -0.98775
 Alpha  occ. eigenvalues --   -0.97170  -0.94849  -0.90523  -0.88804  -0.87219
 Alpha  occ. eigenvalues --   -0.85826  -0.85363  -0.84489  -0.82710  -0.82217
 Alpha  occ. eigenvalues --   -0.81494  -0.79423  -0.78248  -0.76989  -0.75671
 Alpha  occ. eigenvalues --   -0.75261  -0.74331  -0.70189  -0.68730  -0.67836
 Alpha  occ. eigenvalues --   -0.66727  -0.65622  -0.64891  -0.64622  -0.63303
 Alpha  occ. eigenvalues --   -0.62618  -0.60808  -0.59844  -0.59275  -0.58952
 Alpha  occ. eigenvalues --   -0.58130  -0.57757  -0.57373  -0.57162  -0.56809
 Alpha  occ. eigenvalues --   -0.56430  -0.56038  -0.55507  -0.55298  -0.54240
 Alpha  occ. eigenvalues --   -0.54044  -0.53502  -0.53450  -0.53211  -0.52361
 Alpha  occ. eigenvalues --   -0.51641  -0.51163  -0.51141  -0.50357  -0.50317
 Alpha  occ. eigenvalues --   -0.49847  -0.49578  -0.49285  -0.48919  -0.48373
 Alpha  occ. eigenvalues --   -0.48224  -0.47340  -0.46866  -0.45754  -0.45291
 Alpha  occ. eigenvalues --   -0.44174  -0.43783  -0.42232  -0.41512  -0.41195
 Alpha  occ. eigenvalues --   -0.41016  -0.40366  -0.39737  -0.38639  -0.37680
 Alpha  occ. eigenvalues --   -0.37446  -0.37088  -0.36987  -0.36188  -0.34701
 Alpha  occ. eigenvalues --   -0.33323  -0.31522  -0.31372  -0.25444
 Alpha virt. eigenvalues --   -0.07267  -0.00232   0.00461   0.02225   0.03122
 Alpha virt. eigenvalues --    0.05046   0.05872   0.06109   0.06810   0.06902
 Alpha virt. eigenvalues --    0.07329   0.07503   0.07628   0.07743   0.07816

 Mulliken charges:
               1
     1  C    0.429693
     2  C   -0.054448
     3  C    0.090022
     4  C    0.206444
     5  C    0.327369
     6  C   -0.841896
     7  C    0.177710
     8  C    0.171582
     9  C    0.544600
    10  C   -0.318080
    11  C    0.425922
    12  C    0.106280
    13  C   -0.603907
    14  C   -0.746153
    15  H    0.188123
    16  H    0.189464
    17  H    0.211098
    18  N   -0.096211
    19  N   -0.094722
    20  O   -0.259984
    21  O   -0.267133
    22  O   -0.273296
    23  O   -0.132017
    24  C   -0.279262
    25  H    0.198213
    26  H    0.192712
    27  H    0.202338
    28  C   -0.282224
    29  H    0.193517
    30  H    0.194247
    31  H    0.200882
    32  C    0.121672
    33  C   -0.223047
    34  S   -0.501761
    35  C   -0.288865
    36  H    0.152690
    37  C    0.480630
    38  O   -0.104159
    39  C    0.890200
    40  C   -0.297835
    41  C   -0.014631
    42  S   -0.270235
    43  H    0.181643
    44  H    0.156155
    45  H    0.173995
    46  C   -0.516835
    47  O   -0.114471
    48  C   -0.355649
    49  H    0.155130
    50  C   -0.305669
    51  H    0.185472
    52  H    0.157244
    53  H    0.179869
    54  H    0.157572
 Sum of Mulliken charges =  -0.00000

 Dipole moment (field-independent basis, Debye):
    X=             -1.8330    Y=             -0.1499    Z=              0.0968  Tot=              1.8416
 Quadrupole moment (field-independent basis, Debye-Ang):
   XX=           -217.5416   YY=           -215.9247   ZZ=           -209.7946
   XY=              2.7868   XZ=              6.5067   YZ=             16.0306

 Normal termination of Gaussian 16 at Mon Nov 30 05:19:44 2020.
