 Gaussian 16, Revision C.01,
 Gaussian 16:  ES64L-G16RevC.01  3-Jul-2019

 --------------------------------------
 # opt=modredundant wb97xd/6-311+g(d,p)
 --------------------------------------

 ----------
 NDI_85.pdb
 ----------
 Symbolic Z-matrix:
 Charge =  0 Multiplicity = 1

 SCF Done:  E(RwB97XD) =  -2358.76448721     A.U. after   19 cycles
 SCF Done:  E(RwB97XD) =  -2358.77176473     A.U. after   16 cycles
 SCF Done:  E(RwB97XD) =  -2358.77284284     A.U. after   15 cycles
 SCF Done:  E(RwB97XD) =  -2358.77311242     A.U. after   15 cycles
 SCF Done:  E(RwB97XD) =  -2358.77319585     A.U. after   14 cycles
 SCF Done:  E(RwB97XD) =  -2358.77323965     A.U. after   13 cycles
 SCF Done:  E(RwB97XD) =  -2358.77324672     A.U. after   13 cycles
 SCF Done:  E(RwB97XD) =  -2358.77325216     A.U. after   11 cycles
 SCF Done:  E(RwB97XD) =  -2358.77325459     A.U. after   12 cycles
 SCF Done:  E(RwB97XD) =  -2358.77325643     A.U. after   11 cycles
 SCF Done:  E(RwB97XD) =  -2358.77325736     A.U. after   11 cycles
 SCF Done:  E(RwB97XD) =  -2358.77325757     A.U. after   10 cycles
 Optimization completed.
    -- Stationary point found.

                         Standard orientation:
 ---------------------------------------------------------------------
 Center     Atomic      Atomic             Coordinates (Angstroms)
 Number     Number       Type             X           Y           Z
 ---------------------------------------------------------------------
      1          6           0       -3.187381   -2.841815    0.370486
      2          6           0       -2.580178   -1.488470    0.266209
      3          6           0       -3.389483   -0.367120   -0.002725
      4          6           0       -4.780634   -0.512027   -0.184964
      5          6           0       -5.414520   -1.856184   -0.094542
      6          6           0       -1.229610   -1.334774    0.428786
      7          6           0       -2.791682    0.907524   -0.096145
      8          6           0       -1.391183    1.053732    0.085284
      9          6           0       -0.610465   -0.063379    0.349437
     10          6           0       -0.793117    2.418735   -0.043741
     11          6           0       -3.040212    3.380389   -0.501883
     12          6           0       -3.619275    2.017842   -0.377291
     13          6           0       -4.974613    1.857356   -0.549804
     14          6           0       -5.561908    0.586491   -0.452980
     15          1           0       -6.627897    0.453240   -0.590338
     16          1           0       -5.576216    2.731892   -0.764973
     17          1           0       -0.618789   -2.205971    0.633793
     18          7           0       -1.662712    3.477794   -0.336277
     19          7           0       -4.565023   -2.933374    0.171147
     20          8           0       -2.535708   -3.829747    0.619906
     21          8           0       -6.604765   -2.011622   -0.244253
     22          8           0       -3.726316    4.349781   -0.737126
     23          8           0        0.383994    2.647724    0.092057
     24          6           0       -1.037979    4.794879   -0.458496
     25          1           0       -0.539088    5.055267    0.475057
     26          1           0       -0.293524    4.776286   -1.254348
     27          1           0       -1.818609    5.514773   -0.684956
     28          6           0       -5.143050   -4.273043    0.272198
     29          1           0       -4.669170   -4.932421   -0.454826
     30          1           0       -4.970159   -4.675610    1.270533
     31          1           0       -6.208097   -4.194550    0.075946
     32          6           0        0.852242   -0.031338    0.571874
     33          6           0        1.505526    0.215366    1.739606
     34         16           0        1.935195   -0.428273   -0.707209
     35          6           0        2.914760    0.100515    1.595783
     36          1           0        0.997330    0.489658    2.653000
     37          6           0        3.324426   -0.244388    0.328198
     38          8           0        3.834826    0.311250    2.567012
     39          6           0        4.680752   -0.435467   -0.142715
     40          6           0        3.361280    0.539407    3.877094
     41          6           0        5.082074   -0.806006   -1.407189
     42         16           0        6.077149   -0.208708    0.872968
     43          1           0        4.244480    0.632665    4.506690
     44          1           0        2.779396    1.466066    3.932783
     45          1           0        2.751347   -0.299811    4.229414
     46          6           0        6.492724   -0.906950   -1.560606
     47          8           0        4.151868   -1.038742   -2.365198
     48          6           0        7.147327   -0.609786   -0.404125
     49          1           0        6.994984   -1.184539   -2.476144
     50          6           0        4.612461   -1.378760   -3.655248
     51          1           0        8.213232   -0.607575   -0.234135
     52          1           0        5.180088   -2.315765   -3.639664
     53          1           0        3.723600   -1.507684   -4.270502
     54          1           0        5.232861   -0.580680   -4.077740
 ---------------------------------------------------------------------

 The electronic state is 1-A.
 Alpha  occ. eigenvalues --  -89.04386 -89.04005 -19.28438 -19.28423 -19.25284
 Alpha  occ. eigenvalues --  -19.25221 -19.24954 -19.24877 -14.50828 -14.50511
 Alpha  occ. eigenvalues --  -10.43087 -10.42850 -10.42765 -10.42732 -10.35224
 Alpha  occ. eigenvalues --  -10.34789 -10.34762 -10.34724 -10.34623 -10.34530
 Alpha  occ. eigenvalues --  -10.34181 -10.34134 -10.34125 -10.34119 -10.34102
 Alpha  occ. eigenvalues --  -10.33234 -10.33142 -10.33139 -10.32643 -10.32410
 Alpha  occ. eigenvalues --  -10.32127 -10.31916 -10.31763 -10.31081 -10.29309
 Alpha  occ. eigenvalues --  -10.29075  -8.08396  -8.08029  -6.03253  -6.02871
 Alpha  occ. eigenvalues --   -6.02853  -6.02476  -6.02458  -6.02118  -1.19745
 Alpha  occ. eigenvalues --   -1.19553  -1.18165  -1.18080  -1.17840  -1.17621
 Alpha  occ. eigenvalues --   -1.07007  -1.06627  -1.03572  -1.00155  -0.98582
 Alpha  occ. eigenvalues --   -0.97204  -0.95064  -0.90538  -0.89000  -0.87021
 Alpha  occ. eigenvalues --   -0.85642  -0.85458  -0.84165  -0.82735  -0.82167
 Alpha  occ. eigenvalues --   -0.81396  -0.79290  -0.78151  -0.77100  -0.75847
 Alpha  occ. eigenvalues --   -0.75362  -0.74447  -0.70146  -0.68603  -0.67726
 Alpha  occ. eigenvalues --   -0.66880  -0.65564  -0.64740  -0.64483  -0.63019
 Alpha  occ. eigenvalues --   -0.62840  -0.60953  -0.59975  -0.59382  -0.59112
 Alpha  occ. eigenvalues --   -0.57920  -0.57811  -0.57469  -0.56962  -0.56633
 Alpha  occ. eigenvalues --   -0.56406  -0.56144  -0.55655  -0.55396  -0.54213
 Alpha  occ. eigenvalues --   -0.54019  -0.53710  -0.53500  -0.53072  -0.52450
 Alpha  occ. eigenvalues --   -0.51738  -0.51330  -0.51265  -0.50437  -0.50074
 Alpha  occ. eigenvalues --   -0.49661  -0.49601  -0.49129  -0.48964  -0.48469
 Alpha  occ. eigenvalues --   -0.48422  -0.46941  -0.46775  -0.45863  -0.44974
 Alpha  occ. eigenvalues --   -0.44119  -0.43528  -0.41988  -0.41264  -0.41030
 Alpha  occ. eigenvalues --   -0.40702  -0.40549  -0.39833  -0.38719  -0.37644
 Alpha  occ. eigenvalues --   -0.37587  -0.37173  -0.37007  -0.36029  -0.34863
 Alpha  occ. eigenvalues --   -0.33585  -0.31376  -0.31113  -0.25282
 Alpha virt. eigenvalues --   -0.07322  -0.00057   0.00660   0.02331   0.02505
 Alpha virt. eigenvalues --    0.04974   0.06000   0.06220   0.06647   0.06885
 Alpha virt. eigenvalues --    0.07377   0.07423   0.07583   0.07708   0.08015

 Mulliken charges:
               1
     1  C    0.479077
     2  C    0.051452
     3  C    0.208302
     4  C    0.171322
     5  C    0.366048
     6  C   -0.733829
     7  C    0.139009
     8  C    0.012796
     9  C    0.441449
    10  C   -0.341087
    11  C    0.271569
    12  C    0.193008
    13  C   -0.592839
    14  C   -0.724962
    15  H    0.188813
    16  H    0.189565
    17  H    0.200004
    18  N   -0.110766
    19  N   -0.096822
    20  O   -0.257339
    21  O   -0.267913
    22  O   -0.268005
    23  O   -0.085551
    24  C   -0.300583
    25  H    0.194820
    26  H    0.197741
    27  H    0.202203
    28  C   -0.285421
    29  H    0.193603
    30  H    0.194900
    31  H    0.200572
    32  C    0.169791
    33  C   -0.502746
    34  S   -0.160064
    35  C   -0.091062
    36  H    0.141853
    37  C    0.280438
    38  O   -0.120510
    39  C    0.832732
    40  C   -0.289162
    41  C    0.055101
    42  S   -0.302362
    43  H    0.181329
    44  H    0.159995
    45  H    0.161605
    46  C   -0.553105
    47  O   -0.126755
    48  C   -0.394948
    49  H    0.153905
    50  C   -0.301307
    51  H    0.183578
    52  H    0.154637
    53  H    0.177857
    54  H    0.158063
 Sum of Mulliken charges =  -0.00000

 Dipole moment (field-independent basis, Debye):
    X=              0.9380    Y=             -0.0753    Z=             -0.0016  Tot=              0.9410
 Quadrupole moment (field-independent basis, Debye-Ang):
   XX=           -218.5064   YY=           -229.4030   ZZ=           -196.6217
   XY=              0.0147   XZ=             -9.2653   YZ=              8.3586

 Normal termination of Gaussian 16 at Sun Nov 29 22:09:43 2020.
