 Gaussian 16, Revision C.01,
 Gaussian 16:  ES64L-G16RevC.01  3-Jul-2019

 --------------------------------------
 # opt=modredundant wb97xd/6-311+g(d,p)
 --------------------------------------

 ----------
 NDI_90.pdb
 ----------
 Symbolic Z-matrix:
 Charge =  0 Multiplicity = 1

 SCF Done:  E(RwB97XD) =  -2358.76465060     A.U. after   19 cycles
 SCF Done:  E(RwB97XD) =  -2358.77187769     A.U. after   17 cycles
 SCF Done:  E(RwB97XD) =  -2358.77290096     A.U. after   16 cycles
 SCF Done:  E(RwB97XD) =  -2358.77312649     A.U. after   15 cycles
 SCF Done:  E(RwB97XD) =  -2358.77322872     A.U. after   14 cycles
 SCF Done:  E(RwB97XD) =  -2358.77326155     A.U. after   12 cycles
 SCF Done:  E(RwB97XD) =  -2358.77326523     A.U. after   13 cycles
 SCF Done:  E(RwB97XD) =  -2358.77327090     A.U. after   11 cycles
 SCF Done:  E(RwB97XD) =  -2358.77327184     A.U. after   11 cycles
 SCF Done:  E(RwB97XD) =  -2358.77327265     A.U. after   11 cycles
 SCF Done:  E(RwB97XD) =  -2358.77327282     A.U. after   10 cycles
 Optimization completed.
    -- Stationary point found.

                         Standard orientation:
 ---------------------------------------------------------------------
 Center     Atomic      Atomic             Coordinates (Angstroms)
 Number     Number       Type             X           Y           Z
 ---------------------------------------------------------------------
      1          6           0       -3.245035   -2.837306    0.232245
      2          6           0       -2.611396   -1.492609    0.196561
      3          6           0       -3.396390   -0.344973   -0.030040
      4          6           0       -4.787764   -0.454555   -0.234297
      5          6           0       -5.447462   -1.789171   -0.213852
      6          6           0       -1.259906   -1.372260    0.379778
      7          6           0       -2.774591    0.921334   -0.054656
      8          6           0       -1.373966    1.032042    0.147524
      9          6           0       -0.616197   -0.110997    0.361849
     10          6           0       -0.753250    2.392596    0.119184
     11          6           0       -2.973817    3.416383   -0.332274
     12          6           0       -3.578322    2.059780   -0.288505
     13          6           0       -4.933914    1.933238   -0.485016
     14          6           0       -5.545234    0.670216   -0.457967
     15          1           0       -6.611751    0.564031   -0.613587
     16          1           0       -5.516917    2.828538   -0.662846
     17          1           0       -0.666735   -2.263333    0.547672
     18          7           0       -1.599317    3.481330   -0.129879
     19          7           0       -4.621694   -2.893181    0.014015
     20          8           0       -2.614852   -3.848049    0.442558
     21          8           0       -6.638270   -1.915008   -0.385249
     22          8           0       -3.638472    4.408204   -0.532969
     23          8           0        0.423030    2.593199    0.299501
     24          6           0       -0.951746    4.792743   -0.159707
     25          1           0       -0.471319    4.989090    0.798832
     26          1           0       -0.188905    4.808599   -0.938043
     27          1           0       -1.715515    5.537739   -0.361077
     28          6           0       -5.225567   -4.224838    0.047173
     29          1           0       -4.755569   -4.859256   -0.704180
     30          1           0       -5.071707   -4.675656    1.027837
     31          1           0       -6.286609   -4.117218   -0.156735
     32          6           0        0.847041   -0.117942    0.585192
     33          6           0        1.499369   -0.029814    1.775977
     34         16           0        1.930200   -0.343168   -0.734667
     35          6           0        2.909006   -0.125282    1.618649
     36          1           0        0.990880    0.121778    2.717472
     37          6           0        3.318857   -0.300024    0.316966
     38          8           0        3.828721   -0.046758    2.609810
     39          6           0        4.675092   -0.435354   -0.173229
     40          6           0        3.354422    0.006726    3.938242
     41          6           0        5.077782   -0.625518   -1.476599
     42         16           0        6.069537   -0.371984    0.868201
     43          1           0        4.237200    0.015008    4.575222
     44          1           0        2.773449    0.918572    4.115562
     45          1           0        2.743250   -0.870921    4.176220
     46          6           0        6.487918   -0.719176   -1.639226
     47          8           0        4.149196   -0.708956   -2.460552
     48          6           0        7.140774   -0.598187   -0.450349
     49          1           0        6.991070   -0.867893   -2.583826
     50          6           0        4.611652   -0.865970   -3.784688
     51          1           0        8.205972   -0.631154   -0.279114
     52          1           0        5.170085   -1.801336   -3.901655
     53          1           0        3.724045   -0.896661   -4.414322
     54          1           0        5.241403   -0.022079   -4.087322
 ---------------------------------------------------------------------

 The electronic state is 1-A.
 Alpha  occ. eigenvalues --  -89.04343 -89.03990 -19.28420 -19.28414 -19.25293
 Alpha  occ. eigenvalues --  -19.25231 -19.24960 -19.24890 -14.50837 -14.50514
 Alpha  occ. eigenvalues --  -10.43096 -10.42861 -10.42762 -10.42740 -10.35218
 Alpha  occ. eigenvalues --  -10.34799 -10.34744 -10.34731 -10.34603 -10.34544
 Alpha  occ. eigenvalues --  -10.34192 -10.34138 -10.34125 -10.34114 -10.34113
 Alpha  occ. eigenvalues --  -10.33251 -10.33153 -10.33150 -10.32644 -10.32417
 Alpha  occ. eigenvalues --  -10.32124 -10.31887 -10.31745 -10.31063 -10.29310
 Alpha  occ. eigenvalues --  -10.29061  -8.08353  -8.08013  -6.03212  -6.02856
 Alpha  occ. eigenvalues --   -6.02811  -6.02460  -6.02414  -6.02102  -1.19754
 Alpha  occ. eigenvalues --   -1.19557  -1.18151  -1.18064  -1.17849  -1.17626
 Alpha  occ. eigenvalues --   -1.07016  -1.06633  -1.03584  -1.00137  -0.98572
 Alpha  occ. eigenvalues --   -0.97202  -0.95074  -0.90540  -0.89009  -0.87011
 Alpha  occ. eigenvalues --   -0.85636  -0.85456  -0.84146  -0.82735  -0.82180
 Alpha  occ. eigenvalues --   -0.81370  -0.79290  -0.78144  -0.77102  -0.75855
 Alpha  occ. eigenvalues --   -0.75363  -0.74457  -0.70141  -0.68602  -0.67720
 Alpha  occ. eigenvalues --   -0.66888  -0.65577  -0.64696  -0.64472  -0.63010
 Alpha  occ. eigenvalues --   -0.62863  -0.60960  -0.59982  -0.59384  -0.59120
 Alpha  occ. eigenvalues --   -0.57914  -0.57803  -0.57476  -0.56958  -0.56626
 Alpha  occ. eigenvalues --   -0.56404  -0.56145  -0.55665  -0.55398  -0.54216
 Alpha  occ. eigenvalues --   -0.54008  -0.53729  -0.53500  -0.53072  -0.52456
 Alpha  occ. eigenvalues --   -0.51743  -0.51341  -0.51263  -0.50439  -0.50063
 Alpha  occ. eigenvalues --   -0.49664  -0.49577  -0.49139  -0.48951  -0.48467
 Alpha  occ. eigenvalues --   -0.48437  -0.46951  -0.46712  -0.45878  -0.44971
 Alpha  occ. eigenvalues --   -0.44121  -0.43511  -0.41982  -0.41242  -0.41020
 Alpha  occ. eigenvalues --   -0.40681  -0.40560  -0.39832  -0.38714  -0.37640
 Alpha  occ. eigenvalues --   -0.37592  -0.37179  -0.36988  -0.36002  -0.34906
 Alpha  occ. eigenvalues --   -0.33598  -0.31374  -0.31091  -0.25272
 Alpha virt. eigenvalues --   -0.07325  -0.00052   0.00665   0.02405   0.02421
 Alpha virt. eigenvalues --    0.04970   0.06003   0.06235   0.06619   0.06887
 Alpha virt. eigenvalues --    0.07373   0.07408   0.07583   0.07702   0.08030

 Mulliken charges:
               1
     1  C    0.477084
     2  C    0.078939
     3  C    0.212160
     4  C    0.173238
     5  C    0.370261
     6  C   -0.749179
     7  C    0.138241
     8  C   -0.028964
     9  C    0.421212
    10  C   -0.313397
    11  C    0.276452
    12  C    0.204927
    13  C   -0.607345
    14  C   -0.727807
    15  H    0.188874
    16  H    0.189706
    17  H    0.198144
    18  N   -0.109241
    19  N   -0.097318
    20  O   -0.256906
    21  O   -0.267909
    22  O   -0.267505
    23  O   -0.092025
    24  C   -0.301324
    25  H    0.194849
    26  H    0.198041
    27  H    0.202144
    28  C   -0.285555
    29  H    0.193772
    30  H    0.194767
    31  H    0.200591
    32  C    0.204276
    33  C   -0.507540
    34  S   -0.109738
    35  C   -0.096476
    36  H    0.141308
    37  C    0.217328
    38  O   -0.120062
    39  C    0.837890
    40  C   -0.289760
    41  C    0.071812
    42  S   -0.304030
    43  H    0.181371
    44  H    0.159758
    45  H    0.162159
    46  C   -0.556251
    47  O   -0.128400
    48  C   -0.399943
    49  H    0.153847
    50  C   -0.300178
    51  H    0.183486
    52  H    0.154681
    53  H    0.177697
    54  H    0.157836
 Sum of Mulliken charges =  -0.00000

 Dipole moment (field-independent basis, Debye):
    X=              0.9000    Y=             -0.0423    Z=             -0.0215  Tot=              0.9012
 Quadrupole moment (field-independent basis, Debye-Ang):
   XX=           -218.3639   YY=           -230.9426   ZZ=           -195.2991
   XY=              1.0970   XZ=             -9.6993   YZ=              4.5374

 Normal termination of Gaussian 16 at Sun Nov 29 22:14:30 2020.
