 Gaussian 16, Revision C.01,
 Gaussian 16:  ES64L-G16RevC.01  3-Jul-2019

 --------------------------------------
 # opt=modredundant wb97xd/6-311+g(d,p)
 --------------------------------------

 -----------
 NDI_-25.pdb
 -----------
 Symbolic Z-matrix:
 Charge =  0 Multiplicity = 1

 SCF Done:  E(RwB97XD) =  -2358.76709870     A.U. after   20 cycles
 SCF Done:  E(RwB97XD) =  -2358.76407734     A.U. after   18 cycles
 SCF Done:  E(RwB97XD) =  -2358.77081307     A.U. after   17 cycles
 SCF Done:  E(RwB97XD) =  -2358.77185697     A.U. after   18 cycles
 SCF Done:  E(RwB97XD) =  -2358.77221097     A.U. after   16 cycles
 SCF Done:  E(RwB97XD) =  -2358.77228673     A.U. after   16 cycles
 SCF Done:  E(RwB97XD) =  -2358.77237623     A.U. after   14 cycles
 SCF Done:  E(RwB97XD) =  -2358.77239331     A.U. after   15 cycles
 SCF Done:  E(RwB97XD) =  -2358.77239437     A.U. after   13 cycles
 SCF Done:  E(RwB97XD) =  -2358.77239515     A.U. after   12 cycles
 SCF Done:  E(RwB97XD) =  -2358.77239533     A.U. after   11 cycles
 SCF Done:  E(RwB97XD) =  -2358.77239541     A.U. after   10 cycles
 Optimization completed.
    -- Stationary point found.

                         Standard orientation:
 ---------------------------------------------------------------------
 Center     Atomic      Atomic             Coordinates (Angstroms)
 Number     Number       Type             X           Y           Z
 ---------------------------------------------------------------------
      1          6           0        2.591710   -2.998707    0.306684
      2          6           0        2.264011   -1.555479    0.158647
      3          6           0        3.291869   -0.593831    0.081131
      4          6           0        4.641486   -0.987151    0.144926
      5          6           0        5.001090   -2.423313    0.301302
      6          6           0        0.960110   -1.165828    0.129899
      7          6           0        2.939034    0.763083   -0.080668
      8          6           0        1.569240    1.163996   -0.127946
      9          6           0        0.558505    0.198371    0.009330
     10          6           0        1.293566    2.578158   -0.517736
     11          6           0        3.713930    3.135209   -0.404686
     12          6           0        3.994241    1.698363   -0.184938
     13          6           0        5.311465    1.299785   -0.107309
     14          6           0        5.644299   -0.048626    0.059801
     15          1           0        6.676835   -0.369759    0.114812
     16          1           0        6.081654    2.057056   -0.186993
     17          1           0        0.208094   -1.937130    0.244082
     18          7           0        2.378076    3.462694   -0.596312
     19          7           0        3.942675   -3.334512    0.364662
     20          8           0        1.740944   -3.856174    0.380316
     21          8           0        6.152056   -2.789750    0.367729
     22          8           0        4.590737    3.970686   -0.442723
     23          8           0        0.192274    3.013679   -0.770375
     24          6           0        2.045797    4.846661   -0.931950
     25          1           0        1.549616    4.882743   -1.901598
     26          1           0        1.369346    5.258100   -0.182408
     27          1           0        2.971164    5.414110   -0.955738
     28          6           0        4.249125   -4.756365    0.514229
     29          1           0        3.786408   -5.138552    1.424152
     30          1           0        3.852226   -5.310306   -0.336782
     31          1           0        5.328559   -4.863123    0.563963
     32          6           0       -0.876523    0.432938    0.185539
     33          6           0       -1.546532    1.512607    0.700432
     34         16           0       -2.000913   -0.797093   -0.319285
     35          6           0       -2.943996    1.341887    0.707870
     36          1           0       -1.051740    2.394028    1.070651
     37          6           0       -3.369546    0.138499    0.174840
     38          8           0       -3.855239    2.229056    1.167960
     39          6           0       -4.730062   -0.319711    0.016782
     40          6           0       -3.381525    3.501701    1.562676
     41          6           0       -5.147721   -1.531381   -0.494831
     42         16           0       -6.114500    0.638648    0.465235
     43          1           0       -4.263443    4.085776    1.819302
     44          1           0       -2.730945    3.425449    2.440824
     45          1           0       -2.840901    3.990950    0.745678
     46          6           0       -6.560328   -1.687985   -0.526165
     47          8           0       -4.231028   -2.432731   -0.910786
     48          6           0       -7.198142   -0.588508   -0.036161
     49          1           0       -7.075571   -2.564995   -0.890341
     50          6           0       -4.700251   -3.675201   -1.394046
     51          1           0       -8.262713   -0.436470    0.058354
     52          1           0       -5.323746   -3.542279   -2.284649
     53          1           0       -3.814674   -4.250997   -1.656246
     54          1           0       -5.265879   -4.209920   -0.623602
 ---------------------------------------------------------------------

 The electronic state is 1-A.
 Alpha  occ. eigenvalues --  -89.05048 -89.04832 -19.29269 -19.28954 -19.24936
 Alpha  occ. eigenvalues --  -19.24916 -19.24381 -19.24358 -14.50507 -14.50107
 Alpha  occ. eigenvalues --  -10.42713 -10.42522 -10.42488 -10.42101 -10.35675
 Alpha  occ. eigenvalues --  -10.35546 -10.35421 -10.34659 -10.34332 -10.34304
 Alpha  occ. eigenvalues --  -10.34071 -10.33777 -10.33617 -10.33591 -10.33362
 Alpha  occ. eigenvalues --  -10.33349 -10.33092 -10.32700 -10.32571 -10.32488
 Alpha  occ. eigenvalues --  -10.32414 -10.32170 -10.32015 -10.31958 -10.29929
 Alpha  occ. eigenvalues --  -10.29843  -8.09083  -8.08853  -6.03931  -6.03695
 Alpha  occ. eigenvalues --   -6.03533  -6.03299  -6.03156  -6.02941  -1.19419
 Alpha  occ. eigenvalues --   -1.19133  -1.18994  -1.18686  -1.17503  -1.17112
 Alpha  occ. eigenvalues --   -1.06668  -1.06179  -1.02993  -1.00760  -0.99107
 Alpha  occ. eigenvalues --   -0.97034  -0.94520  -0.90526  -0.88525  -0.87529
 Alpha  occ. eigenvalues --   -0.86114  -0.85167  -0.84924  -0.82863  -0.82229
 Alpha  occ. eigenvalues --   -0.81495  -0.79680  -0.78347  -0.76818  -0.75406
 Alpha  occ. eigenvalues --   -0.75138  -0.74168  -0.70286  -0.68974  -0.67944
 Alpha  occ. eigenvalues --   -0.66509  -0.65784  -0.65296  -0.64491  -0.63745
 Alpha  occ. eigenvalues --   -0.62366  -0.60614  -0.59672  -0.59168  -0.58715
 Alpha  occ. eigenvalues --   -0.58365  -0.57642  -0.57511  -0.57243  -0.57065
 Alpha  occ. eigenvalues --   -0.56677  -0.55760  -0.55402  -0.55057  -0.54460
 Alpha  occ. eigenvalues --   -0.53886  -0.53618  -0.53262  -0.53158  -0.51927
 Alpha  occ. eigenvalues --   -0.51650  -0.51084  -0.50942  -0.50596  -0.50370
 Alpha  occ. eigenvalues --   -0.50132  -0.49487  -0.49395  -0.48781  -0.48341
 Alpha  occ. eigenvalues --   -0.47903  -0.47734  -0.46917  -0.45862  -0.45437
 Alpha  occ. eigenvalues --   -0.44450  -0.44183  -0.42498  -0.41877  -0.41383
 Alpha  occ. eigenvalues --   -0.41278  -0.40046  -0.39558  -0.38507  -0.37799
 Alpha  occ. eigenvalues --   -0.37264  -0.37055  -0.36738  -0.36281  -0.34510
 Alpha  occ. eigenvalues --   -0.33120  -0.31791  -0.31673  -0.25663
 Alpha virt. eigenvalues --   -0.07188  -0.00955   0.00517   0.02505   0.03582
 Alpha virt. eigenvalues --    0.05260   0.05727   0.06094   0.06766   0.07090
 Alpha virt. eigenvalues --    0.07178   0.07448   0.07797   0.07979   0.08019

 Mulliken charges:
               1
     1  C    0.309807
     2  C   -0.048464
     3  C    0.211950
     4  C    0.210236
     5  C    0.331018
     6  C   -0.091021
     7  C    0.224642
     8  C    0.439380
     9  C    0.314039
    10  C   -0.780878
    11  C    0.260791
    12  C    0.102230
    13  C   -0.550856
    14  C   -0.675846
    15  H    0.186672
    16  H    0.188345
    17  H    0.195688
    18  N   -0.045460
    19  N   -0.089195
    20  O   -0.267877
    21  O   -0.265538
    22  O   -0.275203
    23  O   -0.223709
    24  C   -0.266239
    25  H    0.197986
    26  H    0.188457
    27  H    0.201161
    28  C   -0.283036
    29  H    0.192805
    30  H    0.193126
    31  H    0.199602
    32  C   -0.014930
    33  C   -0.439874
    34  S   -0.719514
    35  C   -0.162893
    36  H    0.164071
    37  C    0.698445
    38  O   -0.107175
    39  C    0.906945
    40  C   -0.312242
    41  C    0.023851
    42  S   -0.269285
    43  H    0.182155
    44  H    0.157114
    45  H    0.179157
    46  C   -0.651029
    47  O   -0.110302
    48  C   -0.347316
    49  H    0.157268
    50  C   -0.307890
    51  H    0.187883
    52  H    0.156963
    53  H    0.184386
    54  H    0.159598
 Sum of Mulliken charges =  -0.00000

 Dipole moment (field-independent basis, Debye):
    X=             -3.2840    Y=             -0.4504    Z=              0.1315  Tot=              3.3174
 Quadrupole moment (field-independent basis, Debye-Ang):
   XX=           -214.9815   YY=           -207.5255   ZZ=           -218.6927
   XY=              4.3386   XZ=              2.1714   YZ=             10.9884

 Normal termination of Gaussian 16 at Sun Nov 29 21:38:45 2020.
