 Gaussian 16, Revision C.01,
 Gaussian 16:  ES64L-G16RevC.01  3-Jul-2019

 --------------------------------------
 # opt=modredundant wb97xd/6-311+g(d,p)
 --------------------------------------

 -----------
 NDI_140.pdb
 -----------
 Symbolic Z-matrix:
 Charge =  0 Multiplicity = 1

 SCF Done:  E(RwB97XD) =  -2358.75530836     A.U. after   20 cycles
 SCF Done:  E(RwB97XD) =  -2358.75791179     A.U. after   23 cycles
 SCF Done:  E(RwB97XD) =  -2358.76542027     A.U. after   16 cycles
 SCF Done:  E(RwB97XD) =  -2358.77122841     A.U. after   16 cycles
 SCF Done:  E(RwB97XD) =  -2358.77242615     A.U. after   16 cycles
 SCF Done:  E(RwB97XD) =  -2358.77252525     A.U. after   16 cycles
 SCF Done:  E(RwB97XD) =  -2358.77264574     A.U. after   14 cycles
 SCF Done:  E(RwB97XD) =  -2358.77266309     A.U. after   14 cycles
 SCF Done:  E(RwB97XD) =  -2358.77267092     A.U. after   12 cycles
 SCF Done:  E(RwB97XD) =  -2358.77267241     A.U. after   12 cycles
 SCF Done:  E(RwB97XD) =  -2358.77267287     A.U. after   11 cycles
 SCF Done:  E(RwB97XD) =  -2358.77267304     A.U. after   11 cycles
 SCF Done:  E(RwB97XD) =  -2358.77267308     A.U. after   10 cycles
 SCF Done:  E(RwB97XD) =  -2358.77267310     A.U. after    9 cycles
 Optimization completed.
    -- Stationary point found.

                         Standard orientation:
 ---------------------------------------------------------------------
 Center     Atomic      Atomic             Coordinates (Angstroms)
 Number     Number       Type             X           Y           Z
 ---------------------------------------------------------------------
      1          6           0        3.394247   -2.730541    0.400613
      2          6           0        2.689482   -1.454655    0.107671
      3          6           0        3.390190   -0.231974    0.142222
      4          6           0        4.762840   -0.199970    0.457425
      5          6           0        5.491287   -1.460125    0.768877
      6          6           0        1.352700   -1.470308   -0.172578
      7          6           0        2.700287    0.959487   -0.165265
      8          6           0        1.311860    0.930181   -0.469538
      9          6           0        0.623538   -0.282023   -0.446992
     10          6           0        0.689118    2.180991   -0.995205
     11          6           0        2.769967    3.451111   -0.515503
     12          6           0        3.428929    2.170222   -0.156530
     13          6           0        4.767740    2.184901    0.164344
     14          6           0        5.442158    0.995927    0.475694
     15          1           0        6.496341    1.000164    0.723446
     16          1           0        5.288076    3.134834    0.164369
     17          1           0        0.827150   -2.417004   -0.146546
     18          7           0        1.449866    3.356509   -0.940077
     19          7           0        4.750134   -2.644796    0.712500
     20          8           0        2.834670   -3.803490    0.379348
     21          8           0        6.666928   -1.465227    1.053417
     22          8           0        3.352819    4.511683   -0.465466
     23          8           0       -0.427827    2.230451   -1.452429
     24          6           0        0.777393    4.569555   -1.404045
     25          1           0        0.473637    4.448341   -2.443747
     26          1           0       -0.114394    4.748923   -0.803218
     27          1           0        1.473882    5.396501   -1.304201
     28          6           0        5.425600   -3.908243    1.005856
     29          1           0        4.935108   -4.400822    1.845420
     30          1           0        5.371706   -4.565370    0.137604
     31          1           0        6.460651   -3.686933    1.248136
     32          6           0       -0.830555   -0.459263   -0.577591
     33          6           0       -1.448182   -1.454973   -1.287907
     34         16           0       -1.953875    0.395221    0.413828
     35          6           0       -2.845106   -1.491864   -1.067498
     36          1           0       -0.915564   -2.115500   -1.958324
     37          6           0       -3.289239   -0.560508   -0.151034
     38          8           0       -3.730145   -2.326696   -1.661549
     39          6           0       -4.645750   -0.358256    0.309214
     40          6           0       -3.210156   -3.348618   -2.485758
     41          6           0       -5.084411    0.563404    1.236011
     42         16           0       -5.994327   -1.298177   -0.268006
     43          1           0       -4.065906   -3.929911   -2.824368
     44          1           0       -2.691215   -2.930544   -3.355432
     45          1           0       -2.527521   -3.998698   -1.927336
     46          6           0       -6.485109    0.518073    1.477897
     47          8           0       -4.196449    1.400489    1.820781
     48          6           0       -7.093553   -0.443602    0.729674
     49          1           0       -7.012978    1.160731    2.167609
     50          6           0       -4.696325    2.351834    2.736809
     51          1           0       -8.142880   -0.696325    0.713429
     52          1           0       -5.168740    1.863766    3.596274
     53          1           0       -3.836019    2.925476    3.077049
     54          1           0       -5.413774    3.025430    2.255739
 ---------------------------------------------------------------------

 The electronic state is 1-A.
 Alpha  occ. eigenvalues --  -89.04555 -89.04452 -19.28893 -19.28802 -19.25120
 Alpha  occ. eigenvalues --  -19.25109 -19.24578 -19.24446 -14.50687 -14.50162
 Alpha  occ. eigenvalues --  -10.42907 -10.42727 -10.42392 -10.42343 -10.35238
 Alpha  occ. eigenvalues --  -10.35192 -10.35165 -10.34467 -10.34424 -10.34397
 Alpha  occ. eigenvalues --  -10.34212 -10.34118 -10.33869 -10.33854 -10.33704
 Alpha  occ. eigenvalues --  -10.32979 -10.32963 -10.32835 -10.32771 -10.32677
 Alpha  occ. eigenvalues --  -10.32311 -10.32193 -10.31887 -10.31586 -10.29940
 Alpha  occ. eigenvalues --  -10.29493  -8.08575  -8.08474  -6.03431  -6.03317
 Alpha  occ. eigenvalues --   -6.03028  -6.02921  -6.02636  -6.02563  -1.19593
 Alpha  occ. eigenvalues --   -1.19186  -1.18617  -1.18507  -1.17687  -1.17233
 Alpha  occ. eigenvalues --   -1.06839  -1.06299  -1.03259  -1.00478  -0.98860
 Alpha  occ. eigenvalues --   -0.97150  -0.94756  -0.90562  -0.88720  -0.87260
 Alpha  occ. eigenvalues --   -0.85946  -0.85276  -0.84606  -0.82714  -0.82414
 Alpha  occ. eigenvalues --   -0.81165  -0.79665  -0.78292  -0.76875  -0.75580
 Alpha  occ. eigenvalues --   -0.75142  -0.74403  -0.70103  -0.68871  -0.67890
 Alpha  occ. eigenvalues --   -0.66677  -0.65760  -0.64912  -0.64204  -0.63487
 Alpha  occ. eigenvalues --   -0.62860  -0.60732  -0.59775  -0.59129  -0.58927
 Alpha  occ. eigenvalues --   -0.58140  -0.57710  -0.57351  -0.57294  -0.56950
 Alpha  occ. eigenvalues --   -0.56475  -0.55994  -0.55413  -0.55308  -0.54217
 Alpha  occ. eigenvalues --   -0.53870  -0.53719  -0.53398  -0.53211  -0.52489
 Alpha  occ. eigenvalues --   -0.51604  -0.51183  -0.50952  -0.50361  -0.50130
 Alpha  occ. eigenvalues --   -0.50022  -0.49525  -0.49453  -0.48861  -0.48376
 Alpha  occ. eigenvalues --   -0.48106  -0.47408  -0.46586  -0.45857  -0.45425
 Alpha  occ. eigenvalues --   -0.44342  -0.43919  -0.42298  -0.41663  -0.41205
 Alpha  occ. eigenvalues --   -0.41010  -0.40238  -0.39630  -0.38429  -0.37642
 Alpha  occ. eigenvalues --   -0.37404  -0.37108  -0.36720  -0.36236  -0.34827
 Alpha  occ. eigenvalues --   -0.33231  -0.31693  -0.31282  -0.25500
 Alpha virt. eigenvalues --   -0.07225  -0.00407   0.00458   0.02266   0.03371
 Alpha virt. eigenvalues --    0.05192   0.05819   0.06105   0.06719   0.06869
 Alpha virt. eigenvalues --    0.07132   0.07554   0.07645   0.07739   0.07915

 Mulliken charges:
               1
     1  C    0.389258
     2  C   -0.031511
     3  C    0.167691
     4  C    0.229659
     5  C    0.312284
     6  C   -0.342501
     7  C    0.153962
     8  C    0.012500
     9  C    0.275144
    10  C   -0.377716
    11  C    0.330392
    12  C    0.081521
    13  C   -0.531156
    14  C   -0.692941
    15  H    0.187729
    16  H    0.188734
    17  H    0.194580
    18  N   -0.034222
    19  N   -0.093506
    20  O   -0.263999
    21  O   -0.267749
    22  O   -0.275297
    23  O   -0.202656
    24  C   -0.264043
    25  H    0.197706
    26  H    0.197732
    27  H    0.200492
    28  C   -0.278745
    29  H    0.193659
    30  H    0.192818
    31  H    0.200476
    32  C    0.267554
    33  C   -0.646258
    34  S   -0.613125
    35  C   -0.000011
    36  H    0.160177
    37  C    0.576907
    38  O   -0.115920
    39  C    0.924126
    40  C   -0.295979
    41  C    0.042191
    42  S   -0.283629
    43  H    0.182942
    44  H    0.158348
    45  H    0.167575
    46  C   -0.634095
    47  O   -0.117738
    48  C   -0.353528
    49  H    0.155447
    50  C   -0.305505
    51  H    0.185787
    52  H    0.155993
    53  H    0.179633
    54  H    0.158810
 Sum of Mulliken charges =  -0.00000

 Dipole moment (field-independent basis, Debye):
    X=             -2.1438    Y=             -0.3243    Z=              0.3885  Tot=              2.2027
 Quadrupole moment (field-independent basis, Debye-Ang):
   XX=           -214.2729   YY=           -218.0470   ZZ=           -210.5364
   XY=             -8.2150   XZ=            -10.9520   YZ=             13.6537

 Normal termination of Gaussian 16 at Mon Nov 30 00:18:27 2020.
