 Gaussian 16, Revision C.01,
 Gaussian 16:  ES64L-G16RevC.01  3-Jul-2019

 --------------------------------------
 # opt=modredundant wb97xd/6-311+g(d,p)
 --------------------------------------

 ----------
 NDI_10.pdb
 ----------
 Symbolic Z-matrix:
 Charge =  0 Multiplicity = 1

 SCF Done:  E(RwB97XD) =  -2358.75053083     A.U. after   19 cycles
 SCF Done:  E(RwB97XD) =  -2358.74778458     A.U. after   20 cycles
 SCF Done:  E(RwB97XD) =  -2358.76568747     A.U. after   17 cycles
 SCF Done:  E(RwB97XD) =  -2358.76737430     A.U. after   17 cycles
 SCF Done:  E(RwB97XD) =  -2358.76786814     A.U. after   16 cycles
 SCF Done:  E(RwB97XD) =  -2358.76805909     A.U. after   15 cycles
 SCF Done:  E(RwB97XD) =  -2358.76817915     A.U. after   15 cycles
 SCF Done:  E(RwB97XD) =  -2358.76827076     A.U. after   15 cycles
 SCF Done:  E(RwB97XD) =  -2358.76845800     A.U. after   14 cycles
 SCF Done:  E(RwB97XD) =  -2358.76866079     A.U. after   17 cycles
 SCF Done:  E(RwB97XD) =  -2358.76879356     A.U. after   15 cycles
 SCF Done:  E(RwB97XD) =  -2358.76895532     A.U. after   16 cycles
 SCF Done:  E(RwB97XD) =  -2358.76914891     A.U. after   14 cycles
 SCF Done:  E(RwB97XD) =  -2358.76930743     A.U. after   14 cycles
 SCF Done:  E(RwB97XD) =  -2358.76933646     A.U. after   14 cycles
 SCF Done:  E(RwB97XD) =  -2358.76934292     A.U. after   14 cycles
 SCF Done:  E(RwB97XD) =  -2358.76934859     A.U. after   13 cycles
 SCF Done:  E(RwB97XD) =  -2358.76934923     A.U. after   11 cycles
 SCF Done:  E(RwB97XD) =  -2358.76934949     A.U. after   10 cycles
 Optimization completed.
    -- Stationary point found.

                         Standard orientation:
 ---------------------------------------------------------------------
 Center     Atomic      Atomic             Coordinates (Angstroms)
 Number     Number       Type             X           Y           Z
 ---------------------------------------------------------------------
      1          6           0       -2.421922   -3.020857    0.173908
      2          6           0       -2.178187   -1.556425    0.082145
      3          6           0       -3.256151   -0.648978    0.085181
      4          6           0       -4.578857   -1.118540    0.171284
      5          6           0       -4.856585   -2.578460    0.259784
      6          6           0       -0.900984   -1.099412    0.009292
      7          6           0       -2.974214    0.728760   -0.029534
      8          6           0       -1.625823    1.205716   -0.104096
      9          6           0       -0.555280    0.287346   -0.062975
     10          6           0       -1.454133    2.646929   -0.441926
     11          6           0       -3.894901    3.062154   -0.235334
     12          6           0       -4.082996    1.606404   -0.058307
     13          6           0       -5.374891    1.134699    0.047147
     14          6           0       -5.633173   -0.233711    0.163399
     15          1           0       -6.645107   -0.611918    0.234521
     16          1           0       -6.184221    1.854076    0.025103
     17          1           0       -0.121697   -1.849757    0.050286
     18          7           0       -2.588661    3.468389   -0.466502
     19          7           0       -3.750637   -3.433710    0.234590
     20          8           0       -1.523318   -3.830930    0.210515
     21          8           0       -5.983481   -3.010068    0.344279
     22          8           0       -4.816964    3.848289   -0.210053
     23          8           0       -0.387798    3.168379   -0.689093
     24          6           0       -2.345136    4.881128   -0.755203
     25          1           0       -1.678119    5.304694   -0.003966
     26          1           0       -1.873893    4.982384   -1.732533
     27          1           0       -3.303223    5.391826   -0.738696
     28          6           0       -3.976068   -4.875659    0.322402
     29          1           0       -3.525652   -5.369135   -0.538734
     30          1           0       -3.513315   -5.268081    1.228363
     31          1           0       -5.047952   -5.047807    0.341066
     32          6           0        0.880192    0.550163    0.094867
     33          6           0        1.582022    1.688138    0.419613
     34         16           0        1.998824   -0.754627   -0.235933
     35          6           0        2.975086    1.499258    0.445793
     36          1           0        1.111106    2.627235    0.642307
     37          6           0        3.381360    0.223063    0.100914
     38          8           0        3.902394    2.439231    0.737807
     39          6           0        4.733211   -0.275595    0.016434
     40          6           0        3.436760    3.698154    1.183375
     41          6           0        5.130892   -1.554845   -0.317361
     42         16           0        6.132531    0.710533    0.342406
     43          1           0        4.325261    4.291290    1.391875
     44          1           0        2.839404    4.194381    0.411371
     45          1           0        2.843018    3.596252    2.098158
     46          6           0        6.540147   -1.739991   -0.310649
     47          8           0        4.200460   -2.489540   -0.606157
     48          6           0        7.195085   -0.594483    0.028712
     49          1           0        7.041337   -2.668228   -0.543790
     50          6           0        4.650410   -3.777274   -0.977344
     51          1           0        8.261772   -0.450317    0.111391
     52          1           0        5.216725   -4.246227   -0.165713
     53          1           0        3.755354   -4.363168   -1.177383
     54          1           0        5.267100   -3.733727   -1.881324
 ---------------------------------------------------------------------

 The electronic state is 1-A.
 Alpha  occ. eigenvalues --  -89.05063 -89.04994 -19.29412 -19.29007 -19.24889
 Alpha  occ. eigenvalues --  -19.24885 -19.24327 -19.24239 -14.50468 -14.50037
 Alpha  occ. eigenvalues --  -10.42659 -10.42485 -10.42470 -10.41941 -10.35888
 Alpha  occ. eigenvalues --  -10.35839 -10.35446 -10.34739 -10.34335 -10.34257
 Alpha  occ. eigenvalues --  -10.34070 -10.33632 -10.33578 -10.33507 -10.33466
 Alpha  occ. eigenvalues --  -10.33399 -10.33219 -10.32718 -10.32639 -10.32336
 Alpha  occ. eigenvalues --  -10.32261 -10.32205 -10.32153 -10.31883 -10.29990
 Alpha  occ. eigenvalues --  -10.29813  -8.09109  -8.09013  -6.03959  -6.03855
 Alpha  occ. eigenvalues --   -6.03556  -6.03459  -6.03179  -6.03102  -1.19381
 Alpha  occ. eigenvalues --   -1.19154  -1.19105  -1.18739  -1.17461  -1.17033
 Alpha  occ. eigenvalues --   -1.06630  -1.06112  -1.02886  -1.00835  -0.99191
 Alpha  occ. eigenvalues --   -0.96975  -0.94418  -0.90531  -0.88448  -0.87622
 Alpha  occ. eigenvalues --   -0.86185  -0.85124  -0.84994  -0.82931  -0.82195
 Alpha  occ. eigenvalues --   -0.81498  -0.79745  -0.78346  -0.76795  -0.75333
 Alpha  occ. eigenvalues --   -0.75136  -0.74114  -0.70317  -0.69048  -0.67996
 Alpha  occ. eigenvalues --   -0.66448  -0.65803  -0.65432  -0.64472  -0.63822
 Alpha  occ. eigenvalues --   -0.62283  -0.60563  -0.59623  -0.59179  -0.58713
 Alpha  occ. eigenvalues --   -0.58448  -0.57635  -0.57572  -0.57209  -0.57103
 Alpha  occ. eigenvalues --   -0.56743  -0.55844  -0.55305  -0.54962  -0.54551
 Alpha  occ. eigenvalues --   -0.53796  -0.53708  -0.53230  -0.53056  -0.51746
 Alpha  occ. eigenvalues --   -0.51611  -0.51133  -0.50931  -0.50538  -0.50469
 Alpha  occ. eigenvalues --   -0.50142  -0.49490  -0.49387  -0.48748  -0.48315
 Alpha  occ. eigenvalues --   -0.47805  -0.47782  -0.46869  -0.45952  -0.45221
 Alpha  occ. eigenvalues --   -0.44724  -0.44187  -0.42574  -0.41872  -0.41558
 Alpha  occ. eigenvalues --   -0.41078  -0.39966  -0.39485  -0.38442  -0.37913
 Alpha  occ. eigenvalues --   -0.37204  -0.37060  -0.36619  -0.36247  -0.34489
 Alpha  occ. eigenvalues --   -0.33137  -0.31905  -0.31778  -0.25738
 Alpha virt. eigenvalues --   -0.07135  -0.01240   0.00550   0.02605   0.03705
 Alpha virt. eigenvalues --    0.05309   0.05715   0.06131   0.06779   0.07047
 Alpha virt. eigenvalues --    0.07139   0.07392   0.07852   0.08071   0.08141

 Mulliken charges:
               1
     1  C    0.313775
     2  C    0.050528
     3  C    0.247095
     4  C    0.270520
     5  C    0.320799
     6  C    0.198175
     7  C    0.252359
     8  C    0.268660
     9  C    0.194328
    10  C   -0.866345
    11  C    0.246452
    12  C    0.135124
    13  C   -0.570909
    14  C   -0.679950
    15  H    0.186324
    16  H    0.188814
    17  H    0.186981
    18  N   -0.063569
    19  N   -0.090171
    20  O   -0.269383
    21  O   -0.264860
    22  O   -0.276287
    23  O   -0.250777
    24  C   -0.255889
    25  H    0.189046
    26  H    0.198546
    27  H    0.201538
    28  C   -0.281177
    29  H    0.191167
    30  H    0.194087
    31  H    0.199486
    32  C   -0.126054
    33  C   -0.081807
    34  S   -0.715845
    35  C   -0.583716
    36  H    0.177632
    37  C    0.579536
    38  O   -0.106111
    39  C    1.019204
    40  C   -0.314781
    41  C    0.069931
    42  S   -0.252086
    43  H    0.182683
    44  H    0.172392
    45  H    0.161966
    46  C   -0.601976
    47  O   -0.108261
    48  C   -0.377248
    49  H    0.157790
    50  C   -0.310086
    51  H    0.188938
    52  H    0.158288
    53  H    0.186527
    54  H    0.158595
 Sum of Mulliken charges =  -0.00000

 Dipole moment (field-independent basis, Debye):
    X=              3.7200    Y=             -0.6301    Z=              0.1956  Tot=              3.7781
 Quadrupole moment (field-independent basis, Debye-Ang):
   XX=           -214.6880   YY=           -205.6338   ZZ=           -220.3108
   XY=             -5.0071   XZ=              0.3868   YZ=              8.6817

 Normal termination of Gaussian 16 at Mon Nov 30 00:58:06 2020.
