 Gaussian 16, Revision C.01,
 Gaussian 16:  ES64L-G16RevC.01  3-Jul-2019

 --------------------------------------
 # opt=modredundant wb97xd/6-311+g(d,p)
 --------------------------------------

 ---------
 NDI_5.pdb
 ---------
 Symbolic Z-matrix:
 Charge =  0 Multiplicity = 1

 SCF Done:  E(RwB97XD) =  -2358.75013094     A.U. after   19 cycles
 SCF Done:  E(RwB97XD) =  -2358.74668479     A.U. after   20 cycles
 SCF Done:  E(RwB97XD) =  -2358.76520901     A.U. after   17 cycles
 SCF Done:  E(RwB97XD) =  -2358.76724820     A.U. after   17 cycles
 SCF Done:  E(RwB97XD) =  -2358.76737650     A.U. after   14 cycles
 SCF Done:  E(RwB97XD) =  -2358.76758174     A.U. after   13 cycles
 SCF Done:  E(RwB97XD) =  -2358.76761693     A.U. after   13 cycles
 SCF Done:  E(RwB97XD) =  -2358.76763024     A.U. after   12 cycles
 SCF Done:  E(RwB97XD) =  -2358.76763683     A.U. after   13 cycles
 SCF Done:  E(RwB97XD) =  -2358.76764043     A.U. after   12 cycles
 SCF Done:  E(RwB97XD) =  -2358.76764363     A.U. after   12 cycles
 SCF Done:  E(RwB97XD) =  -2358.76764691     A.U. after   12 cycles
 SCF Done:  E(RwB97XD) =  -2358.76764788     A.U. after   11 cycles
 SCF Done:  E(RwB97XD) =  -2358.76764887     A.U. after   12 cycles
 SCF Done:  E(RwB97XD) =  -2358.76764926     A.U. after   11 cycles
 SCF Done:  E(RwB97XD) =  -2358.76764930     A.U. after    9 cycles
 Optimization completed.
    -- Stationary point found.

                         Standard orientation:
 ---------------------------------------------------------------------
 Center     Atomic      Atomic             Coordinates (Angstroms)
 Number     Number       Type             X           Y           Z
 ---------------------------------------------------------------------
      1          6           0       -2.280566   -3.017270    0.255431
      2          6           0       -2.104084   -1.542357    0.177830
      3          6           0       -3.210919   -0.696212   -0.026876
      4          6           0       -4.497098   -1.239760   -0.187803
      5          6           0       -4.703272   -2.713606   -0.151406
      6          6           0       -0.859200   -1.018026    0.302358
      7          6           0       -2.992615    0.697493   -0.033016
      8          6           0       -1.673954    1.247963    0.108716
      9          6           0       -0.559133    0.381331    0.220171
     10          6           0       -1.603519    2.724568    0.270348
     11          6           0       -4.030003    2.986535   -0.186351
     12          6           0       -4.135699    1.513424   -0.205325
     13          6           0       -5.391513    0.968418   -0.379351
     14          6           0       -5.583308   -0.414612   -0.372232
     15          1           0       -6.566703   -0.849033   -0.499657
     16          1           0       -6.225734    1.645741   -0.514234
     17          1           0       -0.066392   -1.735790    0.465439
     18          7           0       -2.766055    3.483751    0.090708
     19          7           0       -3.573027   -3.503912    0.079584
     20          8           0       -1.357634   -3.776057    0.449881
     21          8           0       -5.795762   -3.209312   -0.306397
     22          8           0       -4.980393    3.714773   -0.374943
     23          8           0       -0.590535    3.338150    0.536037
     24          6           0       -2.605895    4.932426    0.212915
     25          1           0       -2.228926    5.180685    1.204783
     26          1           0       -1.892223    5.290951   -0.529028
     27          1           0       -3.578709    5.386508    0.050702
     28          6           0       -3.731961   -4.956044    0.138691
     29          1           0       -3.109015   -5.425193   -0.622935
     30          1           0       -3.419480   -5.321518    1.117145
     31          1           0       -4.779175   -5.185675   -0.033685
     32          6           0        0.884835    0.668188    0.172926
     33          6           0        1.625519    1.830129    0.098569
     34         16           0        1.977549   -0.706935    0.101924
     35          6           0        3.011037    1.616347   -0.003504
     36          1           0        1.177615    2.803504    0.136689
     37          6           0        3.383268    0.286083   -0.012671
     38          8           0        3.958907    2.577024   -0.093891
     39          6           0        4.718438   -0.254488   -0.097845
     40          6           0        3.542115    3.921072    0.054165
     41          6           0        5.081055   -1.587002   -0.095145
     42         16           0        6.141892    0.743873   -0.217678
     43          1           0        4.447722    4.523253    0.009211
     44          1           0        2.867514    4.217134   -0.755898
     45          1           0        3.044806    4.075850    1.017098
     46          6           0        6.482998   -1.802103   -0.187423
     47          8           0        4.128119   -2.538179   -0.005112
     48          6           0        7.167178   -0.626047   -0.260176
     49          1           0        6.958434   -2.772140   -0.199654
     50          6           0        4.537439   -3.891081   -0.038944
     51          1           0        8.235964   -0.494544   -0.337110
     52          1           0        5.191276   -4.126318    0.807537
     53          1           0        3.626866   -4.482752    0.032866
     54          1           0        5.050196   -4.123953   -0.978182
 ---------------------------------------------------------------------

 The electronic state is 1-A.
 Alpha  occ. eigenvalues --  -89.05053 -89.04993 -19.29445 -19.28914 -19.24913
 Alpha  occ. eigenvalues --  -19.24901 -19.24561 -19.24193 -14.50489 -14.50084
 Alpha  occ. eigenvalues --  -10.42670 -10.42630 -10.42506 -10.41889 -10.36180
 Alpha  occ. eigenvalues --  -10.35978 -10.35322 -10.34739 -10.34317 -10.34250
 Alpha  occ. eigenvalues --  -10.34191 -10.33684 -10.33617 -10.33593 -10.33490
 Alpha  occ. eigenvalues --  -10.33425 -10.33196 -10.32763 -10.32628 -10.32288
 Alpha  occ. eigenvalues --  -10.32287 -10.32218 -10.32176 -10.31892 -10.30044
 Alpha  occ. eigenvalues --  -10.29442  -8.09072  -8.09047  -6.03914  -6.03900
 Alpha  occ. eigenvalues --   -6.03517  -6.03492  -6.03161  -6.03111  -1.19403
 Alpha  occ. eigenvalues --   -1.19247  -1.19202  -1.18625  -1.17480  -1.17092
 Alpha  occ. eigenvalues --   -1.06658  -1.06167  -1.02873  -1.00823  -0.99200
 Alpha  occ. eigenvalues --   -0.96964  -0.94417  -0.90541  -0.88456  -0.87649
 Alpha  occ. eigenvalues --   -0.86173  -0.85159  -0.84935  -0.82947  -0.82202
 Alpha  occ. eigenvalues --   -0.81513  -0.79742  -0.78329  -0.76873  -0.75346
 Alpha  occ. eigenvalues --   -0.75176  -0.74125  -0.70334  -0.69060  -0.68063
 Alpha  occ. eigenvalues --   -0.66467  -0.65790  -0.65477  -0.64543  -0.63808
 Alpha  occ. eigenvalues --   -0.62222  -0.60567  -0.59648  -0.59305  -0.58956
 Alpha  occ. eigenvalues --   -0.58472  -0.57636  -0.57580  -0.57208  -0.56995
 Alpha  occ. eigenvalues --   -0.56764  -0.56071  -0.55269  -0.54895  -0.54611
 Alpha  occ. eigenvalues --   -0.53781  -0.53725  -0.53317  -0.53054  -0.51920
 Alpha  occ. eigenvalues --   -0.51356  -0.51151  -0.50921  -0.50593  -0.50347
 Alpha  occ. eigenvalues --   -0.50135  -0.49545  -0.49421  -0.48784  -0.48225
 Alpha  occ. eigenvalues --   -0.47870  -0.47803  -0.46678  -0.45954  -0.45082
 Alpha  occ. eigenvalues --   -0.44864  -0.44124  -0.42596  -0.41916  -0.41546
 Alpha  occ. eigenvalues --   -0.40724  -0.40046  -0.39440  -0.38268  -0.38133
 Alpha  occ. eigenvalues --   -0.37175  -0.37143  -0.36661  -0.36232  -0.34554
 Alpha  occ. eigenvalues --   -0.33196  -0.32021  -0.31824  -0.25807
 Alpha virt. eigenvalues --   -0.07097  -0.01441   0.00514   0.02623   0.03794
 Alpha virt. eigenvalues --    0.05322   0.05741   0.06160   0.06821   0.07014
 Alpha virt. eigenvalues --    0.07104   0.07299   0.07881   0.08120   0.08280

 Mulliken charges:
               1
     1  C    0.368848
     2  C    0.059780
     3  C    0.139861
     4  C    0.349068
     5  C    0.330967
     6  C    0.004037
     7  C    0.166858
     8  C    0.179113
     9  C    0.189780
    10  C   -0.405562
    11  C    0.271206
    12  C    0.210632
    13  C   -0.609320
    14  C   -0.799722
    15  H    0.186705
    16  H    0.189609
    17  H    0.189976
    18  N   -0.083026
    19  N   -0.084730
    20  O   -0.266849
    21  O   -0.271010
    22  O   -0.278433
    23  O   -0.261021
    24  C   -0.269318
    25  H    0.195653
    26  H    0.192823
    27  H    0.202647
    28  C   -0.279058
    29  H    0.192456
    30  H    0.192740
    31  H    0.200039
    32  C   -0.100063
    33  C    0.131022
    34  S   -0.779556
    35  C   -0.046004
    36  H    0.202557
    37  C    0.281746
    38  O   -0.135005
    39  C    0.784324
    40  C   -0.309936
    41  C   -0.086872
    42  S   -0.320691
    43  H    0.181327
    44  H    0.161856
    45  H    0.171568
    46  C   -0.604476
    47  O   -0.102349
    48  C   -0.378003
    49  H    0.157733
    50  C   -0.307526
    51  H    0.187955
    52  H    0.157587
    53  H    0.188702
    54  H    0.159353
 Sum of Mulliken charges =  -0.00000

 Dipole moment (field-independent basis, Debye):
    X=              3.8216    Y=             -0.6951    Z=             -0.0567  Tot=              3.8847
 Quadrupole moment (field-independent basis, Debye-Ang):
   XX=           -214.5879   YY=           -202.9537   ZZ=           -223.0655
   XY=             -5.2503   XZ=             -3.7907   YZ=              1.2803

 Normal termination of Gaussian 16 at Sun Nov 29 22:59:34 2020.
