 Gaussian 16, Revision C.01,
 Gaussian 16:  ES64L-G16RevC.01  3-Jul-2019

 --------------------------------------
 # opt=modredundant wb97xd/6-311+g(d,p)
 --------------------------------------

 ----------
 NDI_70.pdb
 ----------
 Symbolic Z-matrix:
 Charge =  0 Multiplicity = 1

 SCF Done:  E(RwB97XD) =  -2358.76485402     A.U. after   19 cycles
 SCF Done:  E(RwB97XD) =  -2358.77159000     A.U. after   15 cycles
 SCF Done:  E(RwB97XD) =  -2358.77274612     A.U. after   17 cycles
 SCF Done:  E(RwB97XD) =  -2358.77321335     A.U. after   14 cycles
 SCF Done:  E(RwB97XD) =  -2358.77330332     A.U. after   15 cycles
 SCF Done:  E(RwB97XD) =  -2358.77336308     A.U. after   13 cycles
 SCF Done:  E(RwB97XD) =  -2358.77338272     A.U. after   14 cycles
 SCF Done:  E(RwB97XD) =  -2358.77338983     A.U. after   13 cycles
 SCF Done:  E(RwB97XD) =  -2358.77339278     A.U. after   11 cycles
 SCF Done:  E(RwB97XD) =  -2358.77339380     A.U. after   11 cycles
 SCF Done:  E(RwB97XD) =  -2358.77339405     A.U. after   10 cycles
 SCF Done:  E(RwB97XD) =  -2358.77339411     A.U. after   10 cycles
 SCF Done:  E(RwB97XD) =  -2358.77339411     A.U. after    9 cycles
 SCF Done:  E(RwB97XD) =  -2358.77339409     A.U. after    9 cycles
 Optimization completed.
    -- Stationary point found.

                         Standard orientation:
 ---------------------------------------------------------------------
 Center     Atomic      Atomic             Coordinates (Angstroms)
 Number     Number       Type             X           Y           Z
 ---------------------------------------------------------------------
      1          6           0       -2.988962   -2.865355    0.587892
      2          6           0       -2.472785   -1.489044    0.362355
      3          6           0       -3.361362   -0.438580    0.057974
      4          6           0       -4.746872   -0.678689   -0.046505
      5          6           0       -5.291389   -2.047627    0.168897
      6          6           0       -1.130002   -1.245528    0.452502
      7          6           0       -2.845932    0.857369   -0.157493
      8          6           0       -1.449826    1.100451   -0.049992
      9          6           0       -0.591543    0.053637    0.268613
     10          6           0       -0.942614    2.471586   -0.366598
     11          6           0       -3.267253    3.266109   -0.756954
     12          6           0       -3.753350    1.889733   -0.485873
     13          6           0       -5.103043    1.638102   -0.578315
     14          6           0       -5.606824    0.348135   -0.356129
     15          1           0       -6.667438    0.142637   -0.431524
     16          1           0       -5.765037    2.456918   -0.832030
     17          1           0       -0.462823   -2.063412    0.697644
     18          7           0       -1.890064    3.449001   -0.700807
     19          7           0       -4.365400   -3.052183    0.462206
     20          8           0       -2.266950   -3.792236    0.875389
     21          8           0       -6.475553   -2.282683    0.092414
     22          8           0       -4.023086    4.174258   -1.022178
     23          8           0        0.225448    2.776594   -0.348578
     24          6           0       -1.352582    4.776716   -0.997534
     25          1           0       -0.809595    5.158159   -0.132650
     26          1           0       -0.662113    4.714338   -1.838491
     27          1           0       -2.187325    5.428059   -1.238093
     28          6           0       -4.853948   -4.412535    0.684987
     29          1           0       -4.371970   -5.094115   -0.015750
     30          1           0       -4.612676   -4.730117    1.699694
     31          1           0       -5.929364   -4.411674    0.535121
     32          6           0        0.865795    0.186107    0.462538
     33          6           0        1.518853    0.800835    1.487542
     34         16           0        1.956371   -0.607440   -0.612379
     35          6           0        2.925507    0.643465    1.396893
     36          1           0        1.008696    1.357492    2.260298
     37          6           0        3.340565   -0.095012    0.310370
     38          8           0        3.842727    1.160781    2.247877
     39          6           0        4.699120   -0.411808   -0.076366
     40          6           0        3.364307    1.809775    3.406871
     41          6           0        5.105979   -1.178764   -1.146362
     42         16           0        6.092087    0.164442    0.795943
     43          1           0        4.245181    2.106330    3.973582
     44          1           0        2.783005    2.702085    3.149692
     45          1           0        2.752138    1.134035    4.014353
     46          6           0        6.517869   -1.302977   -1.265723
     47          8           0        4.179266   -1.732657   -1.964866
     48          6           0        7.167650   -0.624883   -0.279519
     49          1           0        7.024310   -1.863840   -2.038017
     50          6           0        4.643741   -2.480493   -3.068447
     51          1           0        8.233459   -0.550437   -0.125862
     52          1           0        5.226592   -3.348788   -2.741898
     53          1           0        3.756216   -2.822371   -3.598103
     54          1           0        5.250231   -1.861853   -3.739002
 ---------------------------------------------------------------------

 The electronic state is 1-A.
 Alpha  occ. eigenvalues --  -89.04581 -89.04154 -19.28595 -19.28530 -19.25214
 Alpha  occ. eigenvalues --  -19.25153 -19.24851 -19.24750 -14.50761 -14.50434
 Alpha  occ. eigenvalues --  -10.43012 -10.42779 -10.42717 -10.42617 -10.35261
 Alpha  occ. eigenvalues --  -10.34906 -10.34810 -10.34673 -10.34625 -10.34395
 Alpha  occ. eigenvalues --  -10.34234 -10.34180 -10.34079 -10.34013 -10.33980
 Alpha  occ. eigenvalues --  -10.33088 -10.33047 -10.33015 -10.32694 -10.32359
 Alpha  occ. eigenvalues --  -10.32181 -10.32094 -10.31914 -10.31247 -10.29438
 Alpha  occ. eigenvalues --  -10.29215  -8.08593  -8.08176  -6.03448  -6.03049
 Alpha  occ. eigenvalues --   -6.03019  -6.02661  -6.02623  -6.02265  -1.19677
 Alpha  occ. eigenvalues --   -1.19465  -1.18304  -1.18221  -1.17770  -1.17519
 Alpha  occ. eigenvalues --   -1.06936  -1.06534  -1.03461  -1.00280  -0.98667
 Alpha  occ. eigenvalues --   -0.97198  -0.94961  -0.90528  -0.88907  -0.87113
 Alpha  occ. eigenvalues --   -0.85726  -0.85423  -0.84324  -0.82711  -0.82177
 Alpha  occ. eigenvalues --   -0.81467  -0.79348  -0.78200  -0.77045  -0.75760
 Alpha  occ. eigenvalues --   -0.75314  -0.74391  -0.70165  -0.68653  -0.67782
 Alpha  occ. eigenvalues --   -0.66803  -0.65576  -0.64819  -0.64580  -0.63151
 Alpha  occ. eigenvalues --   -0.62724  -0.60883  -0.59908  -0.59327  -0.59034
 Alpha  occ. eigenvalues --   -0.58012  -0.57801  -0.57420  -0.57048  -0.56713
 Alpha  occ. eigenvalues --   -0.56391  -0.56133  -0.55571  -0.55361  -0.54202
 Alpha  occ. eigenvalues --   -0.54054  -0.53600  -0.53480  -0.53121  -0.52418
 Alpha  occ. eigenvalues --   -0.51688  -0.51240  -0.51212  -0.50390  -0.50159
 Alpha  occ. eigenvalues --   -0.49771  -0.49620  -0.49187  -0.48959  -0.48423
 Alpha  occ. eigenvalues --   -0.48316  -0.47060  -0.46930  -0.45790  -0.45104
 Alpha  occ. eigenvalues --   -0.44125  -0.43677  -0.42088  -0.41407  -0.41118
 Alpha  occ. eigenvalues --   -0.40845  -0.40459  -0.39797  -0.38693  -0.37659
 Alpha  occ. eigenvalues --   -0.37523  -0.37114  -0.37023  -0.36125  -0.34750
 Alpha  occ. eigenvalues --   -0.33450  -0.31440  -0.31247  -0.25357
 Alpha virt. eigenvalues --   -0.07294  -0.00105   0.00551   0.02199   0.02857
 Alpha virt. eigenvalues --    0.05029   0.05944   0.06161   0.06757   0.06892
 Alpha virt. eigenvalues --    0.07364   0.07459   0.07596   0.07751   0.07907

 Mulliken charges:
               1
     1  C    0.466203
     2  C   -0.026902
     3  C    0.174257
     4  C    0.177436
     5  C    0.359698
     6  C   -0.689755
     7  C    0.160430
     8  C    0.103509
     9  C    0.459600
    10  C   -0.383665
    11  C    0.258540
    12  C    0.144138
    13  C   -0.549095
    14  C   -0.699139
    15  H    0.188433
    16  H    0.189044
    17  H    0.207881
    18  N   -0.108364
    19  N   -0.094792
    20  O   -0.259265
    21  O   -0.267763
    22  O   -0.271129
    23  O   -0.098725
    24  C   -0.296822
    25  H    0.194191
    26  H    0.197454
    27  H    0.201893
    28  C   -0.284521
    29  H    0.193029
    30  H    0.195077
    31  H    0.200399
    32  C    0.054078
    33  C   -0.409397
    34  S   -0.411601
    35  C   -0.054808
    36  H    0.149133
    37  C    0.566331
    38  O   -0.118393
    39  C    0.790372
    40  C   -0.290905
    41  C   -0.001011
    42  S   -0.293447
    43  H    0.181488
    44  H    0.162016
    45  H    0.160408
    46  C   -0.563793
    47  O   -0.120024
    48  C   -0.368537
    49  H    0.154508
    50  C   -0.304587
    51  H    0.184330
    52  H    0.155261
    53  H    0.178692
    54  H    0.158614
 Sum of Mulliken charges =  -0.00000

 Dipole moment (field-independent basis, Debye):
    X=              1.3497    Y=             -0.1940    Z=              0.0820  Tot=              1.3660
 Quadrupole moment (field-independent basis, Debye-Ang):
   XX=           -218.3015   YY=           -222.4445   ZZ=           -203.2395
   XY=             -2.2973   XZ=             -7.5513   YZ=             14.9972

 Normal termination of Gaussian 16 at Sun Nov 29 22:05:39 2020.
