 Gaussian 16, Revision C.01,
 Gaussian 16:  ES64L-G16RevC.01  3-Jul-2019

 --------------------------------------
 # opt=modredundant wb97xd/6-311+g(d,p)
 --------------------------------------

 -----------
 NDI_-55.pdb
 -----------
 Symbolic Z-matrix:
 Charge =  0 Multiplicity = 1

 SCF Done:  E(RwB97XD) =  -2358.76877899     A.U. after   20 cycles
 SCF Done:  E(RwB97XD) =  -2358.77295698     A.U. after   17 cycles
 SCF Done:  E(RwB97XD) =  -2358.77364388     A.U. after   15 cycles
 SCF Done:  E(RwB97XD) =  -2358.77399536     A.U. after   14 cycles
 SCF Done:  E(RwB97XD) =  -2358.77401652     A.U. after   14 cycles
 SCF Done:  E(RwB97XD) =  -2358.77406093     A.U. after   12 cycles
 SCF Done:  E(RwB97XD) =  -2358.77406638     A.U. after   13 cycles
 SCF Done:  E(RwB97XD) =  -2358.77406868     A.U. after   12 cycles
 SCF Done:  E(RwB97XD) =  -2358.77406891     A.U. after   11 cycles
 Optimization completed.
    -- Stationary point found.

                         Standard orientation:
 ---------------------------------------------------------------------
 Center     Atomic      Atomic             Coordinates (Angstroms)
 Number     Number       Type             X           Y           Z
 ---------------------------------------------------------------------
      1          6           0        2.790509   -2.921696    0.561851
      2          6           0        2.366221   -1.516312    0.323308
      3          6           0        3.327150   -0.515115    0.077136
      4          6           0        4.700108   -0.831410    0.054304
      5          6           0        5.155104   -2.227637    0.299462
      6          6           0        1.039388   -1.196589    0.364097
      7          6           0        2.893323    0.807249   -0.157898
      8          6           0        1.507243    1.128946   -0.124852
      9          6           0        0.574912    0.132187    0.165546
     10          6           0        1.102771    2.517943   -0.500876
     11          6           0        3.488946    3.189330   -0.711866
     12          6           0        3.876541    1.786859   -0.425236
     13          6           0        5.214282    1.461295   -0.439480
     14          6           0        5.633745    0.146452   -0.196794
     15          1           0        6.684063   -0.116817   -0.208499
     16          1           0        5.933180    2.244530   -0.646272
     17          1           0        0.324342   -1.979707    0.586056
     18          7           0        2.123377    3.445520   -0.752480
     19          7           0        4.160390   -3.180123    0.536566
     20          8           0        2.000698   -3.813860    0.770768
     21          8           0        6.327099   -2.527353    0.292834
     22          8           0        4.309278    4.057411   -0.913350
     23          8           0       -0.044472    2.883461   -0.605686
     24          6           0        1.681229    4.796899   -1.095051
     25          1           0        1.064557    4.766720   -1.993160
     26          1           0        1.085646    5.209314   -0.280414
     27          1           0        2.565734    5.404398   -1.261073
     28          6           0        4.560044   -4.566003    0.777719
     29          1           0        4.191328   -4.890456    1.750756
     30          1           0        4.131957   -5.212020    0.010905
     31          1           0        5.644503   -4.612123    0.748112
     32          6           0       -0.873497    0.332073    0.320582
     33          6           0       -1.528324    1.190620    1.155436
     34         16           0       -1.976576   -0.717251   -0.500877
     35          6           0       -2.931024    1.015215    1.119437
     36          1           0       -1.018139    1.927218    1.757755
     37          6           0       -3.352550    0.020127    0.260855
     38          8           0       -3.843324    1.721629    1.826791
     39          6           0       -4.712945   -0.376273   -0.029222
     40          6           0       -3.373957    2.823363    2.576383
     41          6           0       -5.125743   -1.397565   -0.858223
     42         16           0       -6.101635    0.423805    0.653455
     43          1           0       -4.255499    3.291704    3.010550
     44          1           0       -2.705402    2.498376    3.381367
     45          1           0       -2.855128    3.543719    1.934842
     46          6           0       -6.538372   -1.535861   -0.945780
     47          8           0       -4.204050   -2.153123   -1.499795
     48          6           0       -7.182212   -0.613112   -0.178352
     49          1           0       -7.049418   -2.277606   -1.542468
     50          6           0       -4.671626   -3.209578   -2.312072
     51          1           0       -8.247517   -0.491291   -0.054007
     52          1           0       -5.288224   -2.832664   -3.135349
     53          1           0       -3.785609   -3.694005   -2.718504
     54          1           0       -5.244807   -3.935698   -1.725427
 ---------------------------------------------------------------------

 The electronic state is 1-A.
 Alpha  occ. eigenvalues --  -89.04783 -89.04412 -19.28854 -19.28696 -19.25103
 Alpha  occ. eigenvalues --  -19.25054 -19.24680 -19.24585 -14.50657 -14.50314
 Alpha  occ. eigenvalues --  -10.42892 -10.42673 -10.42632 -10.42431 -10.35330
 Alpha  occ. eigenvalues --  -10.35139 -10.35120 -10.34524 -10.34402 -10.34398
 Alpha  occ. eigenvalues --  -10.34234 -10.34157 -10.33904 -10.33857 -10.33746
 Alpha  occ. eigenvalues --  -10.32883 -10.32853 -10.32799 -10.32794 -10.32636
 Alpha  occ. eigenvalues --  -10.32279 -10.32167 -10.32054 -10.31541 -10.29678
 Alpha  occ. eigenvalues --  -10.29455  -8.08804  -8.08434  -6.03655  -6.03277
 Alpha  occ. eigenvalues --   -6.03258  -6.02881  -6.02874  -6.02523  -1.19573
 Alpha  occ. eigenvalues --   -1.19332  -1.18558  -1.18411  -1.17662  -1.17363
 Alpha  occ. eigenvalues --   -1.06827  -1.06396  -1.03279  -1.00470  -0.98831
 Alpha  occ. eigenvalues --   -0.97152  -0.94793  -0.90521  -0.88755  -0.87271
 Alpha  occ. eigenvalues --   -0.85877  -0.85329  -0.84569  -0.82717  -0.82233
 Alpha  occ. eigenvalues --   -0.81498  -0.79463  -0.78269  -0.76959  -0.75624
 Alpha  occ. eigenvalues --   -0.75235  -0.74304  -0.70205  -0.68766  -0.67859
 Alpha  occ. eigenvalues --   -0.66687  -0.65651  -0.64948  -0.64613  -0.63380
 Alpha  occ. eigenvalues --   -0.62570  -0.60772  -0.59811  -0.59250  -0.58910
 Alpha  occ. eigenvalues --   -0.58183  -0.57732  -0.57345  -0.57219  -0.56856
 Alpha  occ. eigenvalues --   -0.56469  -0.55976  -0.55488  -0.55254  -0.54272
 Alpha  occ. eigenvalues --   -0.54030  -0.53454  -0.53436  -0.53248  -0.52313
 Alpha  occ. eigenvalues --   -0.51625  -0.51133  -0.51103  -0.50387  -0.50332
 Alpha  occ. eigenvalues --   -0.49909  -0.49554  -0.49322  -0.48891  -0.48350
 Alpha  occ. eigenvalues --   -0.48170  -0.47434  -0.46873  -0.45727  -0.45374
 Alpha  occ. eigenvalues --   -0.44200  -0.43855  -0.42279  -0.41583  -0.41233
 Alpha  occ. eigenvalues --   -0.41080  -0.40313  -0.39709  -0.38618  -0.37694
 Alpha  occ. eigenvalues --   -0.37414  -0.37082  -0.36951  -0.36215  -0.34668
 Alpha  occ. eigenvalues --   -0.33273  -0.31558  -0.31430  -0.25485
 Alpha virt. eigenvalues --   -0.07255  -0.00329   0.00442   0.02260   0.03232
 Alpha virt. eigenvalues --    0.05109   0.05845   0.06103   0.06818   0.06930
 Alpha virt. eigenvalues --    0.07323   0.07525   0.07650   0.07780   0.07858

 Mulliken charges:
               1
     1  C    0.414422
     2  C   -0.093705
     3  C    0.132699
     4  C    0.186729
     5  C    0.344733
     6  C   -0.653894
     7  C    0.176817
     8  C    0.200721
     9  C    0.512830
    10  C   -0.362622
    11  C    0.252295
    12  C    0.137001
    13  C   -0.535961
    14  C   -0.683365
    15  H    0.187779
    16  H    0.188517
    17  H    0.210430
    18  N   -0.090618
    19  N   -0.093784
    20  O   -0.261446
    21  O   -0.266660
    22  O   -0.272295
    23  O   -0.153339
    24  C   -0.291005
    25  H    0.196971
    26  H    0.191230
    27  H    0.201201
    28  C   -0.283263
    29  H    0.193433
    30  H    0.193891
    31  H    0.200208
    32  C    0.069888
    33  C   -0.372263
    34  S   -0.554307
    35  C   -0.053516
    36  H    0.155812
    37  C    0.647915
    38  O   -0.116242
    39  C    0.785723
    40  C   -0.302356
    41  C   -0.030286
    42  S   -0.292155
    43  H    0.181350
    44  H    0.155444
    45  H    0.174476
    46  C   -0.601822
    47  O   -0.113876
    48  C   -0.344917
    49  H    0.155539
    50  C   -0.305414
    51  H    0.185566
    52  H    0.157169
    53  H    0.180518
    54  H    0.157800
 Sum of Mulliken charges =  -0.00000

 Dipole moment (field-independent basis, Debye):
    X=             -2.0786    Y=             -0.2053    Z=              0.1106  Tot=              2.0916
 Quadrupole moment (field-independent basis, Debye-Ang):
   XX=           -217.1544   YY=           -214.0682   ZZ=           -211.7055
   XY=              3.1729   XZ=              5.8837   YZ=             15.6588

 Normal termination of Gaussian 16 at Sun Nov 29 19:33:24 2020.
