 Gaussian 16, Revision C.01,
 Gaussian 16:  ES64L-G16RevC.01  3-Jul-2019

 --------------------------------------
 # opt=modredundant wb97xd/6-311+g(d,p)
 --------------------------------------

 -----------
 NDI_-10.pdb
 -----------
 Symbolic Z-matrix:
 Charge =  0 Multiplicity = 1

 SCF Done:  E(RwB97XD) =  -2358.75779183     A.U. after   20 cycles
 SCF Done:  E(RwB97XD) =  -2358.74605535     A.U. after   20 cycles
 SCF Done:  E(RwB97XD) =  -2358.76540950     A.U. after   17 cycles
 SCF Done:  E(RwB97XD) =  -2358.76862300     A.U. after   18 cycles
 SCF Done:  E(RwB97XD) =  -2358.76921164     A.U. after   18 cycles
 SCF Done:  E(RwB97XD) =  -2358.76962694     A.U. after   16 cycles
 SCF Done:  E(RwB97XD) =  -2358.76975914     A.U. after   16 cycles
 SCF Done:  E(RwB97XD) =  -2358.76978732     A.U. after   14 cycles
 SCF Done:  E(RwB97XD) =  -2358.76981676     A.U. after   13 cycles
 SCF Done:  E(RwB97XD) =  -2358.76982225     A.U. after   12 cycles
 SCF Done:  E(RwB97XD) =  -2358.76982361     A.U. after   13 cycles
 SCF Done:  E(RwB97XD) =  -2358.76982389     A.U. after   11 cycles
 SCF Done:  E(RwB97XD) =  -2358.76982404     A.U. after    9 cycles
 SCF Done:  E(RwB97XD) =  -2358.76982411     A.U. after    9 cycles
 Optimization completed.
    -- Stationary point found.

                         Standard orientation:
 ---------------------------------------------------------------------
 Center     Atomic      Atomic             Coordinates (Angstroms)
 Number     Number       Type             X           Y           Z
 ---------------------------------------------------------------------
      1          6           0       -2.455232   -3.024490   -0.120976
      2          6           0       -2.194758   -1.562152   -0.044310
      3          6           0       -3.262354   -0.642660   -0.071525
      4          6           0       -4.589142   -1.096455   -0.177762
      5          6           0       -4.882238   -2.553224   -0.267637
      6          6           0       -0.912023   -1.117826    0.020928
      7          6           0       -2.966988    0.732882    0.034059
      8          6           0       -1.615396    1.194367    0.121602
      9          6           0       -0.554984    0.265841    0.080320
     10          6           0       -1.430258    2.631333    0.470858
     11          6           0       -3.857511    3.081127    0.192206
     12          6           0       -4.064162    1.625235    0.034742
     13          6           0       -5.359639    1.168268   -0.087685
     14          6           0       -5.632201   -0.198452   -0.195534
     15          1           0       -6.647212   -0.564790   -0.283118
     16          1           0       -6.160562    1.897358   -0.088991
     17          1           0       -0.139014   -1.875425   -0.009661
     18          7           0       -2.550209    3.472471    0.445403
     19          7           0       -3.786461   -3.420888   -0.224081
     20          8           0       -1.567496   -3.847102   -0.104183
     21          8           0       -6.012526   -2.972115   -0.369171
     22          8           0       -4.766980    3.880052    0.135442
     23          8           0       -0.366421    3.129082    0.771402
     24          6           0       -2.294376    4.882887    0.734327
     25          1           0       -1.858901    4.983797    1.728201
     26          1           0       -1.592015    5.289499    0.006263
     27          1           0       -3.242316    5.409406    0.677298
     28          6           0       -4.027746   -4.860713   -0.304635
     29          1           0       -3.504674   -5.273555   -1.167269
     30          1           0       -3.652426   -5.348000    0.595530
     31          1           0       -5.098063   -5.016666   -0.400069
     32          6           0        0.878375    0.524651   -0.091099
     33          6           0        1.570860    1.663042   -0.431207
     34         16           0        2.002712   -0.774818    0.233160
     35          6           0        2.964546    1.480764   -0.466030
     36          1           0        1.094043    2.598970   -0.656844
     37          6           0        3.378703    0.207607   -0.118401
     38          8           0        3.883759    2.417184   -0.792598
     39          6           0        4.733325   -0.284774   -0.041160
     40          6           0        3.422311    3.739081   -0.995199
     41          6           0        5.139049   -1.560226    0.297263
     42         16           0        6.126124    0.707051   -0.377534
     43          1           0        4.309987    4.345065   -1.167063
     44          1           0        2.768476    3.798012   -1.872065
     45          1           0        2.888062    4.109225   -0.114102
     46          6           0        6.549298   -1.737880    0.286481
     47          8           0        4.214932   -2.496352    0.601558
     48          6           0        7.196827   -0.590705   -0.061252
     49          1           0        7.056269   -2.662226    0.522560
     50          6           0        4.670133   -3.799377    0.907313
     51          1           0        8.262386   -0.441268   -0.148942
     52          1           0        5.307761   -3.795414    1.797741
     53          1           0        3.778565   -4.391666    1.104072
     54          1           0        5.216282   -4.234035    0.063460
 ---------------------------------------------------------------------

 The electronic state is 1-A.
 Alpha  occ. eigenvalues --  -89.05094 -89.04994 -19.29414 -19.29016 -19.24886
 Alpha  occ. eigenvalues --  -19.24885 -19.24345 -19.24273 -14.50467 -14.50053
 Alpha  occ. eigenvalues --  -10.42660 -10.42483 -10.42473 -10.41976 -10.35886
 Alpha  occ. eigenvalues --  -10.35778 -10.35475 -10.34740 -10.34325 -10.34241
 Alpha  occ. eigenvalues --  -10.34021 -10.33632 -10.33588 -10.33514 -10.33479
 Alpha  occ. eigenvalues --  -10.33360 -10.33231 -10.32721 -10.32658 -10.32355
 Alpha  occ. eigenvalues --  -10.32275 -10.32204 -10.32146 -10.31926 -10.29991
 Alpha  occ. eigenvalues --  -10.29864  -8.09138  -8.09013  -6.03987  -6.03856
 Alpha  occ. eigenvalues --   -6.03585  -6.03459  -6.03209  -6.03102  -1.19376
 Alpha  occ. eigenvalues --   -1.19154  -1.19109  -1.18746  -1.17459  -1.17050
 Alpha  occ. eigenvalues --   -1.06627  -1.06135  -1.02898  -1.00849  -0.99200
 Alpha  occ. eigenvalues --   -0.96984  -0.94429  -0.90535  -0.88457  -0.87623
 Alpha  occ. eigenvalues --   -0.86186  -0.85130  -0.85006  -0.82942  -0.82206
 Alpha  occ. eigenvalues --   -0.81497  -0.79752  -0.78359  -0.76799  -0.75340
 Alpha  occ. eigenvalues --   -0.75137  -0.74118  -0.70327  -0.69053  -0.67996
 Alpha  occ. eigenvalues --   -0.66457  -0.65807  -0.65432  -0.64474  -0.63844
 Alpha  occ. eigenvalues --   -0.62289  -0.60572  -0.59643  -0.59181  -0.58693
 Alpha  occ. eigenvalues --   -0.58432  -0.57651  -0.57575  -0.57222  -0.57100
 Alpha  occ. eigenvalues --   -0.56746  -0.55817  -0.55323  -0.54992  -0.54536
 Alpha  occ. eigenvalues --   -0.53800  -0.53711  -0.53252  -0.53080  -0.51738
 Alpha  occ. eigenvalues --   -0.51648  -0.51133  -0.50925  -0.50661  -0.50409
 Alpha  occ. eigenvalues --   -0.50143  -0.49492  -0.49389  -0.48771  -0.48345
 Alpha  occ. eigenvalues --   -0.47827  -0.47798  -0.46840  -0.45960  -0.45324
 Alpha  occ. eigenvalues --   -0.44660  -0.44222  -0.42578  -0.41959  -0.41482
 Alpha  occ. eigenvalues --   -0.41116  -0.39969  -0.39493  -0.38449  -0.37897
 Alpha  occ. eigenvalues --   -0.37209  -0.37062  -0.36644  -0.36282  -0.34494
 Alpha  occ. eigenvalues --   -0.33131  -0.31903  -0.31771  -0.25736
 Alpha virt. eigenvalues --   -0.07152  -0.01254   0.00557   0.02598   0.03688
 Alpha virt. eigenvalues --    0.05304   0.05714   0.06117   0.06768   0.07086
 Alpha virt. eigenvalues --    0.07132   0.07376   0.07858   0.08082   0.08148

 Mulliken charges:
               1
     1  C    0.305120
     2  C    0.020191
     3  C    0.225685
     4  C    0.268742
     5  C    0.321538
     6  C    0.171477
     7  C    0.245512
     8  C    0.338753
     9  C    0.222421
    10  C   -0.936182
    11  C    0.245019
    12  C    0.140654
    13  C   -0.566719
    14  C   -0.677726
    15  H    0.186362
    16  H    0.188613
    17  H    0.187340
    18  N   -0.045562
    19  N   -0.090008
    20  O   -0.269624
    21  O   -0.264640
    22  O   -0.276169
    23  O   -0.251927
    24  C   -0.253876
    25  H    0.199022
    26  H    0.188281
    27  H    0.201676
    28  C   -0.281673
    29  H    0.192607
    30  H    0.192616
    31  H    0.199249
    32  C   -0.063508
    33  C   -0.129015
    34  S   -0.722235
    35  C   -0.540749
    36  H    0.173814
    37  C    0.607253
    38  O   -0.106155
    39  C    1.013066
    40  C   -0.317700
    41  C    0.055121
    42  S   -0.249357
    43  H    0.182606
    44  H    0.157176
    45  H    0.179704
    46  C   -0.625571
    47  O   -0.108707
    48  C   -0.372821
    49  H    0.157849
    50  C   -0.309975
    51  H    0.188993
    52  H    0.156780
    53  H    0.186643
    54  H    0.160014
 Sum of Mulliken charges =  -0.00000

 Dipole moment (field-independent basis, Debye):
    X=              3.7164    Y=             -0.5566    Z=             -0.1122  Tot=              3.7595
 Quadrupole moment (field-independent basis, Debye-Ang):
   XX=           -214.2489   YY=           -205.0018   ZZ=           -221.2679
   XY=             -4.8419   XZ=             -0.0582   YZ=             -7.1099

 Normal termination of Gaussian 16 at Sun Nov 29 22:18:46 2020.
