 Gaussian 16, Revision C.01,
 Gaussian 16:  ES64L-G16RevC.01  3-Jul-2019

 --------------------------------------
 # opt=modredundant wb97xd/6-311+g(d,p)
 --------------------------------------

 -----------
 NDI_-85.pdb
 -----------
 Symbolic Z-matrix:
 Charge =  0 Multiplicity = 1

 SCF Done:  E(RwB97XD) =  -2358.76492322     A.U. after   19 cycles
 SCF Done:  E(RwB97XD) =  -2358.77252348     A.U. after   16 cycles
 SCF Done:  E(RwB97XD) =  -2358.77322347     A.U. after   14 cycles
 SCF Done:  E(RwB97XD) =  -2358.77330750     A.U. after   14 cycles
 SCF Done:  E(RwB97XD) =  -2358.77337423     A.U. after   14 cycles
 SCF Done:  E(RwB97XD) =  -2358.77338296     A.U. after   12 cycles
 SCF Done:  E(RwB97XD) =  -2358.77338352     A.U. after   12 cycles
 SCF Done:  E(RwB97XD) =  -2358.77338561     A.U. after   11 cycles
 SCF Done:  E(RwB97XD) =  -2358.77338579     A.U. after   10 cycles
 SCF Done:  E(RwB97XD) =  -2358.77338592     A.U. after    9 cycles
 SCF Done:  E(RwB97XD) =  -2358.77338591     A.U. after    8 cycles
 Optimization completed.
    -- Stationary point found.

                         Standard orientation:
 ---------------------------------------------------------------------
 Center     Atomic      Atomic             Coordinates (Angstroms)
 Number     Number       Type             X           Y           Z
 ---------------------------------------------------------------------
      1          6           0        3.187788   -2.839849    0.401777
      2          6           0        2.579976   -1.488921    0.272292
      3          6           0        3.390154   -0.371133   -0.008728
      4          6           0        4.783964   -0.515847   -0.169674
      5          6           0        5.420410   -1.855502   -0.039425
      6          6           0        1.230402   -1.331545    0.440242
      7          6           0        2.791670    0.900955   -0.128491
      8          6           0        1.389720    1.048121    0.039344
      9          6           0        0.610817   -0.062289    0.335256
     10          6           0        0.789577    2.408081   -0.126299
     11          6           0        3.042597    3.370213   -0.553571
     12          6           0        3.621043    2.008904   -0.413676
     13          6           0        4.978514    1.848157   -0.568167
     14          6           0        5.566552    0.579822   -0.445417
     15          1           0        6.634746    0.446904   -0.564794
     16          1           0        5.581842    2.720936   -0.785621
     17          1           0        0.620393   -2.198518    0.664696
     18          7           0        1.663498    3.468297   -0.401206
     19          7           0        4.570964   -2.928290    0.243420
     20          8           0        2.531079   -3.829545    0.629985
     21          8           0        6.612807   -2.010898   -0.171080
     22          8           0        3.730419    4.338279   -0.789269
     23          8           0       -0.393333    2.631237   -0.039305
     24          6           0        1.038084    4.782205   -0.550791
     25          1           0        0.317804    4.756702   -1.368468
     26          1           0        0.510912    5.046114    0.366020
     27          1           0        1.822725    5.503563   -0.757946
     28          6           0        5.150744   -4.264406    0.376436
     29          1           0        4.914222   -4.670696    1.359754
     30          1           0        4.731976   -4.925609   -0.382537
     31          1           0        6.225696   -4.177274    0.250120
     32          6           0       -0.850919   -0.023244    0.561354
     33          6           0       -1.497808    0.254632    1.725752
     34         16           0       -1.940221   -0.464588   -0.697650
     35          6           0       -2.907805    0.134939    1.593206
     36          1           0       -0.984538    0.553684    2.628536
     37          6           0       -3.324011   -0.247374    0.338592
     38          8           0       -3.821241    0.351947    2.569346
     39          6           0       -4.683094   -0.448556   -0.120093
     40          6           0       -3.353949    0.868885    3.797063
     41          6           0       -5.091495   -0.860176   -1.369526
     42         16           0       -6.074305   -0.173647    0.890837
     43          1           0       -4.235575    1.019681    4.417661
     44          1           0       -2.680199    0.162372    4.294679
     45          1           0       -2.841951    1.826621    3.653288
     46          6           0       -6.503502   -0.953756   -1.515384
     47          8           0       -4.166650   -1.128339   -2.323374
     48          6           0       -7.151893   -0.610323   -0.368268
     49          1           0       -7.011038   -1.259272   -2.419046
     50          6           0       -4.631755   -1.581850   -3.576365
     51          1           0       -8.217171   -0.593872   -0.195161
     52          1           0       -5.264327   -0.829723   -4.060680
     53          1           0       -3.745565   -1.751807   -4.185459
     54          1           0       -5.188125   -2.520385   -3.476603
 ---------------------------------------------------------------------

 The electronic state is 1-A.
 Alpha  occ. eigenvalues --  -89.04374 -89.04002 -19.28430 -19.28425 -19.25284
 Alpha  occ. eigenvalues --  -19.25218 -19.24968 -19.24897 -14.50825 -14.50527
 Alpha  occ. eigenvalues --  -10.43086 -10.42848 -10.42778 -10.42746 -10.35225
 Alpha  occ. eigenvalues --  -10.34786 -10.34761 -10.34725 -10.34622 -10.34531
 Alpha  occ. eigenvalues --  -10.34185 -10.34131 -10.34124 -10.34112 -10.34106
 Alpha  occ. eigenvalues --  -10.33238 -10.33149 -10.33141 -10.32651 -10.32405
 Alpha  occ. eigenvalues --  -10.32151 -10.31916 -10.31759 -10.31081 -10.29318
 Alpha  occ. eigenvalues --  -10.29073  -8.08384  -8.08025  -6.03242  -6.02868
 Alpha  occ. eigenvalues --   -6.02841  -6.02473  -6.02446  -6.02114  -1.19744
 Alpha  occ. eigenvalues --   -1.19566  -1.18162  -1.18075  -1.17839  -1.17634
 Alpha  occ. eigenvalues --   -1.07007  -1.06639  -1.03576  -1.00154  -0.98581
 Alpha  occ. eigenvalues --   -0.97204  -0.95068  -0.90541  -0.89004  -0.87020
 Alpha  occ. eigenvalues --   -0.85640  -0.85461  -0.84161  -0.82742  -0.82166
 Alpha  occ. eigenvalues --   -0.81402  -0.79284  -0.78150  -0.77106  -0.75852
 Alpha  occ. eigenvalues --   -0.75367  -0.74447  -0.70150  -0.68606  -0.67727
 Alpha  occ. eigenvalues --   -0.66885  -0.65559  -0.64744  -0.64477  -0.63020
 Alpha  occ. eigenvalues --   -0.62840  -0.60956  -0.59981  -0.59391  -0.59116
 Alpha  occ. eigenvalues --   -0.57925  -0.57811  -0.57477  -0.56966  -0.56629
 Alpha  occ. eigenvalues --   -0.56401  -0.56143  -0.55656  -0.55399  -0.54222
 Alpha  occ. eigenvalues --   -0.54026  -0.53713  -0.53495  -0.53075  -0.52450
 Alpha  occ. eigenvalues --   -0.51735  -0.51344  -0.51264  -0.50443  -0.50083
 Alpha  occ. eigenvalues --   -0.49682  -0.49553  -0.49147  -0.48972  -0.48474
 Alpha  occ. eigenvalues --   -0.48431  -0.46894  -0.46814  -0.45894  -0.44961
 Alpha  occ. eigenvalues --   -0.44119  -0.43509  -0.42002  -0.41216  -0.41038
 Alpha  occ. eigenvalues --   -0.40747  -0.40558  -0.39832  -0.38704  -0.37640
 Alpha  occ. eigenvalues --   -0.37583  -0.37192  -0.37005  -0.36030  -0.34874
 Alpha  occ. eigenvalues --   -0.33587  -0.31384  -0.31103  -0.25281
 Alpha virt. eigenvalues --   -0.07328  -0.00063   0.00657   0.02327   0.02510
 Alpha virt. eigenvalues --    0.04959   0.06005   0.06201   0.06644   0.06888
 Alpha virt. eigenvalues --    0.07377   0.07419   0.07579   0.07722   0.08013

 Mulliken charges:
               1
     1  C    0.468741
     2  C    0.048805
     3  C    0.200413
     4  C    0.179041
     5  C    0.350512
     6  C   -0.715920
     7  C    0.149770
     8  C    0.020508
     9  C    0.448903
    10  C   -0.342247
    11  C    0.256306
    12  C    0.197797
    13  C   -0.582661
    14  C   -0.725232
    15  H    0.188825
    16  H    0.189475
    17  H    0.199387
    18  N   -0.111007
    19  N   -0.097807
    20  O   -0.256463
    21  O   -0.267414
    22  O   -0.267669
    23  O   -0.088272
    24  C   -0.301751
    25  H    0.197921
    26  H    0.193995
    27  H    0.202094
    28  C   -0.285051
    29  H    0.193503
    30  H    0.194797
    31  H    0.200222
    32  C    0.197209
    33  C   -0.507253
    34  S   -0.142710
    35  C   -0.094873
    36  H    0.141766
    37  C    0.236646
    38  O   -0.122216
    39  C    0.837860
    40  C   -0.293439
    41  C    0.061874
    42  S   -0.306384
    43  H    0.181215
    44  H    0.154367
    45  H    0.169391
    46  C   -0.562680
    47  O   -0.125088
    48  C   -0.392917
    49  H    0.153957
    50  C   -0.300081
    51  H    0.183587
    52  H    0.156429
    53  H    0.177942
    54  H    0.155877
 Sum of Mulliken charges =  -0.00000

 Dipole moment (field-independent basis, Debye):
    X=             -0.9337    Y=              0.1295    Z=              0.0406  Tot=              0.9435
 Quadrupole moment (field-independent basis, Debye-Ang):
   XX=           -218.3337   YY=           -228.2966   ZZ=           -197.8584
   XY=             -0.5786   XZ=              9.3234   YZ=             10.2940

 Normal termination of Gaussian 16 at Sun Nov 29 21:20:27 2020.
