 Gaussian 16, Revision C.01,
 Gaussian 16:  ES64L-G16RevC.01  3-Jul-2019

 --------------------------------------
 # opt=modredundant wb97xd/6-311+g(d,p)
 --------------------------------------

 -----------
 NDI_-50.pdb
 -----------
 Symbolic Z-matrix:
 Charge =  0 Multiplicity = 1

 SCF Done:  E(RwB97XD) =  -2358.76933070     A.U. after   19 cycles
 SCF Done:  E(RwB97XD) =  -2358.77298058     A.U. after   17 cycles
 SCF Done:  E(RwB97XD) =  -2358.77351383     A.U. after   16 cycles
 SCF Done:  E(RwB97XD) =  -2358.77404167     A.U. after   14 cycles
 SCF Done:  E(RwB97XD) =  -2358.77405716     A.U. after   14 cycles
 SCF Done:  E(RwB97XD) =  -2358.77411558     A.U. after   14 cycles
 SCF Done:  E(RwB97XD) =  -2358.77412231     A.U. after   13 cycles
 SCF Done:  E(RwB97XD) =  -2358.77412700     A.U. after   12 cycles
 SCF Done:  E(RwB97XD) =  -2358.77412741     A.U. after   11 cycles
 SCF Done:  E(RwB97XD) =  -2358.77412761     A.U. after   10 cycles
 SCF Done:  E(RwB97XD) =  -2358.77412765     A.U. after   10 cycles
 Optimization completed.
    -- Stationary point found.

                         Standard orientation:
 ---------------------------------------------------------------------
 Center     Atomic      Atomic             Coordinates (Angstroms)
 Number     Number       Type             X           Y           Z
 ---------------------------------------------------------------------
      1          6           0        2.751599   -2.937631    0.527301
      2          6           0        2.346047   -1.524934    0.298971
      3          6           0        3.320855   -0.530893    0.079416
      4          6           0        4.690241   -0.861695    0.074121
      5          6           0        5.126664   -2.265563    0.309219
      6          6           0        1.022901   -1.191976    0.325185
      7          6           0        2.902954    0.798169   -0.147478
      8          6           0        1.519207    1.134797   -0.131192
      9          6           0        0.571455    0.143608    0.135600
     10          6           0        1.138233    2.528831   -0.512415
     11          6           0        3.534660    3.178286   -0.668542
     12          6           0        3.901314    1.769378   -0.388665
     13          6           0        5.236013    1.430017   -0.384757
     14          6           0        5.638415    0.108831   -0.150556
     15          1           0        6.685936   -0.165512   -0.148773
     16          1           0        5.965671    2.208349   -0.571339
     17          1           0        0.299574   -1.971746    0.531351
     18          7           0        2.173039    3.447688   -0.737066
     19          7           0        4.118634   -3.210535    0.518834
     20          8           0        1.949211   -3.823347    0.715071
     21          8           0        6.295394   -2.577730    0.317284
     22          8           0        4.367483    4.040332   -0.843665
     23          8           0       -0.002171    2.908352   -0.643154
     24          6           0        1.751505    4.804809   -1.082727
     25          1           0        1.154489    4.784788   -1.994296
     26          1           0        1.141990    5.219397   -0.279549
     27          1           0        2.645246    5.404470   -1.226071
     28          6           0        4.500476   -4.603117    0.749699
     29          1           0        4.114503   -4.934826    1.713566
     30          1           0        4.076951   -5.235886   -0.030571
     31          1           0        5.584761   -4.659826    0.735075
     32          6           0       -0.874397    0.352063    0.288489
     33          6           0       -1.529825    1.261921    1.068337
     34         16           0       -1.982672   -0.740480   -0.471252
     35          6           0       -2.931517    1.087427    1.043541
     36          1           0       -1.020197    2.031815    1.627199
     37          6           0       -3.355621    0.043752    0.244866
     38          8           0       -3.842334    1.836077    1.707720
     39          6           0       -4.716972   -0.365324   -0.020065
     40          6           0       -3.370330    2.980041    2.389878
     41          6           0       -5.133363   -1.432318   -0.787826
     42         16           0       -6.102783    0.477521    0.615730
     43          1           0       -4.250946    3.475899    2.794318
     44          1           0       -2.703178    2.702159    3.213405
     45          1           0       -2.849067    3.658753    1.706364
     46          6           0       -6.546393   -1.571720   -0.865465
     47          8           0       -4.214661   -2.226154   -1.385029
     48          6           0       -7.186712   -0.604048   -0.152224
     49          1           0       -7.060240   -2.345674   -1.417108
     50          6           0       -4.685583   -3.326762   -2.134727
     51          1           0       -8.251558   -0.472450   -0.033910
     52          1           0       -5.302347   -2.996278   -2.977524
     53          1           0       -3.800986   -3.835559   -2.513441
     54          1           0       -5.259404   -4.016539   -1.506434
 ---------------------------------------------------------------------

 The electronic state is 1-A.
 Alpha  occ. eigenvalues --  -89.04840 -89.04490 -19.28933 -19.28746 -19.25071
 Alpha  occ. eigenvalues --  -19.25026 -19.24620 -19.24533 -14.50628 -14.50272
 Alpha  occ. eigenvalues --  -10.42858 -10.42644 -10.42605 -10.42367 -10.35361
 Alpha  occ. eigenvalues --  -10.35240 -10.35180 -10.34485 -10.34449 -10.34340
 Alpha  occ. eigenvalues --  -10.34255 -10.34086 -10.33850 -10.33809 -10.33672
 Alpha  occ. eigenvalues --  -10.32838 -10.32832 -10.32782 -10.32775 -10.32727
 Alpha  occ. eigenvalues --  -10.32257 -10.32243 -10.32033 -10.31630 -10.29743
 Alpha  occ. eigenvalues --  -10.29528  -8.08863  -8.08511  -6.03713  -6.03354
 Alpha  occ. eigenvalues --   -6.03317  -6.02958  -6.02934  -6.02600  -1.19544
 Alpha  occ. eigenvalues --   -1.19290  -1.18639  -1.18466  -1.17632  -1.17311
 Alpha  occ. eigenvalues --   -1.06797  -1.06349  -1.03221  -1.00526  -0.98880
 Alpha  occ. eigenvalues --   -0.97132  -0.94739  -0.90520  -0.88707  -0.87319
 Alpha  occ. eigenvalues --   -0.85924  -0.85296  -0.84641  -0.82731  -0.82243
 Alpha  occ. eigenvalues --   -0.81498  -0.79503  -0.78287  -0.76930  -0.75580
 Alpha  occ. eigenvalues --   -0.75211  -0.74280  -0.70219  -0.68800  -0.67877
 Alpha  occ. eigenvalues --   -0.66650  -0.65679  -0.65007  -0.64594  -0.63451
 Alpha  occ. eigenvalues --   -0.62529  -0.60739  -0.59782  -0.59228  -0.58870
 Alpha  occ. eigenvalues --   -0.58226  -0.57710  -0.57322  -0.57274  -0.56900
 Alpha  occ. eigenvalues --   -0.56507  -0.55920  -0.55474  -0.55214  -0.54307
 Alpha  occ. eigenvalues --   -0.54011  -0.53449  -0.53391  -0.53272  -0.52258
 Alpha  occ. eigenvalues --   -0.51615  -0.51110  -0.51066  -0.50434  -0.50324
 Alpha  occ. eigenvalues --   -0.49967  -0.49535  -0.49351  -0.48867  -0.48335
 Alpha  occ. eigenvalues --   -0.48120  -0.47508  -0.46885  -0.45714  -0.45436
 Alpha  occ. eigenvalues --   -0.44229  -0.43923  -0.42323  -0.41644  -0.41267
 Alpha  occ. eigenvalues --   -0.41136  -0.40262  -0.39682  -0.38597  -0.37705
 Alpha  occ. eigenvalues --   -0.37385  -0.37076  -0.36914  -0.36235  -0.34636
 Alpha  occ. eigenvalues --   -0.33231  -0.31597  -0.31479  -0.25521
 Alpha virt. eigenvalues --   -0.07244  -0.00432   0.00442   0.02301   0.03320
 Alpha virt. eigenvalues --    0.05141   0.05817   0.06098   0.06812   0.06959
 Alpha virt. eigenvalues --    0.07304   0.07534   0.07666   0.07791   0.07886

 Mulliken charges:
               1
     1  C    0.391744
     2  C   -0.097088
     3  C    0.134800
     4  C    0.189666
     5  C    0.340793
     6  C   -0.605313
     7  C    0.178669
     8  C    0.245014
     9  C    0.507212
    10  C   -0.376361
    11  C    0.258971
    12  C    0.135622
    13  C   -0.542070
    14  C   -0.682953
    15  H    0.187578
    16  H    0.188480
    17  H    0.209409
    18  N   -0.082288
    19  N   -0.093096
    20  O   -0.262453
    21  O   -0.266458
    22  O   -0.272732
    23  O   -0.168438
    24  C   -0.288242
    25  H    0.196798
    26  H    0.190584
    27  H    0.201112
    28  C   -0.282953
    29  H    0.193310
    30  H    0.193786
    31  H    0.200222
    32  C    0.086717
    33  C   -0.417308
    34  S   -0.582079
    35  C   -0.082868
    36  H    0.156918
    37  C    0.662162
    38  O   -0.113849
    39  C    0.807063
    40  C   -0.304674
    41  C   -0.029412
    42  S   -0.288982
    43  H    0.181433
    44  H    0.155802
    45  H    0.175350
    46  C   -0.607493
    47  O   -0.113060
    48  C   -0.341435
    49  H    0.155844
    50  C   -0.305847
    51  H    0.185945
    52  H    0.157130
    53  H    0.181148
    54  H    0.158170
 Sum of Mulliken charges =  -0.00000

 Dipole moment (field-independent basis, Debye):
    X=             -2.3084    Y=             -0.2557    Z=              0.1203  Tot=              2.3257
 Quadrupole moment (field-independent basis, Debye-Ang):
   XX=           -216.7471   YY=           -212.6305   ZZ=           -213.2382
   XY=              3.4378   XZ=              5.2759   YZ=             15.0973

 Normal termination of Gaussian 16 at Sun Nov 29 21:18:00 2020.
