 Gaussian 16, Revision C.01,
 Gaussian 16:  ES64L-G16RevC.01  3-Jul-2019

 -------------------------------------
 # opt=modredundant b3lyp/6-311+g(d,p)
 -------------------------------------

 ----------
 NDI_60.pdb
 ----------
 Symbolic Z-matrix:
 Charge =  0 Multiplicity = 1

 SCF Done:  E(RB3LYP) =  -2359.33180664     A.U. after   18 cycles
 SCF Done:  E(RB3LYP) =  -2359.33574075     A.U. after   16 cycles
 SCF Done:  E(RB3LYP) =  -2359.33650153     A.U. after   16 cycles
 SCF Done:  E(RB3LYP) =  -2359.33679087     A.U. after   13 cycles
 SCF Done:  E(RB3LYP) =  -2359.33695085     A.U. after   13 cycles
 SCF Done:  E(RB3LYP) =  -2359.33702880     A.U. after   13 cycles
 SCF Done:  E(RB3LYP) =  -2359.33706261     A.U. after   13 cycles
 SCF Done:  E(RB3LYP) =  -2359.33708064     A.U. after   12 cycles
 SCF Done:  E(RB3LYP) =  -2359.33709581     A.U. after   12 cycles
 SCF Done:  E(RB3LYP) =  -2359.33711241     A.U. after   13 cycles
 SCF Done:  E(RB3LYP) =  -2359.33713083     A.U. after   11 cycles
 SCF Done:  E(RB3LYP) =  -2359.33713105     A.U. after   10 cycles
 SCF Done:  E(RB3LYP) =  -2359.33713130     A.U. after   12 cycles
 SCF Done:  E(RB3LYP) =  -2359.33713172     A.U. after   11 cycles
 SCF Done:  E(RB3LYP) =  -2359.33713201     A.U. after   12 cycles
 SCF Done:  E(RB3LYP) =  -2359.33713234     A.U. after   12 cycles
 SCF Done:  E(RB3LYP) =  -2359.33713284     A.U. after   11 cycles
 SCF Done:  E(RB3LYP) =  -2359.33713302     A.U. after   12 cycles
 SCF Done:  E(RB3LYP) =  -2359.33713310     A.U. after    9 cycles
 SCF Done:  E(RB3LYP) =  -2359.33713314     A.U. after   10 cycles
 Optimization completed.
    -- Stationary point found.

                         Standard orientation:
 ---------------------------------------------------------------------
 Center     Atomic      Atomic             Coordinates (Angstroms)
 Number     Number       Type             X           Y           Z
 ---------------------------------------------------------------------
      1          6           0       -2.690438   -2.922457    0.626210
      2          6           0       -2.319322   -1.504259    0.375191
      3          6           0       -3.316912   -0.542185    0.099699
      4          6           0       -4.677055   -0.913790    0.047524
      5          6           0       -5.084401   -2.321348    0.305888
      6          6           0       -0.998818   -1.132676    0.418537
      7          6           0       -2.924552    0.803670   -0.141301
      8          6           0       -1.551621    1.183415   -0.070744
      9          6           0       -0.572044    0.213756    0.232462
     10          6           0       -1.203911    2.601771   -0.361533
     11          6           0       -3.601712    3.142035   -0.794318
     12          6           0       -3.939710    1.736763   -0.470257
     13          6           0       -5.270359    1.350624   -0.519362
     14          6           0       -5.645770    0.028866   -0.253908
     15          1           0       -6.683544   -0.276696   -0.289755
     16          1           0       -6.010516    2.098063   -0.775683
     17          1           0       -0.262445   -1.892799    0.644174
     18          7           0       -2.243207    3.461463   -0.765923
     19          7           0       -4.053913   -3.236428    0.577264
     20          8           0       -1.867787   -3.786548    0.865137
     21          8           0       -6.249386   -2.671014    0.283132
     22          8           0       -4.449057    3.970666   -1.078374
     23          8           0       -0.077514    3.056439   -0.282120
     24          6           0       -1.847036    4.838608   -1.093764
     25          1           0       -1.488524    5.351183   -0.199598
     26          1           0       -1.040528    4.818369   -1.825080
     27          1           0       -2.718861    5.348865   -1.490761
     28          6           0       -4.408221   -4.639959    0.833459
     29          1           0       -3.920002   -5.282021    0.100066
     30          1           0       -4.066361   -4.930232    1.827169
     31          1           0       -5.487296   -4.730502    0.760700
     32          6           0        0.875968    0.438249    0.331757
     33          6           0        1.582255    1.271449    1.167678
     34         16           0        1.955576   -0.660999   -0.502163
     35          6           0        2.975741    1.056128    1.119521
     36          1           0        1.106954    2.020374    1.780628
     37          6           0        3.372883    0.045756    0.246675
     38          8           0        3.921169    1.732617    1.825941
     39          6           0        4.711546   -0.368103   -0.073219
     40          6           0        3.503140    2.862262    2.587559
     41          6           0        5.103043   -1.401104   -0.917248
     42         16           0        6.140991    0.417393    0.587236
     43          1           0        4.411485    3.292813    3.005373
     44          1           0        3.002932    3.600406    1.953098
     45          1           0        2.836514    2.562608    3.402914
     46          6           0        6.511702   -1.558413   -1.031925
     47          8           0        4.153476   -2.146027   -1.542705
     48          6           0        7.191257   -0.644793   -0.274942
     49          1           0        6.997667   -2.307629   -1.639602
     50          6           0        4.581263   -3.219037   -2.375712
     51          1           0        8.260288   -0.540470   -0.170317
     52          1           0        5.152623   -3.957787   -1.804538
     53          1           0        3.672573   -3.680680   -2.757719
     54          1           0        5.183106   -2.851834   -3.213274
 ---------------------------------------------------------------------

 The electronic state is 1-A.
 Alpha  occ. eigenvalues --  -88.88253 -88.88190 -19.16992 -19.16651 -19.12442
 Alpha  occ. eigenvalues --  -19.12390 -19.11844 -19.11841 -14.38599 -14.38173
 Alpha  occ. eigenvalues --  -10.31048 -10.30866 -10.30668 -10.30426 -10.24570
 Alpha  occ. eigenvalues --  -10.24334 -10.23784 -10.23773 -10.23421 -10.22957
 Alpha  occ. eigenvalues --  -10.22751 -10.22609 -10.22304 -10.22291 -10.22094
 Alpha  occ. eigenvalues --  -10.22002 -10.21844 -10.21550 -10.21397 -10.21164
 Alpha  occ. eigenvalues --  -10.21110 -10.21025 -10.20787 -10.20739 -10.18791
 Alpha  occ. eigenvalues --  -10.18743  -7.96812  -7.96743  -5.93132  -5.93052
 Alpha  occ. eigenvalues --   -5.92742  -5.92664  -5.92357  -5.92311  -1.08687
 Alpha  occ. eigenvalues --   -1.08532  -1.08317  -1.08193  -1.06877  -1.06419
 Alpha  occ. eigenvalues --   -0.96250  -0.95754  -0.92478  -0.90217  -0.88670
 Alpha  occ. eigenvalues --   -0.86645  -0.84293  -0.80403  -0.78463  -0.77586
 Alpha  occ. eigenvalues --   -0.76300  -0.75205  -0.75147  -0.73068  -0.72453
 Alpha  occ. eigenvalues --   -0.71784  -0.70237  -0.68786  -0.67156  -0.65908
 Alpha  occ. eigenvalues --   -0.65592  -0.64692  -0.61013  -0.59773  -0.58582
 Alpha  occ. eigenvalues --   -0.57405  -0.56694  -0.56214  -0.55353  -0.54647
 Alpha  occ. eigenvalues --   -0.53510  -0.51696  -0.50237  -0.49848  -0.49789
 Alpha  occ. eigenvalues --   -0.49496  -0.48675  -0.48631  -0.48533  -0.48223
 Alpha  occ. eigenvalues --   -0.48043  -0.47084  -0.46604  -0.46291  -0.45817
 Alpha  occ. eigenvalues --   -0.45473  -0.45010  -0.44581  -0.44308  -0.43755
 Alpha  occ. eigenvalues --   -0.42701  -0.42508  -0.42341  -0.42011  -0.41841
 Alpha  occ. eigenvalues --   -0.41461  -0.41330  -0.41151  -0.40555  -0.39708
 Alpha  occ. eigenvalues --   -0.39661  -0.39194  -0.38707  -0.37625  -0.37440
 Alpha  occ. eigenvalues --   -0.36273  -0.35598  -0.34248  -0.33823  -0.33670
 Alpha  occ. eigenvalues --   -0.33320  -0.32190  -0.31048  -0.30319  -0.29858
 Alpha  occ. eigenvalues --   -0.29317  -0.28906  -0.28636  -0.28179  -0.27309
 Alpha  occ. eigenvalues --   -0.26173  -0.24582  -0.24450  -0.19267
 Alpha virt. eigenvalues --   -0.13095  -0.07111  -0.06389  -0.04715  -0.03990
 Alpha virt. eigenvalues --   -0.00907  -0.00359  -0.00288   0.00120   0.00536
 Alpha virt. eigenvalues --    0.00668   0.01060   0.01345   0.01458   0.01786

 Mulliken charges:
               1
     1  C    0.335055
     2  C   -0.002837
     3  C    0.086650
     4  C    0.258030
     5  C    0.220843
     6  C   -0.642677
     7  C    0.213964
     8  C    0.155937
     9  C    0.520930
    10  C   -0.259472
    11  C    0.352642
    12  C    0.113696
    13  C   -0.495899
    14  C   -0.665219
    15  H    0.159821
    16  H    0.162051
    17  H    0.185227
    18  N   -0.158989
    19  N   -0.144024
    20  O   -0.275171
    21  O   -0.269131
    22  O   -0.279436
    23  O   -0.185492
    24  C   -0.208304
    25  H    0.173597
    26  H    0.175922
    27  H    0.183171
    28  C   -0.197400
    29  H    0.174073
    30  H    0.174771
    31  H    0.182820
    32  C    0.092607
    33  C   -0.285814
    34  S   -0.493133
    35  C   -0.369695
    36  H    0.133575
    37  C    0.549245
    38  O   -0.122183
    39  C    0.904536
    40  C   -0.244305
    41  C   -0.039139
    42  S   -0.238325
    43  H    0.164681
    44  H    0.160800
    45  H    0.143562
    46  C   -0.495941
    47  O   -0.131860
    48  C   -0.282148
    49  H    0.131189
    50  C   -0.239915
    51  H    0.160317
    52  H    0.145541
    53  H    0.166514
    54  H    0.144738
 Sum of Mulliken charges =  -0.00000

 Dipole moment (field-independent basis, Debye):
    X=              3.6862    Y=             -0.4704    Z=             -0.0207  Tot=              3.7162
 Quadrupole moment (field-independent basis, Debye-Ang):
   XX=           -219.1596   YY=           -217.4787   ZZ=           -212.5959
   XY=             -3.1470   XZ=             -7.2788   YZ=             16.6480

 Normal termination of Gaussian 16 at Thu Nov 26 11:31:47 2020.
