 Gaussian 16, Revision C.01,
 Gaussian 16:  ES64L-G16RevC.01  3-Jul-2019

 -------------------------------------
 # opt=modredundant b3lyp/6-311+g(d,p)
 -------------------------------------

 -----------
 NDI_-95.pdb
 -----------
 Symbolic Z-matrix:
 Charge =  0 Multiplicity = 1

 SCF Done:  E(RB3LYP) =  -2359.32947495     A.U. after   20 cycles
 SCF Done:  E(RB3LYP) =  -2359.33359607     A.U. after   15 cycles
 SCF Done:  E(RB3LYP) =  -2359.33410262     A.U. after   15 cycles
 SCF Done:  E(RB3LYP) =  -2359.33417382     A.U. after   14 cycles
 SCF Done:  E(RB3LYP) =  -2359.33423106     A.U. after   13 cycles
 SCF Done:  E(RB3LYP) =  -2359.33423824     A.U. after   13 cycles
 SCF Done:  E(RB3LYP) =  -2359.33425613     A.U. after   12 cycles
 SCF Done:  E(RB3LYP) =  -2359.33425939     A.U. after   12 cycles
 SCF Done:  E(RB3LYP) =  -2359.33426180     A.U. after   11 cycles
 SCF Done:  E(RB3LYP) =  -2359.33426317     A.U. after   10 cycles
 SCF Done:  E(RB3LYP) =  -2359.33426933     A.U. after   10 cycles
 SCF Done:  E(RB3LYP) =  -2359.33426967     A.U. after   10 cycles
 SCF Done:  E(RB3LYP) =  -2359.33426973     A.U. after    9 cycles
 SCF Done:  E(RB3LYP) =  -2359.33426977     A.U. after    8 cycles
 SCF Done:  E(RB3LYP) =  -2359.33426980     A.U. after    9 cycles
 SCF Done:  E(RB3LYP) =  -2359.33426982     A.U. after    9 cycles
 SCF Done:  E(RB3LYP) =  -2359.33426985     A.U. after    8 cycles
 SCF Done:  E(RB3LYP) =  -2359.33426987     A.U. after    9 cycles
 SCF Done:  E(RB3LYP) =  -2359.33426989     A.U. after    8 cycles
 SCF Done:  E(RB3LYP) =  -2359.33426990     A.U. after    8 cycles
 Optimization completed.
    -- Stationary point found.

                         Standard orientation:
 ---------------------------------------------------------------------
 Center     Atomic      Atomic             Coordinates (Angstroms)
 Number     Number       Type             X           Y           Z
 ---------------------------------------------------------------------
      1          6           0        3.284099   -2.842358    0.132134
      2          6           0        2.640916   -1.501308    0.147538
      3          6           0        3.415668   -0.337948   -0.048481
      4          6           0        4.809224   -0.428265   -0.268541
      5          6           0        5.483258   -1.755481   -0.294856
      6          6           0        1.282682   -1.395525    0.350328
      7          6           0        2.777495    0.931963   -0.022099
      8          6           0        1.375144    1.023662    0.201046
      9          6           0        0.621944   -0.141756    0.379194
     10          6           0        0.748385    2.380493    0.257181
     11          6           0        2.957892    3.440766   -0.216336
     12          6           0        3.571108    2.087458   -0.226139
     13          6           0        4.933469    1.975853   -0.441942
     14          6           0        5.556280    0.718722   -0.462628
     15          1           0        6.621973    0.627735   -0.630453
     16          1           0        5.506429    2.881574   -0.595510
     17          1           0        0.701874   -2.298511    0.489501
     18          7           0        1.581619    3.489082    0.016942
     19          7           0        4.666667   -2.879185   -0.091885
     20          8           0        2.660439   -3.872090    0.303809
     21          8           0        6.679876   -1.866997   -0.481590
     22          8           0        3.613560    4.450237   -0.398159
     23          8           0       -0.425476    2.568278    0.499341
     24          6           0        0.923844    4.804080    0.054713
     25          1           0        0.098784    4.819780   -0.656692
     26          1           0        0.522028    4.989973    1.051318
     27          1           0        1.665659    5.554219   -0.199875
     28          6           0        5.287178   -4.212270   -0.108115
     29          1           0        5.128507   -4.703746    0.851995
     30          1           0        4.828182   -4.821088   -0.887141
     31          1           0        6.347844   -4.084636   -0.299305
     32          6           0       -0.843841   -0.176627    0.598606
     33          6           0       -1.509924   -0.229756    1.791186
     34         16           0       -1.934675   -0.264640   -0.752173
     35          6           0       -2.920091   -0.316046    1.623930
     36          1           0       -1.009309   -0.184046    2.747529
     37          6           0       -3.338727   -0.348204    0.304101
     38          8           0       -3.844908   -0.377374    2.622982
     39          6           0       -4.686800   -0.441443   -0.201329
     40          6           0       -3.389798   -0.249840    3.964509
     41          6           0       -5.098993   -0.486847   -1.524567
     42         16           0       -6.095823   -0.508900    0.848534
     43          1           0       -4.281448   -0.289949    4.588017
     44          1           0       -2.721216   -1.073614    4.236782
     45          1           0       -2.879540    0.706560    4.119564
     46          6           0       -6.509557   -0.571966   -1.695809
     47          8           0       -4.165378   -0.450055   -2.518054
     48          6           0       -7.170463   -0.591845   -0.499856
     49          1           0       -7.009221   -0.616474   -2.652583
     50          6           0       -4.621550   -0.483801   -3.864558
     51          1           0       -8.234888   -0.652200   -0.333426
     52          1           0       -5.260457    0.377129   -4.088185
     53          1           0       -3.727835   -0.440872   -4.484995
     54          1           0       -5.165354   -1.410725   -4.075621
 ---------------------------------------------------------------------

 The electronic state is 1-A.
 Alpha  occ. eigenvalues --  -88.87588 -88.87293 -19.16062 -19.16052 -19.12932
 Alpha  occ. eigenvalues --  -19.12865 -19.12601 -19.12536 -14.39058 -14.38750
 Alpha  occ. eigenvalues --  -10.31560 -10.31341 -10.31240 -10.31206 -10.23943
 Alpha  occ. eigenvalues --  -10.23594 -10.23569 -10.23546 -10.23445 -10.23359
 Alpha  occ. eigenvalues --  -10.23161 -10.23132 -10.23003 -10.22954 -10.22913
 Alpha  occ. eigenvalues --  -10.22001 -10.21910 -10.21892 -10.21380 -10.21307
 Alpha  occ. eigenvalues --  -10.21114 -10.20741 -10.20609 -10.19760 -10.18187
 Alpha  occ. eigenvalues --  -10.17925  -7.96130  -7.95848  -5.92456  -5.92157
 Alpha  occ. eigenvalues --   -5.92064  -5.91769  -5.91668  -5.91417  -1.09169
 Alpha  occ. eigenvalues --   -1.08985  -1.07604  -1.07527  -1.07372  -1.07158
 Alpha  occ. eigenvalues --   -0.96735  -0.96377  -0.93145  -0.89627  -0.88159
 Alpha  occ. eigenvalues --   -0.86843  -0.84929  -0.80511  -0.79067  -0.77076
 Alpha  occ. eigenvalues --   -0.75786  -0.75607  -0.74385  -0.73034  -0.72513
 Alpha  occ. eigenvalues --   -0.71761  -0.69774  -0.68604  -0.67590  -0.66457
 Alpha  occ. eigenvalues --   -0.65926  -0.65071  -0.60822  -0.59434  -0.58557
 Alpha  occ. eigenvalues --   -0.57870  -0.56539  -0.55647  -0.55429  -0.54016
 Alpha  occ. eigenvalues --   -0.53915  -0.52153  -0.50666  -0.50291  -0.50139
 Alpha  occ. eigenvalues --   -0.49097  -0.49075  -0.48887  -0.48036  -0.47806
 Alpha  occ. eigenvalues --   -0.47648  -0.47466  -0.47047  -0.46664  -0.45562
 Alpha  occ. eigenvalues --   -0.45347  -0.45133  -0.44884  -0.44616  -0.44110
 Alpha  occ. eigenvalues --   -0.43106  -0.42875  -0.42510  -0.42021  -0.41832
 Alpha  occ. eigenvalues --   -0.41569  -0.41167  -0.41015  -0.40632  -0.40297
 Alpha  occ. eigenvalues --   -0.40035  -0.38858  -0.38086  -0.37872  -0.36837
 Alpha  occ. eigenvalues --   -0.35830  -0.35462  -0.33557  -0.33195  -0.33000
 Alpha  occ. eigenvalues --   -0.32883  -0.32732  -0.31461  -0.30568  -0.30074
 Alpha  occ. eigenvalues --   -0.29565  -0.29375  -0.28835  -0.28820  -0.27147
 Alpha  occ. eigenvalues --   -0.26854  -0.24088  -0.23724  -0.18537
 Alpha virt. eigenvalues --   -0.13609  -0.07322  -0.06189  -0.05136  -0.04346
 Alpha virt. eigenvalues --   -0.01150  -0.00028   0.00005   0.00268   0.00504
 Alpha virt. eigenvalues --    0.00634   0.00752   0.01054   0.01180   0.01704

 Mulliken charges:
               1
     1  C    0.394128
     2  C    0.056545
     3  C    0.219902
     4  C    0.205300
     5  C    0.272887
     6  C   -0.632704
     7  C    0.189519
     8  C   -0.036166
     9  C    0.494868
    10  C   -0.383744
    11  C    0.203935
    12  C    0.207617
    13  C   -0.518531
    14  C   -0.621722
    15  H    0.162346
    16  H    0.163373
    17  H    0.165207
    18  N   -0.160299
    19  N   -0.147361
    20  O   -0.266481
    21  O   -0.268736
    22  O   -0.268651
    23  O   -0.095713
    24  C   -0.214972
    25  H    0.179117
    26  H    0.176405
    27  H    0.183879
    28  C   -0.201231
    29  H    0.175769
    30  H    0.176034
    31  H    0.182724
    32  C    0.210751
    33  C   -0.432826
    34  S   -0.105125
    35  C   -0.097664
    36  H    0.110759
    37  C    0.189900
    38  O   -0.138710
    39  C    0.795944
    40  C   -0.226716
    41  C    0.053319
    42  S   -0.286826
    43  H    0.164583
    44  H    0.142678
    45  H    0.151013
    46  C   -0.542611
    47  O   -0.151527
    48  C   -0.326755
    49  H    0.127981
    50  C   -0.234918
    51  H    0.156014
    52  H    0.143702
    53  H    0.161916
    54  H    0.141874
 Sum of Mulliken charges =  -0.00000

 Dipole moment (field-independent basis, Debye):
    X=             -1.0138    Y=              0.1491    Z=             -0.0399  Tot=              1.0254
 Quadrupole moment (field-independent basis, Debye-Ang):
   XX=           -221.7708   YY=           -234.1081   ZZ=           -196.4243
   XY=             -2.9747   XZ=             10.1271   YZ=              2.2897

 Normal termination of Gaussian 16 at Thu Nov 26 08:29:52 2020.
