 Gaussian 16, Revision C.01,
 Gaussian 16:  ES64L-G16RevC.01  3-Jul-2019

 -------------------------------------
 # opt=modredundant b3lyp/6-311+g(d,p)
 -------------------------------------

 ---------
 NDI_5.pdb
 ---------
 Symbolic Z-matrix:
 Charge =  0 Multiplicity = 1

 SCF Done:  E(RB3LYP) =  -2359.31914968     A.U. after   17 cycles
 SCF Done:  E(RB3LYP) =  -2359.31518502     A.U. after   18 cycles
 SCF Done:  E(RB3LYP) =  -2359.33180091     A.U. after   15 cycles
 SCF Done:  E(RB3LYP) =  -2359.33403897     A.U. after   16 cycles
 SCF Done:  E(RB3LYP) =  -2359.33437183     A.U. after   13 cycles
 SCF Done:  E(RB3LYP) =  -2359.33487062     A.U. after   13 cycles
 SCF Done:  E(RB3LYP) =  -2359.33503735     A.U. after   13 cycles
 SCF Done:  E(RB3LYP) =  -2359.33512553     A.U. after   13 cycles
 SCF Done:  E(RB3LYP) =  -2359.33517223     A.U. after   12 cycles
 SCF Done:  E(RB3LYP) =  -2359.33521433     A.U. after   12 cycles
 SCF Done:  E(RB3LYP) =  -2359.33523591     A.U. after   12 cycles
 SCF Done:  E(RB3LYP) =  -2359.33524250     A.U. after   11 cycles
 SCF Done:  E(RB3LYP) =  -2359.33524904     A.U. after   12 cycles
 SCF Done:  E(RB3LYP) =  -2359.33525190     A.U. after   11 cycles
 SCF Done:  E(RB3LYP) =  -2359.33525508     A.U. after   11 cycles
 SCF Done:  E(RB3LYP) =  -2359.33525871     A.U. after   10 cycles
 SCF Done:  E(RB3LYP) =  -2359.33525993     A.U. after   10 cycles
 SCF Done:  E(RB3LYP) =  -2359.33526075     A.U. after   11 cycles
 SCF Done:  E(RB3LYP) =  -2359.33526102     A.U. after   10 cycles
 SCF Done:  E(RB3LYP) =  -2359.33526105     A.U. after    8 cycles
 Optimization completed.
    -- Stationary point found.

                         Standard orientation:
 ---------------------------------------------------------------------
 Center     Atomic      Atomic             Coordinates (Angstroms)
 Number     Number       Type             X           Y           Z
 ---------------------------------------------------------------------
      1          6           0       -2.371677   -3.020865    0.305329
      2          6           0       -2.154706   -1.552053    0.226489
      3          6           0       -3.240304   -0.676026    0.001208
      4          6           0       -4.538532   -1.183518   -0.194750
      5          6           0       -4.789941   -2.648647   -0.145002
      6          6           0       -0.888772   -1.055819    0.349504
      7          6           0       -2.983947    0.722171   -0.013398
      8          6           0       -1.662968    1.237870    0.197794
      9          6           0       -0.556573    0.337753    0.285381
     10          6           0       -1.563528    2.704524    0.389804
     11          6           0       -3.925003    3.039048   -0.323040
     12          6           0       -4.091430    1.572886   -0.265037
     13          6           0       -5.362430    1.054610   -0.478048
     14          6           0       -5.597118   -0.320643   -0.435647
     15          1           0       -6.587534   -0.728724   -0.589485
     16          1           0       -6.166873    1.751100   -0.677825
     17          1           0       -0.110175   -1.790484    0.503938
     18          7           0       -2.653406    3.506379    0.007628
     19          7           0       -3.680586   -3.473430    0.111447
     20          8           0       -1.470943   -3.811506    0.520824
     21          8           0       -5.898817   -3.120473   -0.311643
     22          8           0       -4.833214    3.799458   -0.612737
     23          8           0       -0.599334    3.270111    0.884146
     24          6           0       -2.456701    4.959193    0.110657
     25          1           0       -2.349875    5.253387    1.155875
     26          1           0       -1.549404    5.242006   -0.421194
     27          1           0       -3.325692    5.440414   -0.327076
     28          6           0       -3.885542   -4.927053    0.181747
     29          1           0       -3.271536   -5.421823   -0.571103
     30          1           0       -3.587924   -5.293678    1.164463
     31          1           0       -4.937934   -5.124655    0.004675
     32          6           0        0.877949    0.616360    0.245602
     33          6           0        1.623224    1.786875    0.204608
     34         16           0        1.980520   -0.768230    0.103027
     35          6           0        3.004694    1.583600    0.068274
     36          1           0        1.173130    2.755514    0.309485
     37          6           0        3.393362    0.244351   -0.001278
     38          8           0        3.957725    2.549370    0.015067
     39          6           0        4.721883   -0.279263   -0.125910
     40          6           0        3.538732    3.910147    0.110846
     41          6           0        5.107648   -1.617070   -0.173015
     42         16           0        6.149559    0.744393   -0.243764
     43          1           0        4.449140    4.504516    0.060969
     44          1           0        2.880170    4.176440   -0.721461
     45          1           0        3.026855    4.097969    1.059191
     46          6           0        6.509495   -1.813162   -0.298830
     47          8           0        4.160576   -2.583426   -0.101065
     48          6           0        7.188157   -0.626551   -0.348746
     49          1           0        6.991698   -2.778242   -0.350075
     50          6           0        4.578830   -3.946539   -0.125673
     51          1           0        8.253857   -0.482698   -0.441389
     52          1           0        5.234482   -4.170882    0.721401
     53          1           0        3.668461   -4.537509   -0.047528
     54          1           0        5.089055   -4.183250   -1.064548
 ---------------------------------------------------------------------

 The electronic state is 1-A.
 Alpha  occ. eigenvalues --  -88.88937 -88.88639 -19.17699 -19.17177 -19.12151
 Alpha  occ. eigenvalues --  -19.12140 -19.11778 -19.11366 -14.38334 -14.37874
 Alpha  occ. eigenvalues --  -10.30737 -10.30604 -10.30535 -10.29907 -10.25498
 Alpha  occ. eigenvalues --  -10.24888 -10.24210 -10.24153 -10.23653 -10.23026
 Alpha  occ. eigenvalues --  -10.22689 -10.22590 -10.22370 -10.22291 -10.21998
 Alpha  occ. eigenvalues --  -10.21807 -10.21788 -10.21634 -10.21484 -10.21193
 Alpha  occ. eigenvalues --  -10.20837 -10.20640 -10.20562 -10.20471 -10.19489
 Alpha  occ. eigenvalues --  -10.18601  -7.97487  -7.97217  -5.93796  -5.93537
 Alpha  occ. eigenvalues --   -5.93407  -5.93140  -5.93056  -5.92758  -1.09290
 Alpha  occ. eigenvalues --   -1.08738  -1.08410  -1.08114  -1.06593  -1.06080
 Alpha  occ. eigenvalues --   -0.95978  -0.95495  -0.92059  -0.90726  -0.89116
 Alpha  occ. eigenvalues --   -0.86395  -0.83870  -0.80505  -0.78240  -0.77887
 Alpha  occ. eigenvalues --   -0.76727  -0.75634  -0.74943  -0.73550  -0.72279
 Alpha  occ. eigenvalues --   -0.71812  -0.70638  -0.68879  -0.66996  -0.65621
 Alpha  occ. eigenvalues --   -0.65490  -0.64427  -0.61358  -0.60134  -0.58587
 Alpha  occ. eigenvalues --   -0.57313  -0.56867  -0.56711  -0.55406  -0.55001
 Alpha  occ. eigenvalues --   -0.53305  -0.51461  -0.50563  -0.49846  -0.49541
 Alpha  occ. eigenvalues --   -0.49328  -0.49197  -0.48654  -0.48589  -0.48473
 Alpha  occ. eigenvalues --   -0.48201  -0.47145  -0.46466  -0.46174  -0.45995
 Alpha  occ. eigenvalues --   -0.45767  -0.44808  -0.44366  -0.44007  -0.43189
 Alpha  occ. eigenvalues --   -0.43047  -0.42552  -0.42378  -0.42065  -0.41929
 Alpha  occ. eigenvalues --   -0.41621  -0.41141  -0.41027  -0.40435  -0.39841
 Alpha  occ. eigenvalues --   -0.39440  -0.39089  -0.39016  -0.37826  -0.37340
 Alpha  occ. eigenvalues --   -0.36707  -0.36276  -0.34719  -0.34362  -0.33705
 Alpha  occ. eigenvalues --   -0.33387  -0.31833  -0.30796  -0.30463  -0.29715
 Alpha  occ. eigenvalues --   -0.29169  -0.28596  -0.28508  -0.27754  -0.27366
 Alpha  occ. eigenvalues --   -0.26062  -0.25093  -0.25009  -0.19830
 Alpha virt. eigenvalues --   -0.12727  -0.08078  -0.06273  -0.04259  -0.03560
 Alpha virt. eigenvalues --   -0.00850  -0.00456  -0.00262  -0.00140   0.00366
 Alpha virt. eigenvalues --    0.00874   0.01186   0.01331   0.01803   0.01963

 Mulliken charges:
               1
     1  C    0.386977
     2  C    0.000794
     3  C    0.036361
     4  C    0.307566
     5  C    0.297014
     6  C   -0.098462
     7  C    0.070454
     8  C    0.329716
     9  C    0.131567
    10  C   -0.417141
    11  C    0.258022
    12  C    0.194878
    13  C   -0.468311
    14  C   -0.661883
    15  H    0.158170
    16  H    0.160917
    17  H    0.171050
    18  N   -0.069399
    19  N   -0.141298
    20  O   -0.284921
    21  O   -0.270381
    22  O   -0.285700
    23  O   -0.275099
    24  C   -0.166426
    25  H    0.176683
    26  H    0.166749
    27  H    0.182935
    28  C   -0.196018
    29  H    0.173270
    30  H    0.173477
    31  H    0.181993
    32  C   -0.103086
    33  C   -0.051234
    34  S   -0.748543
    35  C   -0.398546
    36  H    0.186769
    37  C    0.642745
    38  O   -0.138067
    39  C    0.840230
    40  C   -0.234747
    41  C    0.020364
    42  S   -0.223709
    43  H    0.166411
    44  H    0.149080
    45  H    0.159019
    46  C   -0.581459
    47  O   -0.123741
    48  C   -0.307217
    49  H    0.133940
    50  C   -0.242992
    51  H    0.163634
    52  H    0.147292
    53  H    0.174385
    54  H    0.145917
 Sum of Mulliken charges =  -0.00000

 Dipole moment (field-independent basis, Debye):
    X=              5.8412    Y=             -0.7766    Z=             -0.4278  Tot=              5.9081
 Quadrupole moment (field-independent basis, Debye-Ang):
   XX=           -214.5806   YY=           -206.2429   ZZ=           -225.5329
   XY=             -5.0854   XZ=             -5.7443   YZ=              1.2032

 Normal termination of Gaussian 16 at Thu Nov 26 12:55:06 2020.
