 Gaussian 16, Revision C.01,
 Gaussian 16:  ES64L-G16RevC.01  3-Jul-2019

 -------------------------------------
 # opt=modredundant b3lyp/6-311+g(d,p)
 -------------------------------------

 -----------
 NDI_-25.pdb
 -----------
 Symbolic Z-matrix:
 Charge =  0 Multiplicity = 1

 SCF Done:  E(RB3LYP) =  -2359.33562739     A.U. after   17 cycles
 SCF Done:  E(RB3LYP) =  -2359.32848225     A.U. after   17 cycles
 SCF Done:  E(RB3LYP) =  -2359.33614768     A.U. after   15 cycles
 SCF Done:  E(RB3LYP) =  -2359.33731738     A.U. after   17 cycles
 SCF Done:  E(RB3LYP) =  -2359.33769798     A.U. after   14 cycles
 SCF Done:  E(RB3LYP) =  -2359.33775888     A.U. after   13 cycles
 SCF Done:  E(RB3LYP) =  -2359.33780435     A.U. after   14 cycles
 SCF Done:  E(RB3LYP) =  -2359.33781494     A.U. after   14 cycles
 SCF Done:  E(RB3LYP) =  -2359.33782459     A.U. after   13 cycles
 SCF Done:  E(RB3LYP) =  -2359.33782653     A.U. after   11 cycles
 SCF Done:  E(RB3LYP) =  -2359.33783179     A.U. after   11 cycles
 SCF Done:  E(RB3LYP) =  -2359.33783291     A.U. after   10 cycles
 SCF Done:  E(RB3LYP) =  -2359.33783429     A.U. after   11 cycles
 SCF Done:  E(RB3LYP) =  -2359.33783467     A.U. after   11 cycles
 SCF Done:  E(RB3LYP) =  -2359.33783481     A.U. after   10 cycles
 SCF Done:  E(RB3LYP) =  -2359.33783486     A.U. after    9 cycles
 SCF Done:  E(RB3LYP) =  -2359.33783489     A.U. after    9 cycles
 SCF Done:  E(RB3LYP) =  -2359.33783490     A.U. after    9 cycles
 SCF Done:  E(RB3LYP) =  -2359.33783491     A.U. after    9 cycles
 SCF Done:  E(RB3LYP) =  -2359.33783492     A.U. after    9 cycles
 Optimization completed.
    -- Stationary point found.

                         Standard orientation:
 ---------------------------------------------------------------------
 Center     Atomic      Atomic             Coordinates (Angstroms)
 Number     Number       Type             X           Y           Z
 ---------------------------------------------------------------------
      1          6           0        2.565025   -3.017324    0.250089
      2          6           0        2.256478   -1.569207    0.114426
      3          6           0        3.298922   -0.614743    0.069503
      4          6           0        4.644767   -1.020371    0.165283
      5          6           0        4.989242   -2.459669    0.315223
      6          6           0        0.950611   -1.161690    0.073932
      7          6           0        2.958530    0.757621   -0.086582
      8          6           0        1.592945    1.169776   -0.176053
      9          6           0        0.557768    0.207802   -0.033557
     10          6           0        1.338064    2.585061   -0.554568
     11          6           0        3.763236    3.132098   -0.331079
     12          6           0        4.026176    1.688950   -0.144095
     13          6           0        5.345502    1.271826   -0.034375
     14          6           0        5.662655   -0.080292    0.119231
     15          1           0        6.689999   -0.411281    0.198547
     16          1           0        6.122626    2.024506   -0.075907
     17          1           0        0.193758   -1.929172    0.171879
     18          7           0        2.428158    3.476610   -0.547186
     19          7           0        3.916468   -3.367323    0.341715
     20          8           0        1.702381   -3.875801    0.282785
     21          8           0        6.140221   -2.842794    0.407980
     22          8           0        4.649281    3.969682   -0.324415
     23          8           0        0.250092    3.020837   -0.891816
     24          6           0        2.115989    4.876386   -0.868293
     25          1           0        1.726445    4.947928   -1.884296
     26          1           0        1.355923    5.250976   -0.182935
     27          1           0        3.032594    5.449556   -0.771438
     28          6           0        4.210610   -4.800773    0.479593
     29          1           0        3.734107   -5.189405    1.379898
     30          1           0        3.815017   -5.341637   -0.380381
     31          1           0        5.288123   -4.916137    0.539345
     32          6           0       -0.870136    0.459293    0.116087
     33          6           0       -1.550319    1.559116    0.602031
     34         16           0       -2.013022   -0.808465   -0.321167
     35          6           0       -2.943842    1.388014    0.637417
     36          1           0       -1.056633    2.459250    0.922996
     37          6           0       -3.388115    0.152974    0.156625
     38          8           0       -3.857988    2.290670    1.077524
     39          6           0       -4.741762   -0.305015    0.033551
     40          6           0       -3.390405    3.582447    1.460781
     41          6           0       -5.180710   -1.542173   -0.430477
     42         16           0       -6.133312    0.681003    0.469846
     43          1           0       -4.279084    4.156592    1.716242
     44          1           0       -2.734900    3.518375    2.335270
     45          1           0       -2.860895    4.067855    0.635499
     46          6           0       -6.593856   -1.693656   -0.435401
     47          8           0       -4.268063   -2.464419   -0.825817
     48          6           0       -7.228894   -0.572855    0.024064
     49          1           0       -7.114365   -2.582515   -0.760303
     50          6           0       -4.739297   -3.731250   -1.278829
     51          1           0       -8.291501   -0.415013    0.128005
     52          1           0       -5.368307   -3.621128   -2.167768
     53          1           0       -3.850437   -4.306005   -1.531568
     54          1           0       -5.296007   -4.247827   -0.490719
 ---------------------------------------------------------------------

 The electronic state is 1-A.
 Alpha  occ. eigenvalues --  -88.88748 -88.88663 -19.17544 -19.17180 -19.12182
 Alpha  occ. eigenvalues --  -19.12154 -19.11476 -19.11452 -14.38358 -14.37861
 Alpha  occ. eigenvalues --  -10.30774 -10.30623 -10.30365 -10.30035 -10.25252
 Alpha  occ. eigenvalues --  -10.24924 -10.24132 -10.23750 -10.23744 -10.22836
 Alpha  occ. eigenvalues --  -10.22600 -10.22244 -10.22228 -10.22139 -10.22120
 Alpha  occ. eigenvalues --  -10.21920 -10.21900 -10.21594 -10.21408 -10.21215
 Alpha  occ. eigenvalues --  -10.20843 -10.20697 -10.20607 -10.20591 -10.19314
 Alpha  occ. eigenvalues --  -10.19037  -7.97299  -7.97231  -5.93609  -5.93547
 Alpha  occ. eigenvalues --   -5.93220  -5.93157  -5.92867  -5.92779  -1.09113
 Alpha  occ. eigenvalues --   -1.08755  -1.08434  -1.07971  -1.06619  -1.06044
 Alpha  occ. eigenvalues --   -0.95997  -0.95422  -0.92132  -0.90648  -0.89053
 Alpha  occ. eigenvalues --   -0.86452  -0.83927  -0.80470  -0.78230  -0.77841
 Alpha  occ. eigenvalues --   -0.76652  -0.75644  -0.74939  -0.73470  -0.72281
 Alpha  occ. eigenvalues --   -0.71780  -0.70566  -0.68894  -0.66945  -0.65612
 Alpha  occ. eigenvalues --   -0.65482  -0.64456  -0.61271  -0.60082  -0.58525
 Alpha  occ. eigenvalues --   -0.57281  -0.56790  -0.56673  -0.55241  -0.55053
 Alpha  occ. eigenvalues --   -0.53374  -0.51490  -0.50354  -0.49814  -0.49539
 Alpha  occ. eigenvalues --   -0.49235  -0.49091  -0.48693  -0.48600  -0.48386
 Alpha  occ. eigenvalues --   -0.48187  -0.46935  -0.46511  -0.46199  -0.45904
 Alpha  occ. eigenvalues --   -0.45716  -0.44739  -0.44361  -0.43985  -0.43424
 Alpha  occ. eigenvalues --   -0.42968  -0.42652  -0.42426  -0.41976  -0.41922
 Alpha  occ. eigenvalues --   -0.41658  -0.41015  -0.40979  -0.40373  -0.39974
 Alpha  occ. eigenvalues --   -0.39391  -0.39196  -0.38994  -0.37859  -0.37412
 Alpha  occ. eigenvalues --   -0.36660  -0.36110  -0.34589  -0.34295  -0.33771
 Alpha  occ. eigenvalues --   -0.33659  -0.31869  -0.30830  -0.30390  -0.29598
 Alpha  occ. eigenvalues --   -0.29165  -0.28684  -0.28529  -0.27836  -0.27225
 Alpha  occ. eigenvalues --   -0.25973  -0.24936  -0.24812  -0.19651
 Alpha virt. eigenvalues --   -0.12849  -0.07690  -0.06276  -0.04327  -0.03665
 Alpha virt. eigenvalues --   -0.00860  -0.00491  -0.00332  -0.00070   0.00370
 Alpha virt. eigenvalues --    0.00828   0.01246   0.01430   0.01739   0.01923

 Mulliken charges:
               1
     1  C    0.277933
     2  C   -0.079155
     3  C    0.190778
     4  C    0.201348
     5  C    0.230308
     6  C   -0.023465
     7  C    0.227855
     8  C    0.509865
     9  C    0.267951
    10  C   -0.713818
    11  C    0.223506
    12  C    0.128848
    13  C   -0.479223
    14  C   -0.584444
    15  H    0.157931
    16  H    0.160500
    17  H    0.170579
    18  N   -0.085301
    19  N   -0.141097
    20  O   -0.284963
    21  O   -0.268428
    22  O   -0.279713
    23  O   -0.236975
    24  C   -0.171353
    25  H    0.177466
    26  H    0.165901
    27  H    0.182931
    28  C   -0.198964
    29  H    0.173846
    30  H    0.173207
    31  H    0.181760
    32  C    0.006393
    33  C   -0.441571
    34  S   -0.658630
    35  C   -0.235284
    36  H    0.141628
    37  C    0.710260
    38  O   -0.127365
    39  C    0.878000
    40  C   -0.241435
    41  C   -0.003366
    42  S   -0.247290
    43  H    0.166219
    44  H    0.145455
    45  H    0.164037
    46  C   -0.622611
    47  O   -0.128140
    48  C   -0.281213
    49  H    0.133434
    50  C   -0.240858
    51  H    0.162794
    52  H    0.145648
    53  H    0.171109
    54  H    0.147173
 Sum of Mulliken charges =  -0.00000

 Dipole moment (field-independent basis, Debye):
    X=             -5.3691    Y=             -0.6474    Z=              0.3642  Tot=              5.4202
 Quadrupole moment (field-independent basis, Debye-Ang):
   XX=           -215.5010   YY=           -210.4731   ZZ=           -220.7741
   XY=              4.6139   XZ=              1.0374   YZ=             11.1719

 Normal termination of Gaussian 16 at Thu Nov 26 09:51:23 2020.
