 Gaussian 16, Revision C.01,
 Gaussian 16:  ES64L-G16RevC.01  3-Jul-2019

 -------------------------------------
 # opt=modredundant b3lyp/6-311+g(d,p)
 -------------------------------------

 -----------
 NDI_-15.pdb
 -----------
 Symbolic Z-matrix:
 Charge =  0 Multiplicity = 1

 SCF Done:  E(RB3LYP) =  -2359.33028331     A.U. after   17 cycles
 SCF Done:  E(RB3LYP) =  -2359.31378582     A.U. after   17 cycles
 SCF Done:  E(RB3LYP) =  -2359.33225280     A.U. after   15 cycles
 SCF Done:  E(RB3LYP) =  -2359.33516826     A.U. after   17 cycles
 SCF Done:  E(RB3LYP) =  -2359.33628805     A.U. after   17 cycles
 SCF Done:  E(RB3LYP) =  -2359.33667396     A.U. after   15 cycles
 SCF Done:  E(RB3LYP) =  -2359.33673047     A.U. after   14 cycles
 SCF Done:  E(RB3LYP) =  -2359.33685091     A.U. after   13 cycles
 SCF Done:  E(RB3LYP) =  -2359.33687732     A.U. after   13 cycles
 SCF Done:  E(RB3LYP) =  -2359.33689045     A.U. after   13 cycles
 SCF Done:  E(RB3LYP) =  -2359.33690851     A.U. after   11 cycles
 SCF Done:  E(RB3LYP) =  -2359.33691028     A.U. after   11 cycles
 SCF Done:  E(RB3LYP) =  -2359.33691108     A.U. after   12 cycles
 SCF Done:  E(RB3LYP) =  -2359.33691138     A.U. after   10 cycles
 SCF Done:  E(RB3LYP) =  -2359.33691146     A.U. after    9 cycles
 SCF Done:  E(RB3LYP) =  -2359.33691150     A.U. after    9 cycles
 SCF Done:  E(RB3LYP) =  -2359.33691153     A.U. after    9 cycles
 SCF Done:  E(RB3LYP) =  -2359.33691156     A.U. after   10 cycles
 SCF Done:  E(RB3LYP) =  -2359.33691159     A.U. after    9 cycles
 SCF Done:  E(RB3LYP) =  -2359.33691161     A.U. after    9 cycles
 Optimization completed.
    -- Stationary point found.

                         Standard orientation:
 ---------------------------------------------------------------------
 Center     Atomic      Atomic             Coordinates (Angstroms)
 Number     Number       Type             X           Y           Z
 ---------------------------------------------------------------------
      1          6           0       -2.499029   -3.032673   -0.121914
      2          6           0       -2.222759   -1.574499   -0.033526
      3          6           0       -3.283765   -0.640234   -0.056676
      4          6           0       -4.617338   -1.075506   -0.181504
      5          6           0       -4.929721   -2.526019   -0.285465
      6          6           0       -0.927494   -1.140148    0.025943
      7          6           0       -2.971475    0.742336    0.059912
      8          6           0       -1.616594    1.184123    0.182118
      9          6           0       -0.555414    0.239189    0.098088
     10          6           0       -1.411593    2.612002    0.538209
     11          6           0       -3.828365    3.108476    0.171814
     12          6           0       -4.057488    1.654250    0.039598
     13          6           0       -5.364738    1.208159   -0.101188
     14          6           0       -5.653303   -0.154231   -0.209015
     15          1           0       -6.671174   -0.507543   -0.310626
     16          1           0       -6.155119    1.947811   -0.120876
     17          1           0       -0.161095   -1.902719   -0.021424
     18          7           0       -2.510262    3.485714    0.431834
     19          7           0       -3.839865   -3.412817   -0.241501
     20          8           0       -1.619535   -3.874321   -0.094902
     21          8           0       -6.069595   -2.935574   -0.399793
     22          8           0       -4.726531    3.929035    0.089295
     23          8           0       -0.356343    3.075354    0.939604
     24          6           0       -2.238014    4.901314    0.717520
     25          1           0       -1.931635    5.021313    1.757356
     26          1           0       -1.429540    5.256029    0.078881
     27          1           0       -3.149746    5.457845    0.524686
     28          6           0       -4.102827   -4.856021   -0.331878
     29          1           0       -3.593551   -5.269362   -1.202800
     30          1           0       -3.721912   -5.355500    0.559173
     31          1           0       -5.175812   -4.995035   -0.417315
     32          6           0        0.870660    0.502181   -0.050679
     33          6           0        1.562865    1.643362   -0.415511
     34         16           0        2.014271   -0.807814    0.260593
     35          6           0        2.954349    1.469013   -0.469444
     36          1           0        1.079320    2.577452   -0.634782
     37          6           0        3.392795    0.188654   -0.119045
     38          8           0        3.873004    2.408359   -0.811264
     39          6           0        4.743302   -0.288093   -0.052220
     40          6           0        3.409284    3.729921   -1.082550
     41          6           0        5.176486   -1.567275    0.288095
     42         16           0        6.138796    0.724984   -0.406959
     43          1           0        4.300456    4.322388   -1.280999
     44          1           0        2.758947    3.743479   -1.962988
     45          1           0        2.875037    4.142145   -0.221406
     46          6           0        6.588240   -1.728459    0.264458
     47          8           0        4.260441   -2.515944    0.602361
     48          6           0        7.227754   -0.573481   -0.093116
     49          1           0        7.104682   -2.647667    0.498735
     50          6           0        4.724941   -3.822686    0.933464
     51          1           0        8.290693   -0.413941   -0.191169
     52          1           0        5.361474   -3.798952    1.823486
     53          1           0        3.833276   -4.411422    1.139671
     54          1           0        5.271454   -4.268523    0.096592
 ---------------------------------------------------------------------

 The electronic state is 1-A.
 Alpha  occ. eigenvalues --  -88.88862 -88.88710 -19.17647 -19.17255 -19.12142
 Alpha  occ. eigenvalues --  -19.12122 -19.11462 -19.11413 -14.38322 -14.37824
 Alpha  occ. eigenvalues --  -10.30731 -10.30588 -10.30352 -10.29963 -10.25393
 Alpha  occ. eigenvalues --  -10.25000 -10.24192 -10.23835 -10.23776 -10.22984
 Alpha  occ. eigenvalues --  -10.22547 -10.22400 -10.22232 -10.22183 -10.22045
 Alpha  occ. eigenvalues --  -10.21843 -10.21828 -10.21537 -10.21509 -10.21196
 Alpha  occ. eigenvalues --  -10.20817 -10.20612 -10.20592 -10.20516 -10.19419
 Alpha  occ. eigenvalues --  -10.19006  -7.97413  -7.97281  -5.93722  -5.93598
 Alpha  occ. eigenvalues --   -5.93333  -5.93206  -5.92981  -5.92828  -1.09225
 Alpha  occ. eigenvalues --   -1.08831  -1.08396  -1.07953  -1.06580  -1.06006
 Alpha  occ. eigenvalues --   -0.95960  -0.95400  -0.92077  -0.90720  -0.89118
 Alpha  occ. eigenvalues --   -0.86413  -0.83869  -0.80490  -0.78231  -0.77860
 Alpha  occ. eigenvalues --   -0.76712  -0.75704  -0.74910  -0.73544  -0.72261
 Alpha  occ. eigenvalues --   -0.71790  -0.70619  -0.68903  -0.66930  -0.65581
 Alpha  occ. eigenvalues --   -0.65472  -0.64415  -0.61327  -0.60138  -0.58531
 Alpha  occ. eigenvalues --   -0.57289  -0.56829  -0.56710  -0.55320  -0.55043
 Alpha  occ. eigenvalues --   -0.53351  -0.51463  -0.50404  -0.49792  -0.49514
 Alpha  occ. eigenvalues --   -0.49224  -0.49170  -0.48719  -0.48639  -0.48394
 Alpha  occ. eigenvalues --   -0.48181  -0.46962  -0.46527  -0.46163  -0.45966
 Alpha  occ. eigenvalues --   -0.45709  -0.44698  -0.44344  -0.43952  -0.43285
 Alpha  occ. eigenvalues --   -0.43052  -0.42684  -0.42482  -0.42049  -0.41897
 Alpha  occ. eigenvalues --   -0.41618  -0.40995  -0.40961  -0.40374  -0.40011
 Alpha  occ. eigenvalues --   -0.39358  -0.39242  -0.38955  -0.37881  -0.37400
 Alpha  occ. eigenvalues --   -0.36694  -0.36250  -0.34668  -0.34371  -0.33736
 Alpha  occ. eigenvalues --   -0.33646  -0.31828  -0.30804  -0.30415  -0.29587
 Alpha  occ. eigenvalues --   -0.29148  -0.28624  -0.28511  -0.27796  -0.27234
 Alpha  occ. eigenvalues --   -0.25989  -0.24995  -0.24894  -0.19732
 Alpha virt. eigenvalues --   -0.12797  -0.07869  -0.06242  -0.04262  -0.03618
 Alpha virt. eigenvalues --   -0.00863  -0.00474  -0.00319  -0.00108   0.00366
 Alpha virt. eigenvalues --    0.00819   0.01287   0.01403   0.01795   0.01946

 Mulliken charges:
               1
     1  C    0.282707
     2  C   -0.045776
     3  C    0.195690
     4  C    0.201473
     5  C    0.246935
     6  C    0.119656
     7  C    0.219059
     8  C    0.498426
     9  C    0.200588
    10  C   -0.838293
    11  C    0.220943
    12  C    0.135667
    13  C   -0.477022
    14  C   -0.580354
    15  H    0.157670
    16  H    0.160524
    17  H    0.166264
    18  N   -0.070676
    19  N   -0.141336
    20  O   -0.286879
    21  O   -0.268034
    22  O   -0.280975
    23  O   -0.253105
    24  C   -0.162326
    25  H    0.178001
    26  H    0.164748
    27  H    0.183331
    28  C   -0.198483
    29  H    0.173736
    30  H    0.172968
    31  H    0.181651
    32  C   -0.056654
    33  C   -0.245710
    34  S   -0.676094
    35  C   -0.432136
    36  H    0.150313
    37  C    0.678856
    38  O   -0.125971
    39  C    0.949868
    40  C   -0.243572
    41  C    0.014567
    42  S   -0.230568
    43  H    0.166792
    44  H    0.145457
    45  H    0.164713
    46  C   -0.612491
    47  O   -0.127667
    48  C   -0.297791
    49  H    0.133849
    50  C   -0.241490
    51  H    0.163513
    52  H    0.145811
    53  H    0.172451
    54  H    0.147179
 Sum of Mulliken charges =  -0.00000

 Dipole moment (field-independent basis, Debye):
    X=              5.6900    Y=             -0.6855    Z=             -0.4090  Tot=              5.7458
 Quadrupole moment (field-independent basis, Debye-Ang):
   XX=           -214.8100   YY=           -208.7433   ZZ=           -222.7236
   XY=             -4.8948   XZ=             -0.7871   YZ=             -8.4365

 Normal termination of Gaussian 16 at Thu Nov 26 09:48:26 2020.
