 Gaussian 16, Revision C.01,
 Gaussian 16:  ES64L-G16RevC.01  3-Jul-2019

 -------------------------------------
 # opt=modredundant b3lyp/6-311+g(d,p)
 -------------------------------------

 ----------
 NDI_35.pdb
 ----------
 Symbolic Z-matrix:
 Charge =  0 Multiplicity = 1

 SCF Done:  E(RB3LYP) =  -2359.33198103     A.U. after   17 cycles
 SCF Done:  E(RB3LYP) =  -2359.32265150     A.U. after   18 cycles
 SCF Done:  E(RB3LYP) =  -2359.33244378     A.U. after   15 cycles
 SCF Done:  E(RB3LYP) =  -2359.33659424     A.U. after   16 cycles
 SCF Done:  E(RB3LYP) =  -2359.33697435     A.U. after   16 cycles
 SCF Done:  E(RB3LYP) =  -2359.33766445     A.U. after   13 cycles
 SCF Done:  E(RB3LYP) =  -2359.33790781     A.U. after   16 cycles
 SCF Done:  E(RB3LYP) =  -2359.33808543     A.U. after   13 cycles
 SCF Done:  E(RB3LYP) =  -2359.33818352     A.U. after   14 cycles
 SCF Done:  E(RB3LYP) =  -2359.33822348     A.U. after   14 cycles
 SCF Done:  E(RB3LYP) =  -2359.33828507     A.U. after   12 cycles
 SCF Done:  E(RB3LYP) =  -2359.33828669     A.U. after   11 cycles
 SCF Done:  E(RB3LYP) =  -2359.33828850     A.U. after   12 cycles
 SCF Done:  E(RB3LYP) =  -2359.33828991     A.U. after    9 cycles
 SCF Done:  E(RB3LYP) =  -2359.33829083     A.U. after   10 cycles
 SCF Done:  E(RB3LYP) =  -2359.33829127     A.U. after    9 cycles
 SCF Done:  E(RB3LYP) =  -2359.33829164     A.U. after   10 cycles
 SCF Done:  E(RB3LYP) =  -2359.33829192     A.U. after   11 cycles
 SCF Done:  E(RB3LYP) =  -2359.33829206     A.U. after   10 cycles
 SCF Done:  E(RB3LYP) =  -2359.33829213     A.U. after    9 cycles
 Optimization completed.
    -- Stationary point found.

                         Standard orientation:
 ---------------------------------------------------------------------
 Center     Atomic      Atomic             Coordinates (Angstroms)
 Number     Number       Type             X           Y           Z
 ---------------------------------------------------------------------
      1          6           0       -2.613156   -2.996398    0.363660
      2          6           0       -2.281175   -1.557560    0.188587
      3          6           0       -3.309066   -0.592663    0.079394
      4          6           0       -4.662980   -0.979526    0.141984
      5          6           0       -5.030926   -2.408722    0.329312
      6          6           0       -0.968340   -1.167855    0.167286
      7          6           0       -2.948500    0.770774   -0.108523
      8          6           0       -1.576304    1.164208   -0.162199
      9          6           0       -0.561345    0.193471    0.031276
     10          6           0       -1.282994    2.573102   -0.540580
     11          6           0       -3.713437    3.143557   -0.471644
     12          6           0       -4.001377    1.711138   -0.239607
     13          6           0       -5.328343    1.312141   -0.165436
     14          6           0       -5.666446   -0.030555    0.025937
     15          1           0       -6.699929   -0.347430    0.079471
     16          1           0       -6.094891    2.070184   -0.265142
     17          1           0       -0.218552   -1.935979    0.305845
     18          7           0       -2.366039    3.468666   -0.635059
     19          7           0       -3.971489   -3.327161    0.422376
     20          8           0       -1.763400   -3.863301    0.453961
     21          8           0       -6.189291   -2.774483    0.396695
     22          8           0       -4.590352    3.987847   -0.539729
     23          8           0       -0.169078    2.998483   -0.793233
     24          6           0       -2.022510    4.856907   -0.974239
     25          1           0       -1.333325    5.259627   -0.231809
     26          1           0       -1.534370    4.890375   -1.948443
     27          1           0       -2.943450    5.431056   -0.988463
     28          6           0       -4.288200   -4.751540    0.599386
     29          1           0       -3.866788   -5.326807   -0.225208
     30          1           0       -3.851046   -5.113109    1.530447
     31          1           0       -5.368534   -4.852953    0.621963
     32          6           0        0.870750    0.436381    0.170007
     33          6           0        1.547513    1.480390    0.766042
     34         16           0        2.005695   -0.789569   -0.378085
     35          6           0        2.942201    1.304767    0.784829
     36          1           0        1.049951    2.343886    1.173541
     37          6           0        3.384042    0.121386    0.188177
     38          8           0        3.857555    2.159506    1.311309
     39          6           0        4.737715   -0.321351    0.012785
     40          6           0        3.394160    3.417767    1.796405
     41          6           0        5.174168   -1.511331   -0.562180
     42         16           0        6.131697    0.626388    0.519702
     43          1           0        4.283869    3.964096    2.104139
     44          1           0        2.872984    3.972537    1.010367
     45          1           0        2.732433    3.286390    2.658701
     46          6           0        6.587637   -1.657918   -0.595152
     47          8           0        4.258900   -2.398419   -1.028194
     48          6           0        7.225589   -0.580154   -0.045816
     49          1           0        7.106233   -2.513586   -1.001997
     50          6           0        4.728688   -3.621110   -1.589903
     51          1           0        8.288841   -0.429408    0.061768
     52          1           0        5.293175   -4.200902   -0.852869
     53          1           0        3.838991   -4.175193   -1.882885
     54          1           0        5.349988   -3.435334   -2.471725
 ---------------------------------------------------------------------

 The electronic state is 1-A.
 Alpha  occ. eigenvalues --  -88.88611 -88.88575 -19.17412 -19.17061 -19.12239
 Alpha  occ. eigenvalues --  -19.12204 -19.11554 -19.11492 -14.38412 -14.37922
 Alpha  occ. eigenvalues --  -10.30835 -10.30676 -10.30414 -10.30123 -10.25083
 Alpha  occ. eigenvalues --  -10.24794 -10.24050 -10.23709 -10.23686 -10.22682
 Alpha  occ. eigenvalues --  -10.22639 -10.22333 -10.22254 -10.22113 -10.22012
 Alpha  occ. eigenvalues --  -10.21993 -10.21982 -10.21705 -10.21254 -10.21245
 Alpha  occ. eigenvalues --  -10.20883 -10.20802 -10.20722 -10.20599 -10.19186
 Alpha  occ. eigenvalues --  -10.18997  -7.97162  -7.97140  -5.93472  -5.93456
 Alpha  occ. eigenvalues --   -5.93082  -5.93067  -5.92730  -5.92688  -1.08973
 Alpha  occ. eigenvalues --   -1.08630  -1.08491  -1.08026  -1.06676  -1.06112
 Alpha  occ. eigenvalues --   -0.96053  -0.95474  -0.92204  -0.90547  -0.88962
 Alpha  occ. eigenvalues --   -0.86499  -0.84005  -0.80446  -0.78256  -0.77797
 Alpha  occ. eigenvalues --   -0.76572  -0.75541  -0.74987  -0.73370  -0.72313
 Alpha  occ. eigenvalues --   -0.71772  -0.70492  -0.68873  -0.66982  -0.65668
 Alpha  occ. eigenvalues --   -0.65498  -0.64512  -0.61205  -0.60006  -0.58531
 Alpha  occ. eigenvalues --   -0.57283  -0.56772  -0.56578  -0.55199  -0.55010
 Alpha  occ. eigenvalues --   -0.53399  -0.51531  -0.50299  -0.49848  -0.49586
 Alpha  occ. eigenvalues --   -0.49276  -0.48985  -0.48653  -0.48531  -0.48396
 Alpha  occ. eigenvalues --   -0.48185  -0.46936  -0.46493  -0.46234  -0.45846
 Alpha  occ. eigenvalues --   -0.45713  -0.44805  -0.44389  -0.44051  -0.43533
 Alpha  occ. eigenvalues --   -0.42876  -0.42601  -0.42378  -0.41963  -0.41858
 Alpha  occ. eigenvalues --   -0.41712  -0.41068  -0.41021  -0.40392  -0.39896
 Alpha  occ. eigenvalues --   -0.39454  -0.39116  -0.39022  -0.37804  -0.37428
 Alpha  occ. eigenvalues --   -0.36591  -0.35952  -0.34498  -0.34189  -0.33787
 Alpha  occ. eigenvalues --   -0.33603  -0.31932  -0.30870  -0.30366  -0.29639
 Alpha  occ. eigenvalues --   -0.29191  -0.28744  -0.28560  -0.27895  -0.27234
 Alpha  occ. eigenvalues --   -0.25990  -0.24856  -0.24722  -0.19555
 Alpha virt. eigenvalues --   -0.12910  -0.07503  -0.06322  -0.04416  -0.03721
 Alpha virt. eigenvalues --   -0.00858  -0.00478  -0.00330  -0.00025   0.00390
 Alpha virt. eigenvalues --    0.00821   0.01203   0.01457   0.01664   0.01867

 Mulliken charges:
               1
     1  C    0.285864
     2  C   -0.094635
     3  C    0.166338
     4  C    0.205225
     5  C    0.226602
     6  C   -0.237797
     7  C    0.217465
     8  C    0.430058
     9  C    0.387551
    10  C   -0.524548
    11  C    0.220088
    12  C    0.140548
    13  C   -0.478252
    14  C   -0.585769
    15  H    0.158298
    16  H    0.160597
    17  H    0.176473
    18  N   -0.109651
    19  N   -0.141857
    20  O   -0.282442
    21  O   -0.268641
    22  O   -0.278093
    23  O   -0.220585
    24  C   -0.185008
    25  H    0.167605
    26  H    0.176823
    27  H    0.182629
    28  C   -0.198357
    29  H    0.173389
    30  H    0.174110
    31  H    0.181966
    32  C    0.080211
    33  C   -0.512829
    34  S   -0.609905
    35  C   -0.199116
    36  H    0.136932
    37  C    0.715703
    38  O   -0.128679
    39  C    0.833385
    40  C   -0.240982
    41  C   -0.025627
    42  S   -0.256832
    43  H    0.165579
    44  H    0.162805
    45  H    0.145074
    46  C   -0.608238
    47  O   -0.128631
    48  C   -0.271276
    49  H    0.132866
    50  C   -0.240695
    51  H    0.162008
    52  H    0.146905
    53  H    0.169792
    54  H    0.145556
 Sum of Mulliken charges =  -0.00000

 Dipole moment (field-independent basis, Debye):
    X=              4.9664    Y=             -0.6072    Z=              0.2863  Tot=              5.0115
 Quadrupole moment (field-independent basis, Debye-Ang):
   XX=           -216.4270   YY=           -212.2758   ZZ=           -218.6508
   XY=             -4.2707   XZ=             -2.7951   YZ=             13.3286

 Normal termination of Gaussian 16 at Thu Nov 26 11:31:20 2020.
