 Gaussian 16, Revision C.01,
 Gaussian 16:  ES64L-G16RevC.01  3-Jul-2019

 -------------------------------------
 # opt=modredundant b3lyp/6-311+g(d,p)
 -------------------------------------

 ----------
 NDI_15.pdb
 ----------
 Symbolic Z-matrix:
 Charge =  0 Multiplicity = 1

 SCF Done:  E(RB3LYP) =  -2359.32129280     A.U. after   17 cycles
 SCF Done:  E(RB3LYP) =  -2359.31699932     A.U. after   17 cycles
 SCF Done:  E(RB3LYP) =  -2359.33243592     A.U. after   14 cycles
 SCF Done:  E(RB3LYP) =  -2359.33447818     A.U. after   16 cycles
 SCF Done:  E(RB3LYP) =  -2359.33516060     A.U. after   15 cycles
 SCF Done:  E(RB3LYP) =  -2359.33522490     A.U. after   14 cycles
 SCF Done:  E(RB3LYP) =  -2359.33536078     A.U. after   12 cycles
 SCF Done:  E(RB3LYP) =  -2359.33541137     A.U. after   13 cycles
 SCF Done:  E(RB3LYP) =  -2359.33545259     A.U. after   13 cycles
 SCF Done:  E(RB3LYP) =  -2359.33549151     A.U. after   14 cycles
 SCF Done:  E(RB3LYP) =  -2359.33684791     A.U. after   12 cycles
 SCF Done:  E(RB3LYP) =  -2359.33687438     A.U. after   12 cycles
 SCF Done:  E(RB3LYP) =  -2359.33688911     A.U. after   13 cycles
 SCF Done:  E(RB3LYP) =  -2359.33689737     A.U. after   11 cycles
 SCF Done:  E(RB3LYP) =  -2359.33690206     A.U. after   10 cycles
 SCF Done:  E(RB3LYP) =  -2359.33690842     A.U. after   11 cycles
 SCF Done:  E(RB3LYP) =  -2359.33691258     A.U. after   11 cycles
 SCF Done:  E(RB3LYP) =  -2359.33691351     A.U. after   10 cycles
 SCF Done:  E(RB3LYP) =  -2359.33691382     A.U. after   10 cycles
 SCF Done:  E(RB3LYP) =  -2359.33691392     A.U. after    9 cycles
 Optimization completed.
    -- Stationary point found.

                         Standard orientation:
 ---------------------------------------------------------------------
 Center     Atomic      Atomic             Coordinates (Angstroms)
 Number     Number       Type             X           Y           Z
 ---------------------------------------------------------------------
      1          6           0       -2.498939   -3.032650    0.122405
      2          6           0       -2.222732   -1.574465    0.033780
      3          6           0       -3.283778   -0.640225    0.056735
      4          6           0       -4.617325   -1.075541    0.181580
      5          6           0       -4.929655   -2.526057    0.285751
      6          6           0       -0.927483   -1.140070   -0.025647
      7          6           0       -2.971505    0.742340   -0.059992
      8          6           0       -1.616617    1.184156   -0.182124
      9          6           0       -0.555413    0.239274   -0.097934
     10          6           0       -1.411623    2.612021   -0.538239
     11          6           0       -3.828570    3.108395   -0.172508
     12          6           0       -4.057566    1.654192   -0.039929
     13          6           0       -5.364816    1.208063    0.100876
     14          6           0       -5.653342   -0.154303    0.208957
     15          1           0       -6.671197   -0.507644    0.310622
     16          1           0       -6.155209    1.947711    0.120350
     17          1           0       -0.161092   -1.902632    0.022026
     18          7           0       -2.510411    3.485673   -0.432291
     19          7           0       -3.839811   -3.412848    0.241435
     20          8           0       -1.619379   -3.874242    0.095940
     21          8           0       -6.069486   -2.935616    0.400489
     22          8           0       -4.726840    3.928883   -0.090422
     23          8           0       -0.356251    3.075461   -0.939209
     24          6           0       -2.238191    4.901230   -0.718246
     25          1           0       -1.430854    5.256587   -0.078491
     26          1           0       -1.930170    5.020747   -1.757634
     27          1           0       -3.150386    5.457556   -0.527034
     28          6           0       -4.102756   -4.856057    0.331804
     29          1           0       -3.717013   -5.356005   -0.556853
     30          1           0       -3.597924   -5.268643    1.205718
     31          1           0       -5.176108   -4.995347    0.412030
     32          6           0        0.870665    0.502225    0.050843
     33          6           0        1.562902    1.643313    0.415924
     34         16           0        2.014263   -0.807818   -0.260386
     35          6           0        2.954363    1.468880    0.470046
     36          1           0        1.079429    2.577452    0.635158
     37          6           0        3.392784    0.188544    0.119490
     38          8           0        3.873035    2.408120    0.812113
     39          6           0        4.743294   -0.288153    0.052496
     40          6           0        3.409407    3.729755    1.083279
     41          6           0        5.176480   -1.567292   -0.288014
     42         16           0        6.138796    0.724925    0.407198
     43          1           0        4.300614    4.322132    1.281843
     44          1           0        2.875326    4.141989    0.222040
     45          1           0        2.758952    3.743407    1.963626
     46          6           0        6.588245   -1.728403   -0.264650
     47          8           0        4.260412   -2.516051   -0.601908
     48          6           0        7.227760   -0.573430    0.092955
     49          1           0        7.104696   -2.647566   -0.499081
     50          6           0        4.725099   -3.821799   -0.936661
     51          1           0        8.290707   -0.413852    0.190870
     52          1           0        5.272385   -4.269572   -0.101325
     53          1           0        3.833470   -4.410320   -1.143638
     54          1           0        5.360951   -3.795588   -1.827095
 ---------------------------------------------------------------------

 The electronic state is 1-A.
 Alpha  occ. eigenvalues --  -88.88862 -88.88710 -19.17647 -19.17255 -19.12142
 Alpha  occ. eigenvalues --  -19.12122 -19.11462 -19.11413 -14.38322 -14.37824
 Alpha  occ. eigenvalues --  -10.30731 -10.30588 -10.30352 -10.29962 -10.25393
 Alpha  occ. eigenvalues --  -10.25000 -10.24192 -10.23835 -10.23776 -10.22984
 Alpha  occ. eigenvalues --  -10.22547 -10.22400 -10.22232 -10.22183 -10.22045
 Alpha  occ. eigenvalues --  -10.21843 -10.21828 -10.21538 -10.21509 -10.21196
 Alpha  occ. eigenvalues --  -10.20817 -10.20612 -10.20592 -10.20516 -10.19419
 Alpha  occ. eigenvalues --  -10.19006  -7.97413  -7.97281  -5.93723  -5.93598
 Alpha  occ. eigenvalues --   -5.93333  -5.93206  -5.92981  -5.92828  -1.09226
 Alpha  occ. eigenvalues --   -1.08831  -1.08396  -1.07952  -1.06580  -1.06006
 Alpha  occ. eigenvalues --   -0.95960  -0.95399  -0.92076  -0.90720  -0.89118
 Alpha  occ. eigenvalues --   -0.86412  -0.83868  -0.80490  -0.78231  -0.77860
 Alpha  occ. eigenvalues --   -0.76712  -0.75704  -0.74909  -0.73544  -0.72261
 Alpha  occ. eigenvalues --   -0.71790  -0.70620  -0.68903  -0.66929  -0.65580
 Alpha  occ. eigenvalues --   -0.65472  -0.64414  -0.61327  -0.60138  -0.58531
 Alpha  occ. eigenvalues --   -0.57289  -0.56829  -0.56710  -0.55320  -0.55043
 Alpha  occ. eigenvalues --   -0.53351  -0.51463  -0.50403  -0.49791  -0.49514
 Alpha  occ. eigenvalues --   -0.49224  -0.49170  -0.48718  -0.48639  -0.48393
 Alpha  occ. eigenvalues --   -0.48181  -0.46962  -0.46527  -0.46162  -0.45966
 Alpha  occ. eigenvalues --   -0.45709  -0.44698  -0.44344  -0.43951  -0.43285
 Alpha  occ. eigenvalues --   -0.43052  -0.42684  -0.42482  -0.42049  -0.41897
 Alpha  occ. eigenvalues --   -0.41618  -0.40996  -0.40959  -0.40374  -0.40010
 Alpha  occ. eigenvalues --   -0.39357  -0.39242  -0.38956  -0.37881  -0.37400
 Alpha  occ. eigenvalues --   -0.36694  -0.36249  -0.34669  -0.34371  -0.33734
 Alpha  occ. eigenvalues --   -0.33648  -0.31827  -0.30804  -0.30414  -0.29588
 Alpha  occ. eigenvalues --   -0.29147  -0.28624  -0.28511  -0.27795  -0.27234
 Alpha  occ. eigenvalues --   -0.25989  -0.24995  -0.24894  -0.19732
 Alpha virt. eigenvalues --   -0.12797  -0.07869  -0.06242  -0.04262  -0.03618
 Alpha virt. eigenvalues --   -0.00862  -0.00474  -0.00320  -0.00108   0.00366
 Alpha virt. eigenvalues --    0.00819   0.01287   0.01403   0.01795   0.01946

 Mulliken charges:
               1
     1  C    0.282808
     2  C   -0.045587
     3  C    0.195834
     4  C    0.201367
     5  C    0.247103
     6  C    0.119669
     7  C    0.219031
     8  C    0.498170
     9  C    0.200450
    10  C   -0.837991
    11  C    0.221013
    12  C    0.135439
    13  C   -0.476899
    14  C   -0.580197
    15  H    0.157673
    16  H    0.160525
    17  H    0.166297
    18  N   -0.070861
    19  N   -0.141332
    20  O   -0.286878
    21  O   -0.268041
    22  O   -0.280938
    23  O   -0.253107
    24  C   -0.162394
    25  H    0.164761
    26  H    0.178001
    27  H    0.183332
    28  C   -0.198516
    29  H    0.172910
    30  H    0.173796
    31  H    0.181650
    32  C   -0.056519
    33  C   -0.246181
    34  S   -0.676247
    35  C   -0.431448
    36  H    0.150327
    37  C    0.678735
    38  O   -0.125997
    39  C    0.949668
    40  C   -0.243582
    41  C    0.014571
    42  S   -0.230603
    43  H    0.166789
    44  H    0.164725
    45  H    0.145460
    46  C   -0.612609
    47  O   -0.127681
    48  C   -0.297799
    49  H    0.133851
    50  C   -0.241504
    51  H    0.163513
    52  H    0.147137
    53  H    0.172449
    54  H    0.145860
 Sum of Mulliken charges =  -0.00000

 Dipole moment (field-independent basis, Debye):
    X=              5.6907    Y=             -0.6849    Z=              0.4027  Tot=              5.7459
 Quadrupole moment (field-independent basis, Debye-Ang):
   XX=           -214.8085   YY=           -208.7528   ZZ=           -222.7130
   XY=             -4.8873   XZ=              0.7690   YZ=              8.4648

 Normal termination of Gaussian 16 at Thu Nov 26 16:34:05 2020.
