 Gaussian 16, Revision C.01,
 Gaussian 16:  ES64L-G16RevC.01  3-Jul-2019

 -------------------------------------
 # opt=modredundant b3lyp/6-311+g(d,p)
 -------------------------------------

 -----------
 NDI_110.pdb
 -----------
 Symbolic Z-matrix:
 Charge =  0 Multiplicity = 1

 SCF Done:  E(RB3LYP) =  -2359.33167020     A.U. after   19 cycles
 SCF Done:  E(RB3LYP) =  -2359.33448592     A.U. after   14 cycles
 SCF Done:  E(RB3LYP) =  -2359.33477706     A.U. after   15 cycles
 SCF Done:  E(RB3LYP) =  -2359.33500376     A.U. after   13 cycles
 SCF Done:  E(RB3LYP) =  -2359.33506973     A.U. after   13 cycles
 SCF Done:  E(RB3LYP) =  -2359.33509139     A.U. after   12 cycles
 SCF Done:  E(RB3LYP) =  -2359.33510402     A.U. after   12 cycles
 SCF Done:  E(RB3LYP) =  -2359.33511506     A.U. after   12 cycles
 SCF Done:  E(RB3LYP) =  -2359.33512496     A.U. after   12 cycles
 SCF Done:  E(RB3LYP) =  -2359.33519036     A.U. after   11 cycles
 SCF Done:  E(RB3LYP) =  -2359.33520496     A.U. after   12 cycles
 SCF Done:  E(RB3LYP) =  -2359.33520550     A.U. after   11 cycles
 SCF Done:  E(RB3LYP) =  -2359.33520586     A.U. after   11 cycles
 SCF Done:  E(RB3LYP) =  -2359.33520632     A.U. after   11 cycles
 SCF Done:  E(RB3LYP) =  -2359.33520674     A.U. after   11 cycles
 SCF Done:  E(RB3LYP) =  -2359.33520705     A.U. after   11 cycles
 SCF Done:  E(RB3LYP) =  -2359.33520737     A.U. after   10 cycles
 SCF Done:  E(RB3LYP) =  -2359.33520759     A.U. after   11 cycles
 SCF Done:  E(RB3LYP) =  -2359.33520768     A.U. after   10 cycles
 SCF Done:  E(RB3LYP) =  -2359.33520770     A.U. after    9 cycles
 Optimization completed.
    -- Stationary point found.

                         Standard orientation:
 ---------------------------------------------------------------------
 Center     Atomic      Atomic             Coordinates (Angstroms)
 Number     Number       Type             X           Y           Z
 ---------------------------------------------------------------------
      1          6           0        3.473585   -2.750278    0.335007
      2          6           0        2.743136   -1.478774    0.089592
      3          6           0        3.432928   -0.246402    0.108958
      4          6           0        4.820166   -0.199939    0.372383
      5          6           0        5.578788   -1.453519    0.633455
      6          6           0        1.385167   -1.502328   -0.136415
      7          6           0        2.713938    0.952647   -0.148160
      8          6           0        1.317396    0.907033   -0.415512
      9          6           0        0.639181   -0.317880   -0.364380
     10          6           0        0.632828    2.170591   -0.821950
     11          6           0        2.720890    3.462940   -0.383643
     12          6           0        3.421916    2.179234   -0.124979
     13          6           0        4.780280    2.202352    0.142053
     14          6           0        5.483196    1.014250    0.389317
     15          1           0        6.546001    1.027980    0.594979
     16          1           0        5.285987    3.159599    0.155880
     17          1           0        0.867858   -2.453177   -0.114812
     18          7           0        1.364553    3.367376   -0.703760
     19          7           0        4.846618   -2.651382    0.594802
     20          8           0        2.927149   -3.837027    0.316037
     21          8           0        6.772518   -1.448718    0.866842
     22          8           0        3.293077    4.536710   -0.333818
     23          8           0       -0.499120    2.210965   -1.258511
     24          6           0        0.640362    4.600915   -1.044690
     25          1           0        0.428524    4.629692   -2.114809
     26          1           0       -0.305569    4.623363   -0.506065
     27          1           0        1.266493    5.442561   -0.765842
     28          6           0        5.554219   -3.916447    0.841584
     29          1           0        5.108790   -4.425411    1.696455
     30          1           0        5.464629   -4.564551   -0.030510
     31          1           0        6.596110   -3.683688    1.036912
     32          6           0       -0.819298   -0.483228   -0.522765
     33          6           0       -1.482391   -1.053765   -1.577214
     34         16           0       -1.918789    0.032742    0.722004
     35          6           0       -2.890748   -1.058365   -1.397105
     36          1           0       -0.977054   -1.422332   -2.458294
     37          6           0       -3.315301   -0.511846   -0.194177
     38          8           0       -3.812738   -1.544488   -2.273215
     39          6           0       -4.662879   -0.406501    0.305576
     40          6           0       -3.345905   -2.094178   -3.499783
     41          6           0       -5.083506    0.138901    1.510415
     42         16           0       -6.062115   -0.981720   -0.591581
     43          1           0       -4.234327   -2.415784   -4.040557
     44          1           0       -2.812367   -1.342986   -4.091442
     45          1           0       -2.695116   -2.957444   -3.324692
     46          6           0       -6.491879    0.099884    1.710172
     47          8           0       -4.159090    0.644304    2.374319
     48          6           0       -7.142558   -0.477459    0.655966
     49          1           0       -6.997473    0.478600    2.586480
     50          6           0       -4.624657    1.231666    3.583561
     51          1           0       -8.203923   -0.634285    0.540460
     52          1           0       -5.150685    0.497686    4.203042
     53          1           0       -3.736509    1.577353    4.109881
     54          1           0       -5.282572    2.083511    3.382039
 ---------------------------------------------------------------------

 The electronic state is 1-A.
 Alpha  occ. eigenvalues --  -88.87755 -88.87606 -19.16396 -19.16355 -19.12749
 Alpha  occ. eigenvalues --  -19.12692 -19.12328 -19.12273 -14.38888 -14.38485
 Alpha  occ. eigenvalues --  -10.31370 -10.31170 -10.30966 -10.30926 -10.23917
 Alpha  occ. eigenvalues --  -10.23830 -10.23752 -10.23410 -10.23337 -10.23303
 Alpha  occ. eigenvalues --  -10.23195 -10.23093 -10.22748 -10.22688 -10.22655
 Alpha  occ. eigenvalues --  -10.21758 -10.21716 -10.21642 -10.21521 -10.21248
 Alpha  occ. eigenvalues --  -10.21176 -10.20941 -10.20938 -10.20112 -10.18490
 Alpha  occ. eigenvalues --  -10.18227  -7.96304  -7.96160  -5.92630  -5.92470
 Alpha  occ. eigenvalues --   -5.92238  -5.92081  -5.91841  -5.91729  -1.08984
 Alpha  occ. eigenvalues --   -1.08703  -1.07934  -1.07858  -1.07184  -1.06868
 Alpha  occ. eigenvalues --   -0.96547  -0.96130  -0.92908  -0.89818  -0.88314
 Alpha  occ. eigenvalues --   -0.86832  -0.84697  -0.80463  -0.78841  -0.77251
 Alpha  occ. eigenvalues --   -0.75987  -0.75463  -0.74685  -0.72906  -0.72638
 Alpha  occ. eigenvalues --   -0.71694  -0.70017  -0.68685  -0.67412  -0.66244
 Alpha  occ. eigenvalues --   -0.65744  -0.64997  -0.60809  -0.59581  -0.58594
 Alpha  occ. eigenvalues --   -0.57702  -0.56643  -0.55746  -0.55392  -0.54262
 Alpha  occ. eigenvalues --   -0.53903  -0.51983  -0.50484  -0.50106  -0.49940
 Alpha  occ. eigenvalues --   -0.49320  -0.48890  -0.48771  -0.48240  -0.47983
 Alpha  occ. eigenvalues --   -0.47692  -0.47513  -0.46867  -0.46573  -0.45604
 Alpha  occ. eigenvalues --   -0.45313  -0.45047  -0.44909  -0.44551  -0.44097
 Alpha  occ. eigenvalues --   -0.42969  -0.42658  -0.42269  -0.42098  -0.41726
 Alpha  occ. eigenvalues --   -0.41498  -0.41338  -0.41061  -0.40744  -0.40155
 Alpha  occ. eigenvalues --   -0.39808  -0.38887  -0.38319  -0.37817  -0.37093
 Alpha  occ. eigenvalues --   -0.35926  -0.35646  -0.33783  -0.33341  -0.33237
 Alpha  occ. eigenvalues --   -0.33170  -0.32552  -0.31287  -0.30421  -0.29904
 Alpha  occ. eigenvalues --   -0.29371  -0.29166  -0.28815  -0.28477  -0.27385
 Alpha  occ. eigenvalues --   -0.26550  -0.24347  -0.23955  -0.18799
 Alpha virt. eigenvalues --   -0.13405  -0.07161  -0.06167  -0.05003  -0.04294
 Alpha virt. eigenvalues --   -0.01033  -0.00283  -0.00142   0.00179   0.00606
 Alpha virt. eigenvalues --    0.00682   0.00889   0.01036   0.01193   0.01778

 Mulliken charges:
               1
     1  C    0.401760
     2  C   -0.047795
     3  C    0.126896
     4  C    0.254281
     5  C    0.257121
     6  C   -0.636558
     7  C    0.147469
     8  C    0.058719
     9  C    0.440013
    10  C   -0.273554
    11  C    0.298423
    12  C    0.212904
    13  C   -0.510811
    14  C   -0.661865
    15  H    0.161710
    16  H    0.163011
    17  H    0.162748
    18  N   -0.098429
    19  N   -0.143200
    20  O   -0.270611
    21  O   -0.271098
    22  O   -0.275156
    23  O   -0.143372
    24  C   -0.189500
    25  H    0.178491
    26  H    0.179205
    27  H    0.182937
    28  C   -0.200927
    29  H    0.175779
    30  H    0.175076
    31  H    0.182933
    32  C    0.554792
    33  C   -0.834188
    34  S   -0.295875
    35  C   -0.279746
    36  H    0.117574
    37  C    0.349864
    38  O   -0.118227
    39  C    0.973081
    40  C   -0.245705
    41  C    0.003880
    42  S   -0.256476
    43  H    0.165695
    44  H    0.148971
    45  H    0.147549
    46  C   -0.522244
    47  O   -0.144562
    48  C   -0.300475
    49  H    0.129045
    50  C   -0.236762
    51  H    0.157564
    52  H    0.142521
    53  H    0.162771
    54  H    0.144356
 Sum of Mulliken charges =  -0.00000

 Dipole moment (field-independent basis, Debye):
    X=             -1.9788    Y=             -0.0504    Z=              0.1630  Tot=              1.9861
 Quadrupole moment (field-independent basis, Debye-Ang):
   XX=           -219.2469   YY=           -230.6511   ZZ=           -201.4743
   XY=             -6.3746   XZ=            -10.3641   YZ=             11.0544

 Normal termination of Gaussian 16 at Thu Nov 26 14:17:57 2020.
