 Gaussian 16, Revision C.01,
 Gaussian 16:  ES64L-G16RevC.01  3-Jul-2019

 -------------------------------------
 # opt=modredundant b3lyp/6-311+g(d,p)
 -------------------------------------

 ----------
 NDI_95.pdb
 ----------
 Symbolic Z-matrix:
 Charge =  0 Multiplicity = 1

 SCF Done:  E(RB3LYP) =  -2359.33012512     A.U. after   18 cycles
 SCF Done:  E(RB3LYP) =  -2359.33317433     A.U. after   15 cycles
 SCF Done:  E(RB3LYP) =  -2359.33392126     A.U. after   15 cycles
 SCF Done:  E(RB3LYP) =  -2359.33405720     A.U. after   15 cycles
 SCF Done:  E(RB3LYP) =  -2359.33417202     A.U. after   14 cycles
 SCF Done:  E(RB3LYP) =  -2359.33420003     A.U. after   14 cycles
 SCF Done:  E(RB3LYP) =  -2359.33422732     A.U. after   12 cycles
 SCF Done:  E(RB3LYP) =  -2359.33423726     A.U. after   12 cycles
 SCF Done:  E(RB3LYP) =  -2359.33424454     A.U. after   11 cycles
 SCF Done:  E(RB3LYP) =  -2359.33425149     A.U. after   12 cycles
 SCF Done:  E(RB3LYP) =  -2359.33425592     A.U. after   11 cycles
 SCF Done:  E(RB3LYP) =  -2359.33426197     A.U. after   11 cycles
 SCF Done:  E(RB3LYP) =  -2359.33426563     A.U. after   11 cycles
 SCF Done:  E(RB3LYP) =  -2359.33426832     A.U. after   11 cycles
 SCF Done:  E(RB3LYP) =  -2359.33426909     A.U. after   11 cycles
 SCF Done:  E(RB3LYP) =  -2359.33426927     A.U. after   10 cycles
 SCF Done:  E(RB3LYP) =  -2359.33426937     A.U. after    9 cycles
 Optimization completed.
    -- Stationary point found.

                         Standard orientation:
 ---------------------------------------------------------------------
 Center     Atomic      Atomic             Coordinates (Angstroms)
 Number     Number       Type             X           Y           Z
 ---------------------------------------------------------------------
      1          6           0        3.283778   -2.842489   -0.132443
      2          6           0        2.640768   -1.501362   -0.147412
      3          6           0        3.415713   -0.338141    0.048629
      4          6           0        4.809299   -0.428682    0.268364
      5          6           0        5.483103   -1.756009    0.294477
      6          6           0        1.282521   -1.395371   -0.350059
      7          6           0        2.777676    0.931833    0.022529
      8          6           0        1.375309    1.023734   -0.200276
      9          6           0        0.621902   -0.141542   -0.378545
     10          6           0        0.748658    2.380573   -0.255729
     11          6           0        2.958543    3.440621    0.216571
     12          6           0        3.571532    2.087224    0.226297
     13          6           0        4.933913    1.975402    0.441773
     14          6           0        5.556579    0.718185    0.462253
     15          1           0        6.622304    0.627071    0.629770
     16          1           0        5.507033    2.881050    0.595178
     17          1           0        0.701639   -2.298306   -0.489294
     18          7           0        1.582491    3.489238   -0.017971
     19          7           0        4.666267   -2.879603    0.091972
     20          8           0        2.660000   -3.872074   -0.304601
     21          8           0        6.679778   -1.867694    0.480782
     22          8           0        3.614278    4.449915    0.399151
     23          8           0       -0.425692    2.568445   -0.495554
     24          6           0        0.924838    4.804284   -0.056243
     25          1           0        0.513591    4.984616   -1.049925
     26          1           0        0.106543    4.824495    0.662947
     27          1           0        1.669280    5.555377    0.187612
     28          6           0        5.286585   -4.212768    0.108108
     29          1           0        4.823955   -4.823020    0.883801
     30          1           0        5.132253   -4.702367   -0.853706
     31          1           0        6.346428   -4.085640    0.304123
     32          6           0       -0.843841   -0.176226   -0.597950
     33          6           0       -1.509659   -0.228876   -1.790697
     34         16           0       -1.934949   -0.265207    0.752536
     35          6           0       -2.919826   -0.315492   -1.623811
     36          1           0       -1.008888   -0.182712   -2.746947
     37          6           0       -3.338791   -0.348424   -0.304121
     38          8           0       -3.844398   -0.376694   -2.623121
     39          6           0       -4.686922   -0.442018    0.201001
     40          6           0       -3.389258   -0.246470   -3.964380
     41          6           0       -5.099485   -0.487809    1.524105
     42         16           0       -6.095658   -0.509511   -0.849290
     43          1           0       -4.280810   -0.286320   -4.588037
     44          1           0       -2.879819    0.710642   -4.117735
     45          1           0       -2.719928   -1.069188   -4.237999
     46          6           0       -6.510092   -0.573044    1.694928
     47          8           0       -4.166136   -0.451697    2.517861
     48          6           0       -7.170671   -0.592748    0.498808
     49          1           0       -7.009996   -0.617797    2.651565
     50          6           0       -4.622924   -0.480585    3.864262
     51          1           0       -8.235044   -0.653114    0.332069
     52          1           0       -5.168034   -1.406122    4.078045
     53          1           0       -3.729422   -0.436918    4.484951
     54          1           0       -5.260805    0.381879    4.084863
 ---------------------------------------------------------------------

 The electronic state is 1-A.
 Alpha  occ. eigenvalues --  -88.87588 -88.87292 -19.16062 -19.16051 -19.12932
 Alpha  occ. eigenvalues --  -19.12865 -19.12601 -19.12536 -14.39058 -14.38751
 Alpha  occ. eigenvalues --  -10.31560 -10.31341 -10.31239 -10.31207 -10.23944
 Alpha  occ. eigenvalues --  -10.23594 -10.23569 -10.23546 -10.23445 -10.23360
 Alpha  occ. eigenvalues --  -10.23160 -10.23132 -10.23003 -10.22955 -10.22913
 Alpha  occ. eigenvalues --  -10.22001 -10.21911 -10.21892 -10.21380 -10.21307
 Alpha  occ. eigenvalues --  -10.21114 -10.20741 -10.20609 -10.19760 -10.18187
 Alpha  occ. eigenvalues --  -10.17925  -7.96129  -7.95847  -5.92455  -5.92157
 Alpha  occ. eigenvalues --   -5.92063  -5.91769  -5.91668  -5.91416  -1.09169
 Alpha  occ. eigenvalues --   -1.08985  -1.07603  -1.07526  -1.07371  -1.07157
 Alpha  occ. eigenvalues --   -0.96735  -0.96377  -0.93146  -0.89627  -0.88159
 Alpha  occ. eigenvalues --   -0.86843  -0.84930  -0.80511  -0.79068  -0.77076
 Alpha  occ. eigenvalues --   -0.75786  -0.75607  -0.74384  -0.73034  -0.72513
 Alpha  occ. eigenvalues --   -0.71761  -0.69774  -0.68604  -0.67590  -0.66457
 Alpha  occ. eigenvalues --   -0.65927  -0.65071  -0.60823  -0.59434  -0.58558
 Alpha  occ. eigenvalues --   -0.57870  -0.56539  -0.55647  -0.55429  -0.54017
 Alpha  occ. eigenvalues --   -0.53915  -0.52153  -0.50667  -0.50291  -0.50139
 Alpha  occ. eigenvalues --   -0.49096  -0.49075  -0.48888  -0.48036  -0.47806
 Alpha  occ. eigenvalues --   -0.47647  -0.47466  -0.47047  -0.46664  -0.45562
 Alpha  occ. eigenvalues --   -0.45347  -0.45132  -0.44886  -0.44616  -0.44111
 Alpha  occ. eigenvalues --   -0.43106  -0.42875  -0.42511  -0.42022  -0.41830
 Alpha  occ. eigenvalues --   -0.41570  -0.41167  -0.41017  -0.40631  -0.40297
 Alpha  occ. eigenvalues --   -0.40035  -0.38858  -0.38085  -0.37872  -0.36836
 Alpha  occ. eigenvalues --   -0.35830  -0.35462  -0.33557  -0.33197  -0.33000
 Alpha  occ. eigenvalues --   -0.32883  -0.32727  -0.31461  -0.30566  -0.30074
 Alpha  occ. eigenvalues --   -0.29567  -0.29375  -0.28836  -0.28819  -0.27147
 Alpha  occ. eigenvalues --   -0.26855  -0.24088  -0.23723  -0.18537
 Alpha virt. eigenvalues --   -0.13609  -0.07323  -0.06189  -0.05137  -0.04346
 Alpha virt. eigenvalues --   -0.01151  -0.00028   0.00006   0.00268   0.00503
 Alpha virt. eigenvalues --    0.00635   0.00752   0.01054   0.01180   0.01704

 Mulliken charges:
               1
     1  C    0.393860
     2  C    0.056385
     3  C    0.220055
     4  C    0.204802
     5  C    0.272738
     6  C   -0.630542
     7  C    0.190349
     8  C   -0.036005
     9  C    0.494372
    10  C   -0.384045
    11  C    0.203850
    12  C    0.208155
    13  C   -0.519019
    14  C   -0.621855
    15  H    0.162346
    16  H    0.163363
    17  H    0.165205
    18  N   -0.160759
    19  N   -0.147363
    20  O   -0.266474
    21  O   -0.268735
    22  O   -0.268555
    23  O   -0.095761
    24  C   -0.214984
    25  H    0.176318
    26  H    0.179158
    27  H    0.183914
    28  C   -0.201247
    29  H    0.175985
    30  H    0.175828
    31  H    0.182724
    32  C    0.210700
    33  C   -0.432477
    34  S   -0.104357
    35  C   -0.097976
    36  H    0.110764
    37  C    0.188673
    38  O   -0.138682
    39  C    0.795733
    40  C   -0.226830
    41  C    0.052919
    42  S   -0.286868
    43  H    0.164575
    44  H    0.151046
    45  H    0.142632
    46  C   -0.542132
    47  O   -0.151556
    48  C   -0.326720
    49  H    0.127977
    50  C   -0.234983
    51  H    0.156011
    52  H    0.141787
    53  H    0.161911
    54  H    0.143792
 Sum of Mulliken charges =  -0.00000

 Dipole moment (field-independent basis, Debye):
    X=             -1.0127    Y=              0.1572    Z=              0.0363  Tot=              1.0255
 Quadrupole moment (field-independent basis, Debye-Ang):
   XX=           -221.7647   YY=           -234.1092   ZZ=           -196.4275
   XY=             -3.0016   XZ=            -10.1266   YZ=             -2.3188

 Normal termination of Gaussian 16 at Thu Nov 26 11:48:02 2020.
