 Gaussian 16, Revision C.01,
 Gaussian 16:  ES64L-G16RevC.01  3-Jul-2019

 -------------------------------------
 # opt=modredundant b3lyp/6-311+g(d,p)
 -------------------------------------

 -----------
 NDI_145.pdb
 -----------
 Symbolic Z-matrix:
 Charge =  0 Multiplicity = 1

 SCF Done:  E(RB3LYP) =  -2359.31941778     A.U. after   18 cycles
 SCF Done:  E(RB3LYP) =  -2359.32304026     A.U. after   17 cycles
 SCF Done:  E(RB3LYP) =  -2359.33125133     A.U. after   14 cycles
 SCF Done:  E(RB3LYP) =  -2359.33545975     A.U. after   16 cycles
 SCF Done:  E(RB3LYP) =  -2359.33612899     A.U. after   14 cycles
 SCF Done:  E(RB3LYP) =  -2359.33636542     A.U. after   13 cycles
 SCF Done:  E(RB3LYP) =  -2359.33648526     A.U. after   13 cycles
 SCF Done:  E(RB3LYP) =  -2359.33654073     A.U. after   13 cycles
 SCF Done:  E(RB3LYP) =  -2359.33657733     A.U. after   12 cycles
 SCF Done:  E(RB3LYP) =  -2359.33659631     A.U. after   12 cycles
 SCF Done:  E(RB3LYP) =  -2359.33665683     A.U. after   11 cycles
 SCF Done:  E(RB3LYP) =  -2359.33665793     A.U. after   10 cycles
 SCF Done:  E(RB3LYP) =  -2359.33665853     A.U. after   10 cycles
 SCF Done:  E(RB3LYP) =  -2359.33665901     A.U. after    9 cycles
 SCF Done:  E(RB3LYP) =  -2359.33665931     A.U. after    9 cycles
 SCF Done:  E(RB3LYP) =  -2359.33665971     A.U. after    9 cycles
 SCF Done:  E(RB3LYP) =  -2359.33665995     A.U. after   10 cycles
 SCF Done:  E(RB3LYP) =  -2359.33666009     A.U. after    9 cycles
 SCF Done:  E(RB3LYP) =  -2359.33666013     A.U. after    9 cycles
 SCF Done:  E(RB3LYP) =  -2359.33666016     A.U. after    8 cycles
 Optimization completed.
    -- Stationary point found.

                         Standard orientation:
 ---------------------------------------------------------------------
 Center     Atomic      Atomic             Coordinates (Angstroms)
 Number     Number       Type             X           Y           Z
 ---------------------------------------------------------------------
      1          6           0        3.514885   -2.694955    0.372612
      2          6           0        2.764493   -1.444620    0.085812
      3          6           0        3.423704   -0.193681    0.119338
      4          6           0        4.794226   -0.108930    0.439873
      5          6           0        5.571221   -1.339832    0.746133
      6          6           0        1.416860   -1.505188   -0.169657
      7          6           0        2.681819    0.979682   -0.186291
      8          6           0        1.297663    0.895287   -0.508495
      9          6           0        0.634526   -0.345389   -0.432981
     10          6           0        0.645053    2.113250   -1.062360
     11          6           0        2.642680    3.481927   -0.472865
     12          6           0        3.359509    2.223374   -0.153696
     13          6           0        4.704623    2.286355    0.176516
     14          6           0        5.426853    1.123643    0.471519
     15          1           0        6.478681    1.167638    0.723306
     16          1           0        5.182416    3.257715    0.198686
     17          1           0        0.931032   -2.470826   -0.119558
     18          7           0        1.321774    3.337935   -0.903500
     19          7           0        4.872429   -2.558378    0.685687
     20          8           0        2.997158   -3.796561    0.342389
     21          8           0        6.753005   -1.304698    1.032301
     22          8           0        3.173609    4.575837   -0.392178
     23          8           0       -0.413236    2.097852   -1.661003
     24          6           0        0.608538    4.536937   -1.365878
     25          1           0        0.565397    4.555996   -2.456533
     26          1           0       -0.409726    4.518370   -0.981880
     27          1           0        1.147383    5.406247   -1.001752
     28          6           0        5.602289   -3.801875    0.972187
     29          1           0        5.142847   -4.311277    1.819527
     30          1           0        5.556453   -4.463075    0.106575
     31          1           0        6.631278   -3.540637    1.197632
     32          6           0       -0.809093   -0.564833   -0.515061
     33          6           0       -1.429682   -1.653020   -1.098875
     34         16           0       -1.962924    0.417739    0.343800
     35          6           0       -2.824191   -1.672922   -0.891977
     36          1           0       -0.894083   -2.387336   -1.683094
     37          6           0       -3.297307   -0.624678   -0.103837
     38          8           0       -3.703449   -2.593128   -1.371565
     39          6           0       -4.649680   -0.383474    0.317307
     40          6           0       -3.186553   -3.672948   -2.142768
     41          6           0       -5.120571    0.656645    1.111428
     42         16           0       -5.994574   -1.425167   -0.134431
     43          1           0       -4.045364   -4.284084   -2.414282
     44          1           0       -2.697148   -3.308659   -3.051893
     45          1           0       -2.482059   -4.273708   -1.558253
     46          6           0       -6.522268    0.621351    1.347565
     47          8           0       -4.245826    1.582365    1.584392
     48          6           0       -7.116802   -0.447177    0.735795
     49          1           0       -7.063070    1.345809    1.938652
     50          6           0       -4.763711    2.669925    2.344467
     51          1           0       -8.161992   -0.715758    0.748382
     52          1           0       -5.242947    2.315915    3.262894
     53          1           0       -3.906562    3.290155    2.600099
     54          1           0       -5.476552    3.257022    1.756725
 ---------------------------------------------------------------------

 The electronic state is 1-A.
 Alpha  occ. eigenvalues --  -88.88386 -88.88260 -19.17199 -19.16992 -19.12375
 Alpha  occ. eigenvalues --  -19.12356 -19.11728 -19.11650 -14.38541 -14.37940
 Alpha  occ. eigenvalues --  -10.30976 -10.30830 -10.30391 -10.30306 -10.24801
 Alpha  occ. eigenvalues --  -10.24638 -10.23974 -10.23792 -10.23548 -10.22735
 Alpha  occ. eigenvalues --  -10.22444 -10.22343 -10.22287 -10.22188 -10.22172
 Alpha  occ. eigenvalues --  -10.22093 -10.21947 -10.21750 -10.21475 -10.21040
 Alpha  occ. eigenvalues --  -10.20996 -10.20986 -10.20981 -10.20614 -10.19208
 Alpha  occ. eigenvalues --  -10.18973  -7.96939  -7.96816  -5.93249  -5.93139
 Alpha  occ. eigenvalues --   -5.92859  -5.92745  -5.92507  -5.92355  -1.08753
 Alpha  occ. eigenvalues --   -1.08615  -1.08549  -1.08106  -1.06811  -1.06242
 Alpha  occ. eigenvalues --   -0.96170  -0.95595  -0.92391  -0.90404  -0.88838
 Alpha  occ. eigenvalues --   -0.86632  -0.84172  -0.80505  -0.78355  -0.77656
 Alpha  occ. eigenvalues --   -0.76530  -0.75425  -0.75059  -0.73318  -0.72444
 Alpha  occ. eigenvalues --   -0.71481  -0.70601  -0.68916  -0.67022  -0.65806
 Alpha  occ. eigenvalues --   -0.65454  -0.64757  -0.60985  -0.59982  -0.58597
 Alpha  occ. eigenvalues --   -0.57401  -0.56780  -0.56421  -0.55091  -0.54879
 Alpha  occ. eigenvalues --   -0.53747  -0.51592  -0.50195  -0.49931  -0.49649
 Alpha  occ. eigenvalues --   -0.49392  -0.48863  -0.48679  -0.48554  -0.48417
 Alpha  occ. eigenvalues --   -0.48175  -0.47029  -0.46597  -0.46299  -0.45879
 Alpha  occ. eigenvalues --   -0.45606  -0.44901  -0.44665  -0.44232  -0.43798
 Alpha  occ. eigenvalues --   -0.42880  -0.42439  -0.42233  -0.42003  -0.41778
 Alpha  occ. eigenvalues --   -0.41747  -0.41258  -0.41075  -0.40578  -0.39907
 Alpha  occ. eigenvalues --   -0.39464  -0.39153  -0.38794  -0.37772  -0.37412
 Alpha  occ. eigenvalues --   -0.36548  -0.36002  -0.34295  -0.34025  -0.33716
 Alpha  occ. eigenvalues --   -0.33604  -0.31978  -0.30913  -0.30266  -0.29673
 Alpha  occ. eigenvalues --   -0.29263  -0.28730  -0.28680  -0.27917  -0.27472
 Alpha  occ. eigenvalues --   -0.26019  -0.24933  -0.24412  -0.19397
 Alpha virt. eigenvalues --   -0.12981  -0.07308  -0.06315  -0.04588  -0.03836
 Alpha virt. eigenvalues --   -0.00869  -0.00572  -0.00350  -0.00118   0.00390
 Alpha virt. eigenvalues --    0.00752   0.01102   0.01213   0.01608   0.01840

 Mulliken charges:
               1
     1  C    0.371679
     2  C   -0.098418
     3  C    0.108137
     4  C    0.247482
     5  C    0.229875
     6  C   -0.182643
     7  C    0.133842
     8  C    0.186963
     9  C    0.282901
    10  C   -0.470681
    11  C    0.305808
    12  C    0.086321
    13  C   -0.467910
    14  C   -0.578292
    15  H    0.159312
    16  H    0.160849
    17  H    0.161426
    18  N   -0.028413
    19  N   -0.144660
    20  O   -0.281574
    21  O   -0.270097
    22  O   -0.282939
    23  O   -0.210561
    24  C   -0.178613
    25  H    0.178089
    26  H    0.175281
    27  H    0.181959
    28  C   -0.195637
    29  H    0.174671
    30  H    0.173360
    31  H    0.182334
    32  C    0.270302
    33  C   -0.679747
    34  S   -0.626394
    35  C   -0.063367
    36  H    0.136146
    37  C    0.633131
    38  O   -0.135672
    39  C    0.889297
    40  C   -0.224597
    41  C   -0.002290
    42  S   -0.255973
    43  H    0.167206
    44  H    0.148010
    45  H    0.151920
    46  C   -0.615316
    47  O   -0.133648
    48  C   -0.277323
    49  H    0.131607
    50  C   -0.241742
    51  H    0.160972
    52  H    0.144345
    53  H    0.165881
    54  H    0.147405
 Sum of Mulliken charges =  -0.00000

 Dipole moment (field-independent basis, Debye):
    X=             -4.1910    Y=             -0.5647    Z=              0.6005  Tot=              4.2713
 Quadrupole moment (field-independent basis, Debye-Ang):
   XX=           -213.7120   YY=           -218.7408   ZZ=           -216.1060
   XY=             -9.6333   XZ=            -11.0485   YZ=             13.8722

 Normal termination of Gaussian 16 at Thu Nov 26 13:14:53 2020.
