 Gaussian 16, Revision C.01,
 Gaussian 16:  ES64L-G16RevC.01  3-Jul-2019

 -------------------------------------
 # opt=modredundant b3lyp/6-311+g(d,p)
 -------------------------------------

 ----------
 NDI_65.pdb
 ----------
 Symbolic Z-matrix:
 Charge =  0 Multiplicity = 1

 SCF Done:  E(RB3LYP) =  -2359.33098586     A.U. after   18 cycles
 SCF Done:  E(RB3LYP) =  -2359.33491649     A.U. after   16 cycles
 SCF Done:  E(RB3LYP) =  -2359.33587356     A.U. after   16 cycles
 SCF Done:  E(RB3LYP) =  -2359.33622177     A.U. after   13 cycles
 SCF Done:  E(RB3LYP) =  -2359.33633155     A.U. after   13 cycles
 SCF Done:  E(RB3LYP) =  -2359.33642645     A.U. after   13 cycles
 SCF Done:  E(RB3LYP) =  -2359.33645956     A.U. after   12 cycles
 SCF Done:  E(RB3LYP) =  -2359.33648099     A.U. after   12 cycles
 SCF Done:  E(RB3LYP) =  -2359.33649341     A.U. after   11 cycles
 SCF Done:  E(RB3LYP) =  -2359.33650985     A.U. after   13 cycles
 SCF Done:  E(RB3LYP) =  -2359.33653434     A.U. after   11 cycles
 SCF Done:  E(RB3LYP) =  -2359.33653490     A.U. after   12 cycles
 SCF Done:  E(RB3LYP) =  -2359.33653534     A.U. after   12 cycles
 SCF Done:  E(RB3LYP) =  -2359.33653554     A.U. after   12 cycles
 SCF Done:  E(RB3LYP) =  -2359.33653600     A.U. after   12 cycles
 SCF Done:  E(RB3LYP) =  -2359.33653689     A.U. after   12 cycles
 SCF Done:  E(RB3LYP) =  -2359.33653831     A.U. after   12 cycles
 SCF Done:  E(RB3LYP) =  -2359.33653879     A.U. after   12 cycles
 SCF Done:  E(RB3LYP) =  -2359.33653893     A.U. after   10 cycles
 SCF Done:  E(RB3LYP) =  -2359.33653896     A.U. after    9 cycles
 Optimization completed.
    -- Stationary point found.

                         Standard orientation:
 ---------------------------------------------------------------------
 Center     Atomic      Atomic             Coordinates (Angstroms)
 Number     Number       Type             X           Y           Z
 ---------------------------------------------------------------------
      1          6           0       -2.729341   -2.907379    0.655390
      2          6           0       -2.339254   -1.495404    0.398187
      3          6           0       -3.322456   -0.526108    0.098187
      4          6           0       -4.685677   -0.884250    0.025887
      5          6           0       -5.111662   -2.285539    0.288748
      6          6           0       -1.014914   -1.136537    0.456758
      7          6           0       -2.914136    0.814019   -0.147054
      8          6           0       -1.539305    1.179715   -0.057975
      9          6           0       -0.575517    0.203980    0.265679
     10          6           0       -1.170643    2.594958   -0.341738
     11          6           0       -3.553311    3.155273   -0.827859
     12          6           0       -3.913019    1.755503   -0.500246
     13          6           0       -5.246074    1.382281   -0.569473
     14          6           0       -5.638784    0.065793   -0.299867
     15          1           0       -6.678889   -0.229602   -0.351182
     16          1           0       -5.974707    2.134441   -0.844348
     17          1           0       -0.286883   -1.900786    0.695553
     18          7           0       -2.192395    3.462095   -0.773678
     19          7           0       -4.095156   -3.208087    0.585781
     20          8           0       -1.919875   -3.777427    0.916129
     21          8           0       -6.279577   -2.623591    0.248717
     22          8           0       -4.386384    3.989973   -1.134625
     23          8           0       -0.042551    3.037573   -0.232754
     24          6           0       -1.776736    4.834493   -1.097531
     25          1           0       -1.443897    5.351031   -0.195689
     26          1           0       -0.947218    4.803498   -1.802137
     27          1           0       -2.631741    5.347958   -1.525774
     28          6           0       -4.467797   -4.605801    0.848050
     29          1           0       -3.973706   -5.259065    0.128624
     30          1           0       -4.145676   -4.890632    1.849885
     31          1           0       -5.546336   -4.686360    0.757746
     32          6           0        0.875812    0.419837    0.369454
     33          6           0        1.583298    1.192213    1.258830
     34         16           0        1.947314   -0.631588   -0.529864
     35          6           0        2.977319    0.974076    1.196513
     36          1           0        1.109798    1.902492    1.918324
     37          6           0        3.369277    0.019248    0.262656
     38          8           0        3.925381    1.600701    1.944808
     39          6           0        4.706169   -0.380397   -0.084557
     40          6           0        3.513593    2.688168    2.768192
     41          6           0        5.092089   -1.360972   -0.990640
     42         16           0        6.139680    0.357622    0.619917
     43          1           0        4.423729    3.087096    3.212722
     44          1           0        3.021465    3.465478    2.175439
     45          1           0        2.841889    2.348210    3.563386
     46          6           0        6.500083   -1.516537   -1.117565
     47          8           0        4.138263   -2.062868   -1.659252
     48          6           0        7.184793   -0.653869   -0.307481
     49          1           0        6.981889   -2.229175   -1.770872
     50          6           0        4.561215   -3.084500   -2.556401
     51          1           0        8.254361   -0.560517   -0.198296
     52          1           0        5.130503   -3.858887   -2.032190
     53          1           0        3.650549   -3.518862   -2.964907
     54          1           0        5.163646   -2.669400   -3.370921
 ---------------------------------------------------------------------

 The electronic state is 1-A.
 Alpha  occ. eigenvalues --  -88.88186 -88.88075 -19.16875 -19.16567 -19.12500
 Alpha  occ. eigenvalues --  -19.12443 -19.11945 -19.11942 -14.38652 -14.38251
 Alpha  occ. eigenvalues --  -10.31110 -10.30920 -10.30742 -10.30531 -10.24426
 Alpha  occ. eigenvalues --  -10.24237 -10.23780 -10.23708 -10.23378 -10.23029
 Alpha  occ. eigenvalues --  -10.22850 -10.22707 -10.22394 -10.22371 -10.22210
 Alpha  occ. eigenvalues --  -10.21832 -10.21774 -10.21462 -10.21432 -10.21273
 Alpha  occ. eigenvalues --  -10.21221 -10.21065 -10.20796 -10.20657 -10.18682
 Alpha  occ. eigenvalues --  -10.18680  -7.96742  -7.96628  -5.93063  -5.92937
 Alpha  occ. eigenvalues --   -5.92673  -5.92549  -5.92287  -5.92196  -1.08743
 Alpha  occ. eigenvalues --   -1.08409  -1.08403  -1.08106  -1.06935  -1.06517
 Alpha  occ. eigenvalues --   -0.96306  -0.95840  -0.92565  -0.90138  -0.88598
 Alpha  occ. eigenvalues --   -0.86689  -0.84377  -0.80405  -0.78538  -0.77522
 Alpha  occ. eigenvalues --   -0.76232  -0.75254  -0.75063  -0.73006  -0.72491
 Alpha  occ. eigenvalues --   -0.71798  -0.70171  -0.68768  -0.67212  -0.65979
 Alpha  occ. eigenvalues --   -0.65630  -0.64743  -0.60974  -0.59722  -0.58594
 Alpha  occ. eigenvalues --   -0.57460  -0.56668  -0.56116  -0.55411  -0.54557
 Alpha  occ. eigenvalues --   -0.53558  -0.51753  -0.50278  -0.49867  -0.49826
 Alpha  occ. eigenvalues --   -0.49508  -0.48699  -0.48589  -0.48543  -0.48162
 Alpha  occ. eigenvalues --   -0.47983  -0.47152  -0.46655  -0.46345  -0.45776
 Alpha  occ. eigenvalues --   -0.45403  -0.45043  -0.44658  -0.44370  -0.43823
 Alpha  occ. eigenvalues --   -0.42707  -0.42535  -0.42318  -0.42050  -0.41836
 Alpha  occ. eigenvalues --   -0.41394  -0.41351  -0.41197  -0.40610  -0.39792
 Alpha  occ. eigenvalues --   -0.39666  -0.39175  -0.38639  -0.37626  -0.37396
 Alpha  occ. eigenvalues --   -0.36186  -0.35569  -0.34184  -0.33732  -0.33616
 Alpha  occ. eigenvalues --   -0.33234  -0.32274  -0.31104  -0.30334  -0.29885
 Alpha  occ. eigenvalues --   -0.29347  -0.28975  -0.28674  -0.28252  -0.27317
 Alpha  occ. eigenvalues --   -0.26239  -0.24504  -0.24389  -0.19180
 Alpha virt. eigenvalues --   -0.13155  -0.07078  -0.06357  -0.04796  -0.04084
 Alpha virt. eigenvalues --   -0.00932  -0.00311  -0.00275   0.00137   0.00587
 Alpha virt. eigenvalues --    0.00633   0.01025   0.01255   0.01409   0.01799

 Mulliken charges:
               1
     1  C    0.357822
     2  C   -0.006849
     3  C    0.094049
     4  C    0.254421
     5  C    0.226006
     6  C   -0.681283
     7  C    0.210781
     8  C    0.150990
     9  C    0.564294
    10  C   -0.293819
    11  C    0.324044
    12  C    0.110408
    13  C   -0.491025
    14  C   -0.660649
    15  H    0.160135
    16  H    0.162089
    17  H    0.184180
    18  N   -0.160287
    19  N   -0.144285
    20  O   -0.274106
    21  O   -0.269514
    22  O   -0.279322
    23  O   -0.173146
    24  C   -0.209572
    25  H    0.174234
    26  H    0.176292
    27  H    0.183114
    28  C   -0.197720
    29  H    0.174320
    30  H    0.174997
    31  H    0.182872
    32  C    0.093479
    33  C   -0.312926
    34  S   -0.469700
    35  C   -0.341976
    36  H    0.130343
    37  C    0.561543
    38  O   -0.124391
    39  C    0.894880
    40  C   -0.244100
    41  C   -0.027407
    42  S   -0.242147
    43  H    0.164556
    44  H    0.160119
    45  H    0.143142
    46  C   -0.499087
    47  O   -0.133172
    48  C   -0.283271
    49  H    0.130784
    50  C   -0.239369
    51  H    0.159812
    52  H    0.145126
    53  H    0.165733
    54  H    0.144554
 Sum of Mulliken charges =  -0.00000

 Dipole moment (field-independent basis, Debye):
    X=              3.3309    Y=             -0.4045    Z=             -0.0537  Tot=              3.3558
 Quadrupole moment (field-independent basis, Debye-Ang):
   XX=           -219.6576   YY=           -218.9445   ZZ=           -211.0459
   XY=             -2.8204   XZ=             -7.8383   YZ=             16.9203

 Normal termination of Gaussian 16 at Thu Nov 26 13:14:27 2020.
