 Gaussian 16, Revision C.01,
 Gaussian 16:  ES64L-G16RevC.01  3-Jul-2019

 -------------------------------------
 # opt=modredundant b3lyp/6-311+g(d,p)
 -------------------------------------

 -----------
 NDI_180.pdb
 -----------
 Symbolic Z-matrix:
 Charge =  0 Multiplicity = 1

 SCF Done:  E(RB3LYP) =  -2359.29074986     A.U. after   17 cycles
 SCF Done:  E(RB3LYP) =  -2359.32178209     A.U. after   17 cycles
 SCF Done:  E(RB3LYP) =  -2359.33077815     A.U. after   16 cycles
 SCF Done:  E(RB3LYP) =  -2359.33287010     A.U. after   13 cycles
 SCF Done:  E(RB3LYP) =  -2359.33319974     A.U. after   13 cycles
 SCF Done:  E(RB3LYP) =  -2359.33321203     A.U. after   12 cycles
 SCF Done:  E(RB3LYP) =  -2359.33330036     A.U. after   11 cycles
 SCF Done:  E(RB3LYP) =  -2359.33331752     A.U. after   12 cycles
 SCF Done:  E(RB3LYP) =  -2359.33333362     A.U. after   11 cycles
 SCF Done:  E(RB3LYP) =  -2359.33334325     A.U. after   12 cycles
 SCF Done:  E(RB3LYP) =  -2359.33376953     A.U. after   10 cycles
 SCF Done:  E(RB3LYP) =  -2359.33377048     A.U. after   11 cycles
 SCF Done:  E(RB3LYP) =  -2359.33377090     A.U. after   10 cycles
 SCF Done:  E(RB3LYP) =  -2359.33377134     A.U. after   10 cycles
 SCF Done:  E(RB3LYP) =  -2359.33377170     A.U. after   10 cycles
 SCF Done:  E(RB3LYP) =  -2359.33377198     A.U. after   10 cycles
 SCF Done:  E(RB3LYP) =  -2359.33377217     A.U. after   10 cycles
 SCF Done:  E(RB3LYP) =  -2359.33377230     A.U. after   10 cycles
 SCF Done:  E(RB3LYP) =  -2359.33377234     A.U. after    9 cycles
 SCF Done:  E(RB3LYP) =  -2359.33377235     A.U. after    9 cycles
 Optimization completed.
    -- Stationary point found.

                         Standard orientation:
 ---------------------------------------------------------------------
 Center     Atomic      Atomic             Coordinates (Angstroms)
 Number     Number       Type             X           Y           Z
 ---------------------------------------------------------------------
      1          6           0       -3.569982   -2.653914    0.012893
      2          6           0       -2.813122   -1.377380    0.101719
      3          6           0       -3.474542   -0.139055   -0.060049
      4          6           0       -4.856103   -0.092548   -0.322589
      5          6           0       -5.643602   -1.349408   -0.426480
      6          6           0       -1.463279   -1.417083    0.306309
      7          6           0       -2.705944    1.049246    0.058174
      8          6           0       -1.300085    0.996211    0.322216
      9          6           0       -0.625270   -0.257128    0.393215
     10          6           0       -0.636623    2.283295    0.615376
     11          6           0       -2.681061    3.568941    0.014436
     12          6           0       -3.392969    2.279281   -0.105186
     13          6           0       -4.755010    2.308015   -0.377530
     14          6           0       -5.494256    1.128475   -0.485240
     15          1           0       -6.556723    1.146561   -0.690287
     16          1           0       -5.227586    3.274275   -0.500771
     17          1           0       -1.034838   -2.403375    0.372176
     18          7           0       -1.339297    3.477315    0.383941
     19          7           0       -4.940695   -2.554612   -0.242870
     20          8           0       -3.045201   -3.744971    0.151250
     21          8           0       -6.838233   -1.348385   -0.655601
     22          8           0       -3.224075    4.644773   -0.172135
     23          8           0        0.493747    2.367399    1.070491
     24          6           0       -0.597155    4.721508    0.630426
     25          1           0       -0.332393    4.796267    1.685832
     26          1           0        0.321747    4.721080    0.045072
     27          1           0       -1.236904    5.549257    0.340940
     28          6           0       -5.681810   -3.820855   -0.330238
     29          1           0       -5.277635   -4.429843   -1.139375
     30          1           0       -5.575474   -4.373645    0.603292
     31          1           0       -6.724561   -3.585000   -0.517196
     32          6           0        0.809005   -0.556019    0.443904
     33          6           0        1.325909   -1.855456    0.512696
     34         16           0        2.129683    0.565053    0.145594
     35          6           0        2.705600   -1.943335    0.311334
     36          1           0        0.730187   -2.729976    0.712859
     37          6           0        3.316224   -0.713496    0.053471
     38          8           0        3.465076   -3.070838    0.349429
     39          6           0        4.708172   -0.469909   -0.190529
     40          6           0        2.813165   -4.310945    0.607305
     41          6           0        5.330525    0.753324   -0.433259
     42         16           0        5.914765   -1.753463   -0.231163
     43          1           0        3.595294   -5.067737    0.594362
     44          1           0        2.328622   -4.304654    1.589103
     45          1           0        2.074367   -4.536990   -0.168400
     46          6           0        6.733057    0.661078   -0.643383
     47          8           0        4.586724    1.884876   -0.453450
     48          6           0        7.177783   -0.629867   -0.563050
     49          1           0        7.379603    1.502681   -0.843859
     50          6           0        5.252265    3.129348   -0.652330
     51          1           0        8.190340   -0.984420   -0.681736
     52          1           0        5.742366    3.161546   -1.630594
     53          1           0        4.475810    3.890497   -0.609393
     54          1           0        5.986881    3.312328    0.138042
 ---------------------------------------------------------------------

 The electronic state is 1-A.
 Alpha  occ. eigenvalues --  -88.88797 -88.88322 -19.17533 -19.17233 -19.12210
 Alpha  occ. eigenvalues --  -19.12176 -19.11513 -19.11295 -14.38373 -14.37768
 Alpha  occ. eigenvalues --  -10.30756 -10.30661 -10.30124 -10.29857 -10.25375
 Alpha  occ. eigenvalues --  -10.24787 -10.24142 -10.24036 -10.23957 -10.22711
 Alpha  occ. eigenvalues --  -10.22529 -10.22458 -10.22130 -10.22045 -10.21925
 Alpha  occ. eigenvalues --  -10.21770 -10.21758 -10.21536 -10.21441 -10.21170
 Alpha  occ. eigenvalues --  -10.20862 -10.20525 -10.20472 -10.20452 -10.19469
 Alpha  occ. eigenvalues --  -10.19373  -7.97349  -7.96796  -5.93658  -5.93269
 Alpha  occ. eigenvalues --   -5.93119  -5.92918  -5.92704  -5.92349  -1.09171
 Alpha  occ. eigenvalues --   -1.08799  -1.08438  -1.07941  -1.06625  -1.05956
 Alpha  occ. eigenvalues --   -0.95996  -0.95393  -0.92001  -0.90552  -0.88988
 Alpha  occ. eigenvalues --   -0.86368  -0.83818  -0.80498  -0.78040  -0.77780
 Alpha  occ. eigenvalues --   -0.76733  -0.75700  -0.74901  -0.73512  -0.72292
 Alpha  occ. eigenvalues --   -0.71432  -0.70813  -0.68924  -0.66847  -0.65663
 Alpha  occ. eigenvalues --   -0.65300  -0.64649  -0.61039  -0.60187  -0.58561
 Alpha  occ. eigenvalues --   -0.57403  -0.56811  -0.56547  -0.55457  -0.54704
 Alpha  occ. eigenvalues --   -0.53633  -0.51357  -0.50154  -0.49884  -0.49363
 Alpha  occ. eigenvalues --   -0.49236  -0.49116  -0.48769  -0.48728  -0.48317
 Alpha  occ. eigenvalues --   -0.48166  -0.47183  -0.46572  -0.46080  -0.45976
 Alpha  occ. eigenvalues --   -0.45603  -0.44892  -0.44331  -0.44009  -0.43451
 Alpha  occ. eigenvalues --   -0.43164  -0.42459  -0.42341  -0.41967  -0.41685
 Alpha  occ. eigenvalues --   -0.41586  -0.41211  -0.40972  -0.40449  -0.39866
 Alpha  occ. eigenvalues --   -0.39498  -0.39184  -0.38847  -0.37565  -0.37122
 Alpha  occ. eigenvalues --   -0.36549  -0.36292  -0.34593  -0.34300  -0.33724
 Alpha  occ. eigenvalues --   -0.33275  -0.31680  -0.30686  -0.30422  -0.29601
 Alpha  occ. eigenvalues --   -0.29181  -0.28590  -0.28418  -0.27710  -0.27242
 Alpha  occ. eigenvalues --   -0.25895  -0.25036  -0.24621  -0.19712
 Alpha virt. eigenvalues --   -0.12673  -0.07900  -0.06169  -0.04213  -0.03698
 Alpha virt. eigenvalues --   -0.00898  -0.00460  -0.00326  -0.00128   0.00404
 Alpha virt. eigenvalues --    0.00946   0.01077   0.01453   0.01966   0.02005

 Mulliken charges:
               1
     1  C    0.366164
     2  C   -0.081955
     3  C    0.106569
     4  C    0.168212
     5  C    0.267200
     6  C    0.043187
     7  C    0.067063
     8  C    0.183205
     9  C    0.376537
    10  C   -0.301235
    11  C    0.264847
    12  C    0.099975
    13  C   -0.441288
    14  C   -0.582543
    15  H    0.157214
    16  H    0.160596
    17  H    0.158148
    18  N   -0.098589
    19  N   -0.148510
    20  O   -0.287611
    21  O   -0.265370
    22  O   -0.281490
    23  O   -0.223441
    24  C   -0.170726
    25  H    0.177077
    26  H    0.170103
    27  H    0.182686
    28  C   -0.200421
    29  H    0.173324
    30  H    0.173159
    31  H    0.182232
    32  C   -0.153039
    33  C   -0.138358
    34  S   -0.632602
    35  C   -0.251928
    36  H    0.126375
    37  C    0.533318
    38  O   -0.138356
    39  C    0.787269
    40  C   -0.224197
    41  C   -0.079208
    42  S   -0.256481
    43  H    0.168952
    44  H    0.149965
    45  H    0.150510
    46  C   -0.541285
    47  O   -0.112261
    48  C   -0.299414
    49  H    0.133132
    50  C   -0.241977
    51  H    0.162923
    52  H    0.144079
    53  H    0.169959
    54  H    0.148303
 Sum of Mulliken charges =  -0.00000

 Dipole moment (field-independent basis, Debye):
    X=              5.6441    Y=             -0.8803    Z=             -0.4212  Tot=              5.7278
 Quadrupole moment (field-independent basis, Debye-Ang):
   XX=           -209.3192   YY=           -212.8707   ZZ=           -224.1136
   XY=             13.0908   XZ=             -7.7725   YZ=             -3.3410

 Normal termination of Gaussian 16 at Thu Nov 26 16:40:59 2020.
