 Gaussian 16, Revision C.01,
 Gaussian 16:  ES64L-G16RevC.01  3-Jul-2019

 -------------------------------------
 # opt=modredundant b3lyp/6-311+g(d,p)
 -------------------------------------

 -----------
 NDI_120.pdb
 -----------
 Symbolic Z-matrix:
 Charge =  0 Multiplicity = 1

 SCF Done:  E(RB3LYP) =  -2359.33162206     A.U. after   18 cycles
 SCF Done:  E(RB3LYP) =  -2359.33428795     A.U. after   17 cycles
 SCF Done:  E(RB3LYP) =  -2359.33527817     A.U. after   14 cycles
 SCF Done:  E(RB3LYP) =  -2359.33570936     A.U. after   13 cycles
 SCF Done:  E(RB3LYP) =  -2359.33580243     A.U. after   12 cycles
 SCF Done:  E(RB3LYP) =  -2359.33583125     A.U. after   12 cycles
 SCF Done:  E(RB3LYP) =  -2359.33585059     A.U. after   12 cycles
 SCF Done:  E(RB3LYP) =  -2359.33586464     A.U. after   12 cycles
 SCF Done:  E(RB3LYP) =  -2359.33587435     A.U. after   11 cycles
 SCF Done:  E(RB3LYP) =  -2359.33588258     A.U. after   12 cycles
 SCF Done:  E(RB3LYP) =  -2359.33591046     A.U. after   10 cycles
 SCF Done:  E(RB3LYP) =  -2359.33591195     A.U. after   10 cycles
 SCF Done:  E(RB3LYP) =  -2359.33591247     A.U. after   10 cycles
 SCF Done:  E(RB3LYP) =  -2359.33591296     A.U. after   10 cycles
 SCF Done:  E(RB3LYP) =  -2359.33591341     A.U. after   10 cycles
 SCF Done:  E(RB3LYP) =  -2359.33591385     A.U. after   10 cycles
 SCF Done:  E(RB3LYP) =  -2359.33591419     A.U. after    9 cycles
 SCF Done:  E(RB3LYP) =  -2359.33591441     A.U. after    9 cycles
 SCF Done:  E(RB3LYP) =  -2359.33591451     A.U. after    9 cycles
 SCF Done:  E(RB3LYP) =  -2359.33591455     A.U. after    9 cycles
 Optimization completed.
    -- Stationary point found.

                         Standard orientation:
 ---------------------------------------------------------------------
 Center     Atomic      Atomic             Coordinates (Angstroms)
 Number     Number       Type             X           Y           Z
 ---------------------------------------------------------------------
      1          6           0        3.517348   -2.710607    0.435933
      2          6           0        2.766043   -1.462721    0.139477
      3          6           0        3.433544   -0.217146    0.121029
      4          6           0        4.815770   -0.134658    0.397204
      5          6           0        5.593980   -1.363209    0.712351
      6          6           0        1.410234   -1.519216   -0.088642
      7          6           0        2.695092    0.956985   -0.190171
      8          6           0        1.302658    0.875307   -0.470022
      9          6           0        0.641702   -0.357276   -0.360746
     10          6           0        0.615797    2.097892   -0.979097
     11          6           0        2.658764    3.454256   -0.527234
     12          6           0        3.380225    2.196477   -0.207491
     13          6           0        4.734831    2.255844    0.075630
     14          6           0        5.456518    1.092282    0.376244
     15          1           0        6.516270    1.133795    0.593363
     16          1           0        5.222065    3.222601    0.058960
     17          1           0        0.910517   -2.477593   -0.025100
     18          7           0        1.314538    3.316330   -0.881694
     19          7           0        4.885011   -2.576119    0.706731
     20          8           0        2.992068   -3.808190    0.448397
     21          8           0        6.784319   -1.328017    0.960294
     22          8           0        3.205291    4.542457   -0.501847
     23          8           0       -0.487850    2.087502   -1.485820
     24          6           0        0.581710    4.517325   -1.308397
     25          1           0        0.452874    4.517031   -2.392316
     26          1           0       -0.403028    4.519568   -0.844650
     27          1           0        1.158180    5.385355   -1.004055
     28          6           0        5.613722   -3.817739    1.005151
     29          1           0        5.170406   -4.303973    1.874291
     30          1           0        5.543943   -4.498517    0.156461
     31          1           0        6.649293   -3.558377    1.200599
     32          6           0       -0.811324   -0.552964   -0.482787
     33          6           0       -1.466304   -1.335323   -1.401566
     34         16           0       -1.922532    0.176123    0.640024
     35          6           0       -2.872113   -1.327497   -1.222503
     36          1           0       -0.953677   -1.863198   -2.192908
     37          6           0       -3.306846   -0.563005   -0.146185
     38          8           0       -3.786436   -1.987129   -1.984733
     39          6           0       -4.655489   -0.388490    0.326691
     40          6           0       -3.309149   -2.779157   -3.066685
     41          6           0       -5.087144    0.373846    1.404217
     42         16           0       -6.043130   -1.155960   -0.435105
     43          1           0       -4.192345   -3.215491   -3.529939
     44          1           0       -2.779270   -2.164537   -3.801781
     45          1           0       -2.651930   -3.579639   -2.711041
     46          6           0       -6.494106    0.346528    1.613082
     47          8           0       -4.173518    1.054968    2.148911
     48          6           0       -7.132494   -0.438931    0.694383
     49          1           0       -7.007543    0.878872    2.400399
     50          6           0       -4.650664    1.867910    3.215164
     51          1           0       -8.190539   -0.636312    0.616276
     52          1           0       -5.164853    1.265855    3.971542
     53          1           0       -3.769019    2.327781    3.658305
     54          1           0       -5.322418    2.649705    2.845860
 ---------------------------------------------------------------------

 The electronic state is 1-A.
 Alpha  occ. eigenvalues --  -88.87922 -88.87856 -19.16658 -19.16579 -19.12618
 Alpha  occ. eigenvalues --  -19.12570 -19.12131 -19.12073 -14.38765 -14.38297
 Alpha  occ. eigenvalues --  -10.31233 -10.31049 -10.30772 -10.30722 -10.24177
 Alpha  occ. eigenvalues --  -10.24140 -10.23641 -10.23598 -10.23494 -10.23106
 Alpha  occ. eigenvalues --  -10.22904 -10.22886 -10.22558 -10.22525 -10.22425
 Alpha  occ. eigenvalues --  -10.21707 -10.21670 -10.21534 -10.21495 -10.21435
 Alpha  occ. eigenvalues --  -10.21201 -10.21152 -10.20828 -10.20394 -10.18730
 Alpha  occ. eigenvalues --  -10.18468  -7.96475  -7.96410  -5.92800  -5.92720
 Alpha  occ. eigenvalues --   -5.92409  -5.92331  -5.92012  -5.91978  -1.08852
 Alpha  occ. eigenvalues --   -1.08498  -1.08195  -1.08105  -1.07052  -1.06657
 Alpha  occ. eigenvalues --   -0.96413  -0.95951  -0.92735  -0.90004  -0.88470
 Alpha  occ. eigenvalues --   -0.86791  -0.84524  -0.80456  -0.78677  -0.77389
 Alpha  occ. eigenvalues --   -0.76173  -0.75333  -0.74925  -0.72962  -0.72634
 Alpha  occ. eigenvalues --   -0.71629  -0.70207  -0.68764  -0.67278  -0.66090
 Alpha  occ. eigenvalues --   -0.65633  -0.64925  -0.60845  -0.59708  -0.58609
 Alpha  occ. eigenvalues --   -0.57583  -0.56708  -0.55970  -0.55259  -0.54487
 Alpha  occ. eigenvalues --   -0.53852  -0.51855  -0.50363  -0.49987  -0.49824
 Alpha  occ. eigenvalues --   -0.49455  -0.48784  -0.48660  -0.48440  -0.48174
 Alpha  occ. eigenvalues --   -0.47872  -0.47337  -0.46744  -0.46493  -0.45711
 Alpha  occ. eigenvalues --   -0.45332  -0.45031  -0.44883  -0.44443  -0.44031
 Alpha  occ. eigenvalues --   -0.42880  -0.42519  -0.42228  -0.42087  -0.41730
 Alpha  occ. eigenvalues --   -0.41531  -0.41272  -0.41228  -0.40711  -0.40057
 Alpha  occ. eigenvalues --   -0.39654  -0.38963  -0.38500  -0.37785  -0.37268
 Alpha  occ. eigenvalues --   -0.36119  -0.35719  -0.33959  -0.33557  -0.33407
 Alpha  occ. eigenvalues --   -0.33354  -0.32360  -0.31160  -0.30328  -0.29800
 Alpha  occ. eigenvalues --   -0.29293  -0.29014  -0.28795  -0.28266  -0.27485
 Alpha  occ. eigenvalues --   -0.26347  -0.24551  -0.24135  -0.19004
 Alpha virt. eigenvalues --   -0.13255  -0.07091  -0.06243  -0.04891  -0.04162
 Alpha virt. eigenvalues --   -0.00942  -0.00426  -0.00239   0.00104   0.00589
 Alpha virt. eigenvalues --    0.00711   0.00957   0.01079   0.01315   0.01829

 Mulliken charges:
               1
     1  C    0.389153
     2  C   -0.086293
     3  C    0.125133
     4  C    0.211301
     5  C    0.251047
     6  C   -0.419924
     7  C    0.156671
     8  C    0.073203
     9  C    0.305937
    10  C   -0.409146
    11  C    0.282024
    12  C    0.123948
    13  C   -0.441772
    14  C   -0.613369
    15  H    0.160838
    16  H    0.162011
    17  H    0.161791
    18  N   -0.064953
    19  N   -0.142638
    20  O   -0.274470
    21  O   -0.271433
    22  O   -0.278618
    23  O   -0.172721
    24  C   -0.177500
    25  H    0.178456
    26  H    0.178339
    27  H    0.182534
    28  C   -0.199046
    29  H    0.175474
    30  H    0.174342
    31  H    0.182836
    32  C    0.484337
    33  C   -0.525141
    34  S   -0.410881
    35  C   -0.164789
    36  H    0.123376
    37  C    0.374773
    38  O   -0.129638
    39  C    0.854667
    40  C   -0.223556
    41  C    0.016604
    42  S   -0.275493
    43  H    0.165844
    44  H    0.148827
    45  H    0.148668
    46  C   -0.573788
    47  O   -0.141021
    48  C   -0.297958
    49  H    0.129798
    50  C   -0.238230
    51  H    0.158439
    52  H    0.143020
    53  H    0.163795
    54  H    0.145190
 Sum of Mulliken charges =  -0.00000

 Dipole moment (field-independent basis, Debye):
    X=             -2.7076    Y=             -0.2159    Z=              0.2992  Tot=              2.7327
 Quadrupole moment (field-independent basis, Debye-Ang):
   XX=           -217.4837   YY=           -226.4019   ZZ=           -206.6310
   XY=             -7.6559   XZ=            -10.4866   YZ=             14.2155

 Normal termination of Gaussian 16 at Thu Nov 26 14:02:27 2020.
