 Gaussian 16, Revision C.01,
 Gaussian 16:  ES64L-G16RevC.01  3-Jul-2019

 -------------------------------------
 # opt=modredundant b3lyp/6-311+g(d,p)
 -------------------------------------

 ----------
 NDI_70.pdb
 ----------
 Symbolic Z-matrix:
 Charge =  0 Multiplicity = 1

 SCF Done:  E(RB3LYP) =  -2359.33027479     A.U. after   18 cycles
 SCF Done:  E(RB3LYP) =  -2359.33414287     A.U. after   16 cycles
 SCF Done:  E(RB3LYP) =  -2359.33526769     A.U. after   16 cycles
 SCF Done:  E(RB3LYP) =  -2359.33558367     A.U. after   13 cycles
 SCF Done:  E(RB3LYP) =  -2359.33572523     A.U. after   14 cycles
 SCF Done:  E(RB3LYP) =  -2359.33580690     A.U. after   12 cycles
 SCF Done:  E(RB3LYP) =  -2359.33583985     A.U. after   12 cycles
 SCF Done:  E(RB3LYP) =  -2359.33585832     A.U. after   12 cycles
 SCF Done:  E(RB3LYP) =  -2359.33587292     A.U. after   12 cycles
 SCF Done:  E(RB3LYP) =  -2359.33589092     A.U. after   14 cycles
 SCF Done:  E(RB3LYP) =  -2359.33591067     A.U. after   11 cycles
 SCF Done:  E(RB3LYP) =  -2359.33591113     A.U. after   11 cycles
 SCF Done:  E(RB3LYP) =  -2359.33591139     A.U. after   11 cycles
 SCF Done:  E(RB3LYP) =  -2359.33591143     A.U. after   10 cycles
 SCF Done:  E(RB3LYP) =  -2359.33591145     A.U. after   10 cycles
 SCF Done:  E(RB3LYP) =  -2359.33591146     A.U. after   10 cycles
 SCF Done:  E(RB3LYP) =  -2359.33591145     A.U. after   10 cycles
 SCF Done:  E(RB3LYP) =  -2359.33591144     A.U. after   10 cycles
 SCF Done:  E(RB3LYP) =  -2359.33591144     A.U. after   10 cycles
 SCF Done:  E(RB3LYP) =  -2359.33591144     A.U. after   10 cycles
 Optimization completed.
    -- Stationary point found.

                         Standard orientation:
 ---------------------------------------------------------------------
 Center     Atomic      Atomic             Coordinates (Angstroms)
 Number     Number       Type             X           Y           Z
 ---------------------------------------------------------------------
      1          6           0       -2.839756   -2.897763    0.621081
      2          6           0       -2.398735   -1.499127    0.373922
      3          6           0       -3.346436   -0.493862    0.078110
      4          6           0       -4.722693   -0.801387    0.007507
      5          6           0       -5.198617   -2.188881    0.258727
      6          6           0       -1.062211   -1.185106    0.444050
      7          6           0       -2.892796    0.832315   -0.162504
      8          6           0       -1.505280    1.144710   -0.082359
      9          6           0       -0.583176    0.139681    0.256538
     10          6           0       -1.073762    2.535803   -0.405749
     11          6           0       -3.447316    3.209113   -0.793014
     12          6           0       -3.857598    1.815884   -0.492880
     13          6           0       -5.203425    1.492850   -0.556476
     14          6           0       -5.641136    0.186490   -0.303087
     15          1           0       -6.691578   -0.070346   -0.352413
     16          1           0       -5.907304    2.274952   -0.811555
     17          1           0       -0.358192   -1.971165    0.685343
     18          7           0       -2.073992    3.461371   -0.759999
     19          7           0       -4.215523   -3.149387    0.546669
     20          8           0       -2.062381   -3.797486    0.878010
     21          8           0       -6.377951   -2.484159    0.216506
     22          8           0       -4.253140    4.081782   -1.063399
     23          8           0        0.083925    2.906284   -0.394058
     24          6           0       -1.605773    4.816158   -1.087308
     25          1           0       -1.126243    5.265580   -0.216896
     26          1           0       -0.874715    4.764790   -1.893496
     27          1           0       -2.468854    5.402278   -1.386348
     28          6           0       -4.637605   -4.535300    0.796974
     29          1           0       -4.158992   -5.200247    0.077912
     30          1           0       -4.334754   -4.837057    1.799921
     31          1           0       -5.717390   -4.578780    0.696691
     32          6           0        0.870404    0.329970    0.402713
     33          6           0        1.551437    1.009096    1.380894
     34         16           0        1.959430   -0.611124   -0.584268
     35          6           0        2.951103    0.811078    1.317145
     36          1           0        1.058500    1.637956    2.107108
     37          6           0        3.365153   -0.037216    0.296568
     38          8           0        3.880838    1.360478    2.145654
     39          6           0        4.710795   -0.394817   -0.066845
     40          6           0        3.449499    2.363366    3.060184
     41          6           0        5.117757   -1.272492   -1.063514
     42         16           0        6.127534    0.271822    0.735206
     43          1           0        4.348529    2.716210    3.562622
     44          1           0        2.971441    3.195757    2.534127
     45          1           0        2.759552    1.949920    3.803375
     46          6           0        6.528898   -1.407118   -1.182676
     47          8           0        4.179050   -1.906066   -1.818248
     48          6           0        7.195139   -0.631180   -0.275587
     49          1           0        7.025646   -2.044939   -1.899117
     50          6           0        4.624700   -2.816356   -2.817743
     51          1           0        8.262083   -0.544523   -0.139003
     52          1           0        5.193379   -3.640932   -2.375619
     53          1           0        3.724437   -3.208874   -3.287287
     54          1           0        5.235493   -2.307761   -3.570802
 ---------------------------------------------------------------------

 The electronic state is 1-A.
 Alpha  occ. eigenvalues --  -88.88085 -88.87876 -19.16671 -19.16470 -19.12599
 Alpha  occ. eigenvalues --  -19.12535 -19.12134 -19.12050 -14.38744 -14.38381
 Alpha  occ. eigenvalues --  -10.31214 -10.31014 -10.30854 -10.30728 -10.24177
 Alpha  occ. eigenvalues --  -10.24106 -10.23772 -10.23567 -10.23363 -10.23152
 Alpha  occ. eigenvalues --  -10.22998 -10.22876 -10.22545 -10.22509 -10.22399
 Alpha  occ. eigenvalues --  -10.21673 -10.21588 -10.21551 -10.21454 -10.21400
 Alpha  occ. eigenvalues --  -10.21229 -10.21134 -10.20874 -10.20430 -10.18576
 Alpha  occ. eigenvalues --  -10.18491  -7.96636  -7.96430  -5.92958  -5.92740
 Alpha  occ. eigenvalues --   -5.92567  -5.92351  -5.92180  -5.91998  -1.08838
 Alpha  occ. eigenvalues --   -1.08536  -1.08196  -1.08003  -1.07033  -1.06676
 Alpha  occ. eigenvalues --   -0.96402  -0.95965  -0.92712  -0.90019  -0.88481
 Alpha  occ. eigenvalues --   -0.86763  -0.84513  -0.80424  -0.78669  -0.77412
 Alpha  occ. eigenvalues --   -0.76130  -0.75348  -0.74920  -0.72940  -0.72532
 Alpha  occ. eigenvalues --   -0.71833  -0.70072  -0.68744  -0.67309  -0.66093
 Alpha  occ. eigenvalues --   -0.65700  -0.64833  -0.60926  -0.59653  -0.58605
 Alpha  occ. eigenvalues --   -0.57553  -0.56623  -0.55954  -0.55505  -0.54427
 Alpha  occ. eigenvalues --   -0.53653  -0.51859  -0.50369  -0.49973  -0.49876
 Alpha  occ. eigenvalues --   -0.49433  -0.48768  -0.48675  -0.48401  -0.48096
 Alpha  occ. eigenvalues --   -0.47877  -0.47281  -0.46734  -0.46443  -0.45720
 Alpha  occ. eigenvalues --   -0.45308  -0.45050  -0.44761  -0.44464  -0.43940
 Alpha  occ. eigenvalues --   -0.42763  -0.42636  -0.42244  -0.42165  -0.41806
 Alpha  occ. eigenvalues --   -0.41411  -0.41298  -0.41207  -0.40685  -0.39920
 Alpha  occ. eigenvalues --   -0.39740  -0.39099  -0.38560  -0.37698  -0.37262
 Alpha  occ. eigenvalues --   -0.36052  -0.35585  -0.34080  -0.33596  -0.33517
 Alpha  occ. eigenvalues --   -0.33089  -0.32414  -0.31180  -0.30377  -0.29878
 Alpha  occ. eigenvalues --   -0.29362  -0.29137  -0.28784  -0.28339  -0.27276
 Alpha  occ. eigenvalues --   -0.26362  -0.24409  -0.24268  -0.19010
 Alpha virt. eigenvalues --   -0.13271  -0.07094  -0.06251  -0.04911  -0.04222
 Alpha virt. eigenvalues --   -0.00992  -0.00248  -0.00219   0.00104   0.00611
 Alpha virt. eigenvalues --    0.00693   0.01000   0.01125   0.01313   0.01831

 Mulliken charges:
               1
     1  C    0.383192
     2  C   -0.041552
     3  C    0.115827
     4  C    0.223772
     5  C    0.231791
     6  C   -0.709396
     7  C    0.216215
     8  C    0.173528
     9  C    0.617822
    10  C   -0.375416
    11  C    0.311930
    12  C    0.108827
    13  C   -0.512242
    14  C   -0.640909
    15  H    0.160585
    16  H    0.162100
    17  H    0.179835
    18  N   -0.165674
    19  N   -0.146076
    20  O   -0.272535
    21  O   -0.269267
    22  O   -0.276194
    23  O   -0.129235
    24  C   -0.203383
    25  H    0.174086
    26  H    0.178127
    27  H    0.183795
    28  C   -0.198239
    29  H    0.174697
    30  H    0.175421
    31  H    0.182964
    32  C    0.113285
    33  C   -0.341653
    34  S   -0.416017
    35  C   -0.363991
    36  H    0.120657
    37  C    0.565452
    38  O   -0.126445
    39  C    0.879833
    40  C   -0.241611
    41  C   -0.004132
    42  S   -0.250423
    43  H    0.164482
    44  H    0.158270
    45  H    0.142590
    46  C   -0.496658
    47  O   -0.135510
    48  C   -0.286469
    49  H    0.130135
    50  C   -0.238660
    51  H    0.158883
    52  H    0.144157
    53  H    0.164609
    54  H    0.144821
 Sum of Mulliken charges =  -0.00000

 Dipole moment (field-independent basis, Debye):
    X=              2.7346    Y=             -0.2477    Z=              0.0128  Tot=              2.7459
 Quadrupole moment (field-independent basis, Debye-Ang):
   XX=           -220.2435   YY=           -221.6925   ZZ=           -208.2538
   XY=             -2.2146   XZ=             -7.8372   YZ=             16.8431

 Normal termination of Gaussian 16 at Thu Nov 26 12:01:54 2020.
