 Gaussian 16, Revision C.01,
 Gaussian 16:  ES64L-G16RevC.01  3-Jul-2019

 -------------------------------------
 # opt=modredundant b3lyp/6-311+g(d,p)
 -------------------------------------

 ----------
 NDI_45.pdb
 ----------
 Symbolic Z-matrix:
 Charge =  0 Multiplicity = 1

 SCF Done:  E(RB3LYP) =  -2359.33348823     A.U. after   17 cycles
 SCF Done:  E(RB3LYP) =  -2359.33532593     A.U. after   16 cycles
 SCF Done:  E(RB3LYP) =  -2359.33741826     A.U. after   14 cycles
 SCF Done:  E(RB3LYP) =  -2359.33771494     A.U. after   13 cycles
 SCF Done:  E(RB3LYP) =  -2359.33785711     A.U. after   16 cycles
 SCF Done:  E(RB3LYP) =  -2359.33800404     A.U. after   12 cycles
 SCF Done:  E(RB3LYP) =  -2359.33808942     A.U. after   13 cycles
 SCF Done:  E(RB3LYP) =  -2359.33813031     A.U. after   13 cycles
 SCF Done:  E(RB3LYP) =  -2359.33815928     A.U. after   13 cycles
 SCF Done:  E(RB3LYP) =  -2359.33817824     A.U. after   13 cycles
 SCF Done:  E(RB3LYP) =  -2359.33819007     A.U. after   10 cycles
 SCF Done:  E(RB3LYP) =  -2359.33819067     A.U. after   10 cycles
 SCF Done:  E(RB3LYP) =  -2359.33819102     A.U. after   10 cycles
 SCF Done:  E(RB3LYP) =  -2359.33819155     A.U. after    9 cycles
 SCF Done:  E(RB3LYP) =  -2359.33819195     A.U. after   10 cycles
 SCF Done:  E(RB3LYP) =  -2359.33819209     A.U. after    9 cycles
 SCF Done:  E(RB3LYP) =  -2359.33819221     A.U. after    9 cycles
 SCF Done:  E(RB3LYP) =  -2359.33819229     A.U. after    9 cycles
 SCF Done:  E(RB3LYP) =  -2359.33819236     A.U. after    9 cycles
 SCF Done:  E(RB3LYP) =  -2359.33819239     A.U. after    9 cycles
 Optimization completed.
    -- Stationary point found.

                         Standard orientation:
 ---------------------------------------------------------------------
 Center     Atomic      Atomic             Coordinates (Angstroms)
 Number     Number       Type             X           Y           Z
 ---------------------------------------------------------------------
      1          6           0       -2.644297   -2.971104    0.470253
      2          6           0       -2.296975   -1.540331    0.260814
      3          6           0       -3.314218   -0.573923    0.087900
      4          6           0       -4.672378   -0.952238    0.112451
      5          6           0       -5.055817   -2.372754    0.332735
      6          6           0       -0.980238   -1.159720    0.260211
      7          6           0       -2.940807    0.782241   -0.126266
      8          6           0       -1.565987    1.167520   -0.138125
      9          6           0       -0.565372    0.195454    0.100744
     10          6           0       -1.246094    2.576926   -0.494887
     11          6           0       -3.676173    3.144380   -0.604915
     12          6           0       -3.981833    1.722219   -0.332233
     13          6           0       -5.312340    1.331041   -0.299314
     14          6           0       -5.664575   -0.003325   -0.074291
     15          1           0       -6.701152   -0.313794   -0.050454
     16          1           0       -6.070564    2.087302   -0.458469
     17          1           0       -0.234920   -1.924887    0.433985
     18          7           0       -2.320974    3.463038   -0.703172
     19          7           0       -4.006146   -3.292687    0.493194
     20          8           0       -1.803827   -3.839087    0.616882
     21          8           0       -6.218213   -2.729820    0.370637
     22          8           0       -4.545798    3.985717   -0.753390
     23          8           0       -0.115497    3.008514   -0.634997
     24          6           0       -1.954739    4.844533   -1.046693
     25          1           0       -1.369307    5.286356   -0.239687
     26          1           0       -1.348554    4.849604   -1.952270
     27          1           0       -2.873440    5.402783   -1.195909
     28          6           0       -4.337536   -4.708948    0.705511
     29          1           0       -3.892817   -5.312956   -0.085615
     30          1           0       -3.933536   -5.042236    1.661734
     31          1           0       -5.418641   -4.803934    0.695459
     32          6           0        0.872290    0.432081    0.223403
     33          6           0        1.554207    1.404220    0.922519
     34         16           0        1.991891   -0.749034   -0.434324
     35          6           0        2.949149    1.216573    0.921632
     36          1           0        1.059777    2.227113    1.411670
     37          6           0        3.380236    0.093703    0.213594
     38          8           0        3.871577    2.010221    1.527201
     39          6           0        4.730729   -0.336835   -0.014900
     40          6           0        3.419977    3.226246    2.118520
     41          6           0        5.156383   -1.472596   -0.696403
     42         16           0        6.133545    0.558730    0.557639
     43          1           0        4.314211    3.733983    2.475479
     44          1           0        2.907924    3.853449    1.382432
     45          1           0        2.753530    3.028171    2.964353
     46          6           0        6.569036   -1.619911   -0.757903
     47          8           0        4.232509   -2.313431   -1.228807
     48          6           0        7.217313   -0.596534   -0.123497
     49          1           0        7.079769   -2.438457   -1.243516
     50          6           0        4.692640   -3.484683   -1.897058
     51          1           0        8.282161   -0.459398   -0.013750
     52          1           0        5.261723   -4.127254   -1.217769
     53          1           0        3.798445   -4.009357   -2.228222
     54          1           0        5.306751   -3.226400   -2.765646
 ---------------------------------------------------------------------

 The electronic state is 1-A.
 Alpha  occ. eigenvalues --  -88.88457 -88.88454 -19.17259 -19.16911 -19.12310
 Alpha  occ. eigenvalues --  -19.12269 -19.11647 -19.11581 -14.38478 -14.38004
 Alpha  occ. eigenvalues --  -10.30910 -10.30743 -10.30492 -10.30225 -10.24894
 Alpha  occ. eigenvalues --  -10.24626 -10.23953 -10.23716 -10.23594 -10.22782
 Alpha  occ. eigenvalues --  -10.22481 -10.22406 -10.22384 -10.22115 -10.22103
 Alpha  occ. eigenvalues --  -10.22002 -10.21839 -10.21823 -10.21288 -10.21082
 Alpha  occ. eigenvalues --  -10.20934 -10.20926 -10.20858 -10.20626 -10.19040
 Alpha  occ. eigenvalues --  -10.18912  -7.97020  -7.97006  -5.93337  -5.93316
 Alpha  occ. eigenvalues --   -5.92948  -5.92927  -5.92574  -5.92567  -1.08811
 Alpha  occ. eigenvalues --   -1.08561  -1.08472  -1.08113  -1.06747  -1.06207
 Alpha  occ. eigenvalues --   -0.96123  -0.95556  -0.92295  -0.90426  -0.88852
 Alpha  occ. eigenvalues --   -0.86552  -0.84102  -0.80423  -0.78314  -0.77726
 Alpha  occ. eigenvalues --   -0.76475  -0.75407  -0.75053  -0.73253  -0.72358
 Alpha  occ. eigenvalues --   -0.71770  -0.70401  -0.68842  -0.67038  -0.65747
 Alpha  occ. eigenvalues --   -0.65524  -0.64578  -0.61131  -0.59918  -0.58547
 Alpha  occ. eigenvalues --   -0.57307  -0.56750  -0.56448  -0.55230  -0.54888
 Alpha  occ. eigenvalues --   -0.53431  -0.51585  -0.50245  -0.49876  -0.49651
 Alpha  occ. eigenvalues --   -0.49346  -0.48860  -0.48629  -0.48449  -0.48407
 Alpha  occ. eigenvalues --   -0.48155  -0.46966  -0.46502  -0.46250  -0.45841
 Alpha  occ. eigenvalues --   -0.45646  -0.44882  -0.44435  -0.44146  -0.43622
 Alpha  occ. eigenvalues --   -0.42785  -0.42549  -0.42351  -0.41991  -0.41776
 Alpha  occ. eigenvalues --   -0.41712  -0.41156  -0.41067  -0.40433  -0.39793
 Alpha  occ. eigenvalues --   -0.39532  -0.39145  -0.38919  -0.37725  -0.37448
 Alpha  occ. eigenvalues --   -0.36485  -0.35793  -0.34404  -0.34056  -0.33769
 Alpha  occ. eigenvalues --   -0.33509  -0.32016  -0.30925  -0.30343  -0.29706
 Alpha  occ. eigenvalues --   -0.29230  -0.28801  -0.28595  -0.27982  -0.27252
 Alpha  occ. eigenvalues --   -0.26041  -0.24757  -0.24620  -0.19447
 Alpha virt. eigenvalues --   -0.12977  -0.07321  -0.06366  -0.04523  -0.03799
 Alpha virt. eigenvalues --   -0.00866  -0.00443  -0.00314   0.00026   0.00434
 Alpha virt. eigenvalues --    0.00783   0.01160   0.01484   0.01561   0.01818

 Mulliken charges:
               1
     1  C    0.295312
     2  C   -0.086874
     3  C    0.153845
     4  C    0.203391
     5  C    0.232513
     6  C   -0.407587
     7  C    0.214610
     8  C    0.318496
     9  C    0.493820
    10  C   -0.389267
    11  C    0.198994
    12  C    0.157434
    13  C   -0.472436
    14  C   -0.583111
    15  H    0.158672
    16  H    0.160757
    17  H    0.181203
    18  N   -0.138502
    19  N   -0.143043
    20  O   -0.279597
    21  O   -0.268755
    22  O   -0.277100
    23  O   -0.204369
    24  C   -0.202816
    25  H    0.169718
    26  H    0.176176
    27  H    0.182402
    28  C   -0.197887
    29  H    0.173610
    30  H    0.174359
    31  H    0.182197
    32  C    0.087481
    33  C   -0.488677
    34  S   -0.557970
    35  C   -0.166103
    36  H    0.135291
    37  C    0.704735
    38  O   -0.131602
    39  C    0.796552
    40  C   -0.240823
    41  C   -0.048637
    42  S   -0.263123
    43  H    0.164912
    44  H    0.161643
    45  H    0.144372
    46  C   -0.589265
    47  O   -0.129620
    48  C   -0.268749
    49  H    0.132224
    50  C   -0.240310
    51  H    0.161234
    52  H    0.146391
    53  H    0.168502
    54  H    0.145378
 Sum of Mulliken charges =  -0.00000

 Dipole moment (field-independent basis, Debye):
    X=              4.5006    Y=             -0.5635    Z=              0.1851  Tot=              4.5395
 Quadrupole moment (field-independent basis, Debye-Ang):
   XX=           -217.5165   YY=           -214.2247   ZZ=           -216.3137
   XY=             -3.8846   XZ=             -4.5721   YZ=             15.0322

 Normal termination of Gaussian 16 at Thu Nov 26 11:59:30 2020.
