 Gaussian 16, Revision C.01,
 Gaussian 16:  ES64L-G16RevC.01  3-Jul-2019

 -------------------------------------
 # opt=modredundant b3lyp/6-311+g(d,p)
 -------------------------------------

 -----------
 NDI_155.pdb
 -----------
 Symbolic Z-matrix:
 Charge =  0 Multiplicity = 1

 SCF Done:  E(RB3LYP) =  -2359.30885998     A.U. after   18 cycles
 SCF Done:  E(RB3LYP) =  -2359.32305423     A.U. after   17 cycles
 SCF Done:  E(RB3LYP) =  -2359.33016596     A.U. after   16 cycles
 SCF Done:  E(RB3LYP) =  -2359.33317341     A.U. after   15 cycles
 SCF Done:  E(RB3LYP) =  -2359.33281910     A.U. after   16 cycles
 SCF Done:  E(RB3LYP) =  -2359.33290420     A.U. after   15 cycles
 SCF Done:  E(RB3LYP) =  -2359.33495112     A.U. after   13 cycles
 SCF Done:  E(RB3LYP) =  -2359.33538194     A.U. after   13 cycles
 SCF Done:  E(RB3LYP) =  -2359.33554485     A.U. after   13 cycles
 SCF Done:  E(RB3LYP) =  -2359.33560947     A.U. after   12 cycles
 SCF Done:  E(RB3LYP) =  -2359.33567541     A.U. after   12 cycles
 SCF Done:  E(RB3LYP) =  -2359.33569294     A.U. after   12 cycles
 SCF Done:  E(RB3LYP) =  -2359.33570481     A.U. after   12 cycles
 SCF Done:  E(RB3LYP) =  -2359.33571012     A.U. after   12 cycles
 SCF Done:  E(RB3LYP) =  -2359.33571213     A.U. after   11 cycles
 SCF Done:  E(RB3LYP) =  -2359.33571280     A.U. after   10 cycles
 SCF Done:  E(RB3LYP) =  -2359.33571322     A.U. after   10 cycles
 SCF Done:  E(RB3LYP) =  -2359.33571362     A.U. after   10 cycles
 SCF Done:  E(RB3LYP) =  -2359.33571376     A.U. after    9 cycles
 SCF Done:  E(RB3LYP) =  -2359.33571383     A.U. after    9 cycles
 Optimization completed.
    -- Stationary point found.

                         Standard orientation:
 ---------------------------------------------------------------------
 Center     Atomic      Atomic             Coordinates (Angstroms)
 Number     Number       Type             X           Y           Z
 ---------------------------------------------------------------------
      1          6           0       -3.421715   -2.688062   -0.432487
      2          6           0       -2.736603   -1.387889   -0.206347
      3          6           0       -3.484902   -0.194493   -0.090400
      4          6           0       -4.890796   -0.219415   -0.159208
      5          6           0       -5.609939   -1.502871   -0.376134
      6          6           0       -1.373062   -1.357288   -0.113051
      7          6           0       -2.780504    1.025795    0.089921
      8          6           0       -1.351127    1.051760    0.134506
      9          6           0       -0.609068   -0.159989    0.089618
     10          6           0       -0.711986    2.377222    0.236124
     11          6           0       -2.909195    3.511903    0.488071
     12          6           0       -3.554911    2.204363    0.242334
     13          6           0       -4.941870    2.159521    0.187632
     14          6           0       -5.616417    0.954568   -0.022658
     15          1           0       -6.696785    0.916460   -0.074426
     16          1           0       -5.485857    3.086696    0.316553
     17          1           0       -0.859709   -2.297164   -0.245625
     18          7           0       -1.514395    3.497859    0.503222
     19          7           0       -4.817970   -2.658158   -0.505925
     20          8           0       -2.820494   -3.741483   -0.544721
     21          8           0       -6.823093   -1.561883   -0.442732
     22          8           0       -3.541778    4.539848    0.660658
     23          8           0        0.488451    2.553097    0.094489
     24          6           0       -0.807815    4.774342    0.680418
     25          1           0       -0.013560    4.648387    1.414295
     26          1           0       -0.359710    5.092860   -0.262369
     27          1           0       -1.533297    5.509519    1.014443
     28          6           0       -5.487173   -3.947993   -0.727380
     29          1           0       -5.134429   -4.389327   -1.659652
     30          1           0       -5.250318   -4.631283    0.088649
     31          1           0       -6.556188   -3.766020   -0.772066
     32          6           0        0.828081   -0.409787    0.240859
     33          6           0        1.316200   -1.645389    0.671181
     34         16           0        2.176802    0.616949   -0.225914
     35          6           0        2.709025   -1.765560    0.616278
     36          1           0        0.678934   -2.427423    1.053011
     37          6           0        3.350159   -0.633075    0.107716
     38          8           0        3.450441   -2.836570    1.005787
     39          6           0        4.761538   -0.449539   -0.086851
     40          6           0        2.761848   -4.002348    1.448372
     41          6           0        5.412074    0.673206   -0.591971
     42         16           0        5.954716   -1.686525    0.299398
     43          1           0        3.532710   -4.735457    1.678655
     44          1           0        2.176170   -3.795494    2.350077
     45          1           0        2.106645   -4.394663    0.663949
     46          6           0        6.825983    0.544185   -0.665118
     47          8           0        4.681774    1.753477   -0.961571
     48          6           0        7.251387   -0.676246   -0.218250
     49          1           0        7.493384    1.311161   -1.029772
     50          6           0        5.370425    2.907303   -1.434952
     51          1           0        8.266160   -1.040049   -0.164971
     52          1           0        5.931001    2.683931   -2.348350
     53          1           0        4.599316    3.643629   -1.652867
     54          1           0        6.047578    3.302301   -0.670961
 ---------------------------------------------------------------------

 The electronic state is 1-A.
 Alpha  occ. eigenvalues --  -88.88491 -88.88228 -19.17185 -19.17093 -19.12294
 Alpha  occ. eigenvalues --  -19.12284 -19.11848 -19.11425 -14.38469 -14.37933
 Alpha  occ. eigenvalues --  -10.30870 -10.30758 -10.30301 -10.30009 -10.24980
 Alpha  occ. eigenvalues --  -10.24616 -10.23999 -10.23861 -10.23838 -10.22636
 Alpha  occ. eigenvalues --  -10.22449 -10.22299 -10.22142 -10.22092 -10.21943
 Alpha  occ. eigenvalues --  -10.21917 -10.21792 -10.21652 -10.21220 -10.21190
 Alpha  occ. eigenvalues --  -10.20940 -10.20718 -10.20656 -10.20571 -10.19109
 Alpha  occ. eigenvalues --  -10.19075  -7.97044  -7.96669  -5.93352  -5.92989
 Alpha  occ. eigenvalues --   -5.92964  -5.92614  -5.92576  -5.92228  -1.08821
 Alpha  occ. eigenvalues --   -1.08651  -1.08539  -1.08143  -1.06728  -1.06136
 Alpha  occ. eigenvalues --   -0.96098  -0.95580  -0.92141  -0.90301  -0.88776
 Alpha  occ. eigenvalues --   -0.86434  -0.83988  -0.80472  -0.78168  -0.77574
 Alpha  occ. eigenvalues --   -0.76547  -0.75447  -0.75025  -0.73330  -0.72381
 Alpha  occ. eigenvalues --   -0.71467  -0.70564  -0.68812  -0.66937  -0.65754
 Alpha  occ. eigenvalues --   -0.65376  -0.64738  -0.60917  -0.59964  -0.58592
 Alpha  occ. eigenvalues --   -0.57357  -0.56716  -0.56362  -0.55252  -0.54730
 Alpha  occ. eigenvalues --   -0.53618  -0.51455  -0.50094  -0.49990  -0.49458
 Alpha  occ. eigenvalues --   -0.49347  -0.48865  -0.48682  -0.48590  -0.48333
 Alpha  occ. eigenvalues --   -0.48131  -0.47170  -0.46594  -0.46165  -0.45964
 Alpha  occ. eigenvalues --   -0.45592  -0.45018  -0.44334  -0.44035  -0.43499
 Alpha  occ. eigenvalues --   -0.42980  -0.42505  -0.42166  -0.41867  -0.41691
 Alpha  occ. eigenvalues --   -0.41647  -0.41293  -0.41047  -0.40481  -0.39676
 Alpha  occ. eigenvalues --   -0.39415  -0.39145  -0.38961  -0.37592  -0.37148
 Alpha  occ. eigenvalues --   -0.36322  -0.35925  -0.34366  -0.34102  -0.33635
 Alpha  occ. eigenvalues --   -0.33099  -0.31925  -0.30767  -0.30154  -0.29762
 Alpha  occ. eigenvalues --   -0.29252  -0.28692  -0.28628  -0.27822  -0.27308
 Alpha  occ. eigenvalues --   -0.25984  -0.24834  -0.24473  -0.19563
 Alpha virt. eigenvalues --   -0.12728  -0.07521  -0.06346  -0.04343  -0.03715
 Alpha virt. eigenvalues --   -0.00770  -0.00511  -0.00384   0.00044   0.00463
 Alpha virt. eigenvalues --    0.00924   0.01177   0.01432   0.01828   0.02002

 Mulliken charges:
               1
     1  C    0.343461
     2  C   -0.021470
     3  C    0.121327
     4  C    0.189746
     5  C    0.296725
     6  C   -0.299183
     7  C    0.128105
     8  C    0.300607
     9  C    0.345858
    10  C   -0.006415
    11  C    0.138647
    12  C    0.244782
    13  C   -0.493023
    14  C   -0.617985
    15  H    0.157830
    16  H    0.160522
    17  H    0.168780
    18  N   -0.160046
    19  N   -0.141839
    20  O   -0.286183
    21  O   -0.269642
    22  O   -0.280999
    23  O   -0.227100
    24  C   -0.217381
    25  H    0.174940
    26  H    0.175549
    27  H    0.184265
    28  C   -0.197104
    29  H    0.173644
    30  H    0.173146
    31  H    0.182867
    32  C   -0.241774
    33  C   -0.726518
    34  S   -0.258446
    35  C   -0.202462
    36  H    0.139413
    37  C    0.693001
    38  O   -0.138192
    39  C    0.781037
    40  C   -0.225226
    41  C    0.009810
    42  S   -0.270569
    43  H    0.167686
    44  H    0.146456
    45  H    0.152622
    46  C   -0.583438
    47  O   -0.120720
    48  C   -0.275797
    49  H    0.132280
    50  C   -0.245457
    51  H    0.161747
    52  H    0.143754
    53  H    0.171498
    54  H    0.146863
 Sum of Mulliken charges =  -0.00000

 Dipole moment (field-independent basis, Debye):
    X=              4.9806    Y=             -0.7066    Z=              0.0661  Tot=              5.0309
 Quadrupole moment (field-independent basis, Debye-Ang):
   XX=           -212.2971   YY=           -215.6624   ZZ=           -219.7077
   XY=             12.7757   XZ=             -4.3668   YZ=            -10.6312

 Normal termination of Gaussian 16 at Thu Nov 26 13:41:45 2020.
