 Gaussian 16, Revision C.01,
 Gaussian 16:  ES64L-G16RevC.01  3-Jul-2019

 -------------------------------------
 # opt=modredundant b3lyp/6-311+g(d,p)
 -------------------------------------

 -----------
 NDI_100.pdb
 -----------
 Symbolic Z-matrix:
 Charge =  0 Multiplicity = 1

 SCF Done:  E(RB3LYP) =  -2359.33065570     A.U. after   18 cycles
 SCF Done:  E(RB3LYP) =  -2359.33344702     A.U. after   15 cycles
 SCF Done:  E(RB3LYP) =  -2359.33413588     A.U. after   15 cycles
 SCF Done:  E(RB3LYP) =  -2359.33429130     A.U. after   14 cycles
 SCF Done:  E(RB3LYP) =  -2359.33438521     A.U. after   13 cycles
 SCF Done:  E(RB3LYP) =  -2359.33441035     A.U. after   13 cycles
 SCF Done:  E(RB3LYP) =  -2359.33442840     A.U. after   12 cycles
 SCF Done:  E(RB3LYP) =  -2359.33443583     A.U. after   12 cycles
 SCF Done:  E(RB3LYP) =  -2359.33444094     A.U. after   11 cycles
 SCF Done:  E(RB3LYP) =  -2359.33444553     A.U. after   12 cycles
 SCF Done:  E(RB3LYP) =  -2359.33446109     A.U. after   12 cycles
 SCF Done:  E(RB3LYP) =  -2359.33446254     A.U. after   12 cycles
 SCF Done:  E(RB3LYP) =  -2359.33446284     A.U. after   10 cycles
 SCF Done:  E(RB3LYP) =  -2359.33446294     A.U. after    9 cycles
 SCF Done:  E(RB3LYP) =  -2359.33446301     A.U. after    9 cycles
 SCF Done:  E(RB3LYP) =  -2359.33446309     A.U. after    9 cycles
 SCF Done:  E(RB3LYP) =  -2359.33446315     A.U. after    9 cycles
 SCF Done:  E(RB3LYP) =  -2359.33446327     A.U. after    9 cycles
 SCF Done:  E(RB3LYP) =  -2359.33446338     A.U. after    9 cycles
 SCF Done:  E(RB3LYP) =  -2359.33446344     A.U. after    8 cycles
 Optimization completed.
    -- Stationary point found.

                         Standard orientation:
 ---------------------------------------------------------------------
 Center     Atomic      Atomic             Coordinates (Angstroms)
 Number     Number       Type             X           Y           Z
 ---------------------------------------------------------------------
      1          6           0        3.367039   -2.814886    0.070727
      2          6           0        2.685959   -1.497791   -0.043981
      3          6           0        3.424873   -0.301247    0.078081
      4          6           0        4.817262   -0.334858    0.319253
      5          6           0        5.528245   -1.636568    0.446686
      6          6           0        1.326856   -1.446246   -0.261156
      7          6           0        2.751602    0.944395   -0.047784
      8          6           0        1.350447    0.979158   -0.292726
      9          6           0        0.629505   -0.217462   -0.376623
     10          6           0        0.695199    2.307811   -0.494688
     11          6           0        2.858382    3.464606   -0.035982
     12          6           0        3.509438    2.134256    0.080719
     13          6           0        4.871341    2.078159    0.320546
     14          6           0        5.529007    0.844556    0.439051
     15          1           0        6.594529    0.796914    0.624854
     16          1           0        5.416293    3.008883    0.415394
     17          1           0        0.772577   -2.373328   -0.334560
     18          7           0        1.488133    3.455425   -0.306538
     19          7           0        4.746929   -2.795316    0.312468
     20          8           0        2.775652   -3.872120   -0.037064
     21          8           0        6.724825   -1.699921    0.655145
     22          8           0        3.480270    4.503649    0.089903
     23          8           0       -0.467102    2.441192   -0.816278
     24          6           0        0.799276    4.744361   -0.471458
     25          1           0        0.464370    4.859314   -1.503163
     26          1           0       -0.074120    4.774901    0.178735
     27          1           0        1.500476    5.531530   -0.213416
     28          6           0        5.405236   -4.105128    0.427838
     29          1           0        4.951898   -4.673243    1.240196
     30          1           0        5.275831   -4.665018   -0.498645
     31          1           0        6.458688   -3.933261    0.624197
     32          6           0       -0.834462   -0.310666   -0.581160
     33          6           0       -1.499455   -0.566678   -1.748579
     34         16           0       -1.928272   -0.153107    0.760876
     35          6           0       -2.909677   -0.616093   -1.572234
     36          1           0       -0.997172   -0.685244   -2.697795
     37          6           0       -3.330267   -0.417065   -0.267000
     38          8           0       -3.833789   -0.844290   -2.547014
     39          6           0       -4.678376   -0.431060    0.245714
     40          6           0       -3.372900   -0.993201   -3.884428
     41          6           0       -5.093477   -0.238064    1.554937
     42         16           0       -6.083968   -0.706663   -0.774530
     43          1           0       -4.263226   -1.144636   -4.492482
     44          1           0       -2.848862   -0.093793   -4.224397
     45          1           0       -2.715090   -1.863418   -3.982675
     46          6           0       -6.503284   -0.307166    1.738278
     47          8           0       -4.163004   -0.009807    2.525154
     48          6           0       -7.160719   -0.553926    0.565880
     49          1           0       -7.004934   -0.181032    2.686689
     50          6           0       -4.622488    0.206006    3.853660
     51          1           0       -8.224082   -0.654763    0.412713
     52          1           0       -5.158241   -0.669866    4.234742
     53          1           0       -3.730846    0.373303    4.455709
     54          1           0       -5.269884    1.087468    3.910653
 ---------------------------------------------------------------------

 The electronic state is 1-A.
 Alpha  occ. eigenvalues --  -88.87611 -88.87363 -19.16138 -19.16126 -19.12890
 Alpha  occ. eigenvalues --  -19.12826 -19.12532 -19.12472 -14.39019 -14.38682
 Alpha  occ. eigenvalues --  -10.31516 -10.31303 -10.31170 -10.31137 -10.23893
 Alpha  occ. eigenvalues --  -10.23651 -10.23530 -10.23519 -10.23474 -10.23299
 Alpha  occ. eigenvalues --  -10.23219 -10.23182 -10.22944 -10.22885 -10.22860
 Alpha  occ. eigenvalues --  -10.21936 -10.21858 -10.21848 -10.21350 -10.21348
 Alpha  occ. eigenvalues --  -10.21065 -10.20836 -10.20682 -10.19838 -10.18258
 Alpha  occ. eigenvalues --  -10.17993  -7.96155  -7.95918  -5.92481  -5.92227
 Alpha  occ. eigenvalues --   -5.92089  -5.91839  -5.91693  -5.91487  -1.09127
 Alpha  occ. eigenvalues --   -1.08915  -1.07682  -1.07605  -1.07329  -1.07086
 Alpha  occ. eigenvalues --   -0.96691  -0.96316  -0.93089  -0.89662  -0.88189
 Alpha  occ. eigenvalues --   -0.86845  -0.84875  -0.80496  -0.79013  -0.77115
 Alpha  occ. eigenvalues --   -0.75819  -0.75585  -0.74451  -0.72993  -0.72548
 Alpha  occ. eigenvalues --   -0.71742  -0.69833  -0.68619  -0.67547  -0.66405
 Alpha  occ. eigenvalues --   -0.65877  -0.65059  -0.60810  -0.59466  -0.58567
 Alpha  occ. eigenvalues --   -0.57830  -0.56570  -0.55596  -0.55475  -0.54062
 Alpha  occ. eigenvalues --   -0.53932  -0.52113  -0.50622  -0.50246  -0.50088
 Alpha  occ. eigenvalues --   -0.49145  -0.49027  -0.48867  -0.48068  -0.47825
 Alpha  occ. eigenvalues --   -0.47649  -0.47518  -0.47007  -0.46644  -0.45552
 Alpha  occ. eigenvalues --   -0.45342  -0.45113  -0.44876  -0.44618  -0.44117
 Alpha  occ. eigenvalues --   -0.43077  -0.42818  -0.42450  -0.42021  -0.41811
 Alpha  occ. eigenvalues --   -0.41539  -0.41223  -0.41010  -0.40669  -0.40263
 Alpha  occ. eigenvalues --   -0.39978  -0.38855  -0.38128  -0.37862  -0.36901
 Alpha  occ. eigenvalues --   -0.35837  -0.35519  -0.33601  -0.33202  -0.33047
 Alpha  occ. eigenvalues --   -0.32961  -0.32716  -0.31419  -0.30529  -0.30031
 Alpha  occ. eigenvalues --   -0.29512  -0.29320  -0.28831  -0.28723  -0.27224
 Alpha  occ. eigenvalues --   -0.26775  -0.24146  -0.23772  -0.18595
 Alpha virt. eigenvalues --   -0.13562  -0.07281  -0.06171  -0.05103  -0.04343
 Alpha virt. eigenvalues --   -0.01120  -0.00101  -0.00031   0.00275   0.00568
 Alpha virt. eigenvalues --    0.00610   0.00788   0.01069   0.01159   0.01724

 Mulliken charges:
               1
     1  C    0.392489
     2  C    0.046079
     3  C    0.197258
     4  C    0.207403
     5  C    0.276121
     6  C   -0.595696
     7  C    0.181941
     8  C   -0.046666
     9  C    0.416402
    10  C   -0.354405
    11  C    0.228634
    12  C    0.201038
    13  C   -0.514938
    14  C   -0.619645
    15  H    0.162198
    16  H    0.163286
    17  H    0.163471
    18  N   -0.143629
    19  N   -0.145921
    20  O   -0.267551
    21  O   -0.269534
    22  O   -0.270720
    23  O   -0.111286
    24  C   -0.208590
    25  H    0.177101
    26  H    0.179322
    27  H    0.183641
    28  C   -0.201306
    29  H    0.176028
    30  H    0.175516
    31  H    0.182826
    32  C    0.299627
    33  C   -0.429353
    34  S   -0.172041
    35  C   -0.135970
    36  H    0.112232
    37  C    0.217436
    38  O   -0.135474
    39  C    0.810957
    40  C   -0.224722
    41  C    0.042167
    42  S   -0.286037
    43  H    0.164869
    44  H    0.150010
    45  H    0.144254
    46  C   -0.544021
    47  O   -0.149832
    48  C   -0.322127
    49  H    0.128173
    50  C   -0.235165
    51  H    0.156289
    52  H    0.142113
    53  H    0.162035
    54  H    0.143716
 Sum of Mulliken charges =  -0.00000

 Dipole moment (field-independent basis, Debye):
    X=             -1.2411    Y=              0.1005    Z=              0.0626  Tot=              1.2467
 Quadrupole moment (field-independent basis, Debye-Ang):
   XX=           -221.0641   YY=           -234.0791   ZZ=           -196.9842
   XY=             -4.3319   XZ=            -10.2876   YZ=              3.4370

 Normal termination of Gaussian 16 at Thu Nov 26 15:22:38 2020.
