 Gaussian 16, Revision C.01,
 Gaussian 16:  ES64L-G16RevC.01  3-Jul-2019

 -------------------------------------
 # opt=modredundant b3lyp/6-311+g(d,p)
 -------------------------------------

 ----------
 NDI_75.pdb
 ----------
 Symbolic Z-matrix:
 Charge =  0 Multiplicity = 1

 SCF Done:  E(RB3LYP) =  -2359.32981395     A.U. after   20 cycles
 SCF Done:  E(RB3LYP) =  -2359.33356231     A.U. after   15 cycles
 SCF Done:  E(RB3LYP) =  -2359.33472015     A.U. after   16 cycles
 SCF Done:  E(RB3LYP) =  -2359.33502194     A.U. after   15 cycles
 SCF Done:  E(RB3LYP) =  -2359.33519149     A.U. after   14 cycles
 SCF Done:  E(RB3LYP) =  -2359.33525500     A.U. after   12 cycles
 SCF Done:  E(RB3LYP) =  -2359.33528624     A.U. after   13 cycles
 SCF Done:  E(RB3LYP) =  -2359.33530189     A.U. after   12 cycles
 SCF Done:  E(RB3LYP) =  -2359.33531475     A.U. after   12 cycles
 SCF Done:  E(RB3LYP) =  -2359.33532970     A.U. after   13 cycles
 SCF Done:  E(RB3LYP) =  -2359.33534890     A.U. after   11 cycles
 SCF Done:  E(RB3LYP) =  -2359.33535243     A.U. after   11 cycles
 SCF Done:  E(RB3LYP) =  -2359.33535382     A.U. after   12 cycles
 SCF Done:  E(RB3LYP) =  -2359.33535468     A.U. after   12 cycles
 SCF Done:  E(RB3LYP) =  -2359.33535489     A.U. after   10 cycles
 SCF Done:  E(RB3LYP) =  -2359.33535499     A.U. after   10 cycles
 SCF Done:  E(RB3LYP) =  -2359.33535507     A.U. after   12 cycles
 SCF Done:  E(RB3LYP) =  -2359.33535510     A.U. after   11 cycles
 SCF Done:  E(RB3LYP) =  -2359.33535511     A.U. after    9 cycles
 SCF Done:  E(RB3LYP) =  -2359.33535512     A.U. after    9 cycles
 Optimization completed.
    -- Stationary point found.

                         Standard orientation:
 ---------------------------------------------------------------------
 Center     Atomic      Atomic             Coordinates (Angstroms)
 Number     Number       Type             X           Y           Z
 ---------------------------------------------------------------------
      1          6           0       -2.937015   -2.883827    0.590195
      2          6           0       -2.451374   -1.497131    0.360091
      3          6           0       -3.364947   -0.462708    0.058722
      4          6           0       -4.749273   -0.728453   -0.031716
      5          6           0       -5.269058   -2.103795    0.199642
      6          6           0       -1.106673   -1.221593    0.452422
      7          6           0       -2.871216    0.851774   -0.165064
      8          6           0       -1.476442    1.121064   -0.068199
      9          6           0       -0.590865    0.089274    0.276659
     10          6           0       -0.995802    2.499634   -0.381666
     11          6           0       -3.345780    3.254863   -0.761644
     12          6           0       -3.801817    1.868822   -0.491020
     13          6           0       -5.155326    1.586727   -0.573120
     14          6           0       -5.633516    0.289710   -0.341816
     15          1           0       -6.690472    0.064743   -0.406345
     16          1           0       -5.833903    2.392329   -0.823597
     17          1           0       -0.426292   -2.027336    0.697207
     18          7           0       -1.965841    3.466021   -0.709162
     19          7           0       -4.318469   -3.094664    0.492954
     20          8           0       -2.190277   -3.807451    0.852390
     21          8           0       -6.455735   -2.363815    0.137603
     22          8           0       -4.122639    4.155258   -1.024428
     23          8           0        0.175068    2.823292   -0.382486
     24          6           0       -1.452824    4.810315   -1.012412
     25          1           0       -0.924251    5.209469   -0.146304
     26          1           0       -0.753321    4.756468   -1.846367
     27          1           0       -2.300294    5.440417   -1.262592
     28          6           0       -4.784118   -4.469836    0.725139
     29          1           0       -4.313099   -5.142590    0.008365
     30          1           0       -4.506370   -4.787918    1.730299
     31          1           0       -5.862936   -4.481455    0.607288
     32          6           0        0.866054    0.248285    0.452394
     33          6           0        1.536020    0.823272    1.500157
     34         16           0        1.960072   -0.575632   -0.624592
     35          6           0        2.939444    0.640007    1.421083
     36          1           0        1.035576    1.366877    2.288016
     37          6           0        3.360892   -0.093382    0.320047
     38          8           0        3.862414    1.101689    2.309429
     39          6           0        4.709744   -0.412114   -0.070878
     40          6           0        3.422793    2.001250    3.321439
     41          6           0        5.123752   -1.174864   -1.154457
     42         16           0        6.120457    0.159752    0.810479
     43          1           0        4.317397    2.299825    3.865341
     44          1           0        2.947589    2.884819    2.883355
     45          1           0        2.727937    1.511332    4.011808
     46          6           0        6.535943   -1.297704   -1.277251
     47          8           0        4.190185   -1.721197   -1.981844
     48          6           0        7.196045   -0.627723   -0.285418
     49          1           0        7.037566   -1.853289   -2.056108
     50          6           0        4.644275   -2.509007   -3.076465
     51          1           0        8.261911   -0.557710   -0.132134
     52          1           0        5.211574   -3.378781   -2.729097
     53          1           0        3.748086   -2.845663   -3.594794
     54          1           0        5.259384   -1.916335   -3.761580
 ---------------------------------------------------------------------

 The electronic state is 1-A.
 Alpha  occ. eigenvalues --  -88.87959 -88.87695 -19.16481 -19.16346 -19.12696
 Alpha  occ. eigenvalues --  -19.12626 -19.12297 -19.12204 -14.38834 -14.38506
 Alpha  occ. eigenvalues --  -10.31315 -10.31106 -10.30979 -10.30896 -10.23950
 Alpha  occ. eigenvalues --  -10.23948 -10.23807 -10.23438 -10.23307 -10.23275
 Alpha  occ. eigenvalues --  -10.23162 -10.23028 -10.22687 -10.22634 -10.22576
 Alpha  occ. eigenvalues --  -10.21693 -10.21624 -10.21579 -10.21565 -10.21294
 Alpha  occ. eigenvalues --  -10.21202 -10.21040 -10.20962 -10.20224 -10.18457
 Alpha  occ. eigenvalues --  -10.18316  -7.96505  -7.96249  -5.92828  -5.92559
 Alpha  occ. eigenvalues --   -5.92437  -5.92171  -5.92048  -5.91818  -1.08932
 Alpha  occ. eigenvalues --   -1.08680  -1.08003  -1.07869  -1.07129  -1.06834
 Alpha  occ. eigenvalues --   -0.96497  -0.96099  -0.92849  -0.89901  -0.88373
 Alpha  occ. eigenvalues --   -0.86813  -0.84645  -0.80446  -0.78793  -0.77310
 Alpha  occ. eigenvalues --   -0.76019  -0.75443  -0.74763  -0.72927  -0.72532
 Alpha  occ. eigenvalues --   -0.71853  -0.69973  -0.68707  -0.67402  -0.66207
 Alpha  occ. eigenvalues --   -0.65771  -0.64912  -0.60886  -0.59585  -0.58605
 Alpha  occ. eigenvalues --   -0.57651  -0.56577  -0.55800  -0.55588  -0.54288
 Alpha  occ. eigenvalues --   -0.53740  -0.51954  -0.50456  -0.50071  -0.49946
 Alpha  occ. eigenvalues --   -0.49354  -0.48857  -0.48749  -0.48269  -0.48000
 Alpha  occ. eigenvalues --   -0.47780  -0.47392  -0.46825  -0.46524  -0.45662
 Alpha  occ. eigenvalues --   -0.45295  -0.45010  -0.44866  -0.44543  -0.44014
 Alpha  occ. eigenvalues --   -0.42851  -0.42718  -0.42277  -0.42158  -0.41797
 Alpha  occ. eigenvalues --   -0.41431  -0.41342  -0.41080  -0.40753  -0.40043
 Alpha  occ. eigenvalues --   -0.39825  -0.39009  -0.38463  -0.37763  -0.37117
 Alpha  occ. eigenvalues --   -0.35928  -0.35590  -0.33957  -0.33468  -0.33381
 Alpha  occ. eigenvalues --   -0.32959  -0.32544  -0.31264  -0.30427  -0.29920
 Alpha  occ. eigenvalues --   -0.29389  -0.29261  -0.28856  -0.28456  -0.27246
 Alpha  occ. eigenvalues --   -0.26495  -0.24331  -0.24113  -0.18864
 Alpha virt. eigenvalues --   -0.13374  -0.07146  -0.06175  -0.04994  -0.04331
 Alpha virt. eigenvalues --   -0.01046  -0.00188  -0.00137   0.00107   0.00578
 Alpha virt. eigenvalues --    0.00761   0.00972   0.01008   0.01226   0.01816

 Mulliken charges:
               1
     1  C    0.390654
     2  C   -0.028274
     3  C    0.134399
     4  C    0.198791
     5  C    0.240178
     6  C   -0.702686
     7  C    0.214113
     8  C    0.163130
     9  C    0.643040
    10  C   -0.415883
    11  C    0.304045
    12  C    0.112996
    13  C   -0.515997
    14  C   -0.634921
    15  H    0.161075
    16  H    0.162303
    17  H    0.175211
    18  N   -0.164675
    19  N   -0.147328
    20  O   -0.270696
    21  O   -0.269120
    22  O   -0.273772
    23  O   -0.102625
    24  C   -0.203551
    25  H    0.174589
    26  H    0.178974
    27  H    0.184119
    28  C   -0.198244
    29  H    0.175136
    30  H    0.175637
    31  H    0.183080
    32  C    0.149111
    33  C   -0.446069
    34  S   -0.346086
    35  C   -0.372048
    36  H    0.115281
    37  C    0.526346
    38  O   -0.128020
    39  C    0.900474
    40  C   -0.239175
    41  C    0.018811
    42  S   -0.255772
    43  H    0.164335
    44  H    0.156528
    45  H    0.142153
    46  C   -0.499015
    47  O   -0.138454
    48  C   -0.293524
    49  H    0.129527
    50  C   -0.237977
    51  H    0.158096
    52  H    0.143228
    53  H    0.163738
    54  H    0.144813
 Sum of Mulliken charges =  -0.00000

 Dipole moment (field-independent basis, Debye):
    X=              2.1903    Y=             -0.1113    Z=              0.0133  Tot=              2.1932
 Quadrupole moment (field-independent basis, Debye-Ang):
   XX=           -220.8445   YY=           -224.4458   ZZ=           -205.4842
   XY=             -1.4536   XZ=             -8.2792   YZ=             15.9936

 Normal termination of Gaussian 16 at Thu Nov 26 12:17:18 2020.
