 Gaussian 16, Revision C.01,
 Gaussian 16:  ES64L-G16RevC.01  3-Jul-2019

 -------------------------------------
 # opt=modredundant b3lyp/6-311+g(d,p)
 -------------------------------------

 ------------
 NDI_-160.pdb
 ------------
 Symbolic Z-matrix:
 Charge =  0 Multiplicity = 1

 SCF Done:  E(RB3LYP) =  -2359.30483720     A.U. after   17 cycles
 SCF Done:  E(RB3LYP) =  -2359.32370786     A.U. after   17 cycles
 SCF Done:  E(RB3LYP) =  -2359.33271691     A.U. after   16 cycles
 SCF Done:  E(RB3LYP) =  -2359.33455877     A.U. after   14 cycles
 SCF Done:  E(RB3LYP) =  -2359.33515955     A.U. after   13 cycles
 SCF Done:  E(RB3LYP) =  -2359.33519965     A.U. after   13 cycles
 SCF Done:  E(RB3LYP) =  -2359.33529661     A.U. after   12 cycles
 SCF Done:  E(RB3LYP) =  -2359.33534791     A.U. after   12 cycles
 SCF Done:  E(RB3LYP) =  -2359.33538090     A.U. after   13 cycles
 SCF Done:  E(RB3LYP) =  -2359.33540846     A.U. after   12 cycles
 SCF Done:  E(RB3LYP) =  -2359.33542996     A.U. after    9 cycles
 SCF Done:  E(RB3LYP) =  -2359.33543053     A.U. after    9 cycles
 SCF Done:  E(RB3LYP) =  -2359.33543081     A.U. after    9 cycles
 SCF Done:  E(RB3LYP) =  -2359.33543098     A.U. after    9 cycles
 SCF Done:  E(RB3LYP) =  -2359.33543115     A.U. after    9 cycles
 SCF Done:  E(RB3LYP) =  -2359.33543120     A.U. after    9 cycles
 SCF Done:  E(RB3LYP) =  -2359.33543123     A.U. after    9 cycles
 SCF Done:  E(RB3LYP) =  -2359.33543124     A.U. after    9 cycles
 SCF Done:  E(RB3LYP) =  -2359.33543125     A.U. after    9 cycles
 SCF Done:  E(RB3LYP) =  -2359.33543125     A.U. after    9 cycles
 Optimization completed.
    -- Stationary point found.

                         Standard orientation:
 ---------------------------------------------------------------------
 Center     Atomic      Atomic             Coordinates (Angstroms)
 Number     Number       Type             X           Y           Z
 ---------------------------------------------------------------------
      1          6           0       -3.423526   -2.695278    0.362984
      2          6           0       -2.739126   -1.391790    0.153984
      3          6           0       -3.484900   -0.193404    0.083156
      4          6           0       -4.888563   -0.215911    0.184859
      5          6           0       -5.607421   -1.502051    0.385658
      6          6           0       -1.377992   -1.363863    0.039233
      7          6           0       -2.778551    1.027374   -0.086071
      8          6           0       -1.349299    1.048847   -0.165000
      9          6           0       -0.609069   -0.166967   -0.150618
     10          6           0       -0.710241    2.372181   -0.288953
     11          6           0       -2.910968    3.523645   -0.414039
     12          6           0       -3.552880    2.211540   -0.187173
     13          6           0       -4.938470    2.170468   -0.097133
     14          6           0       -5.613111    0.963563    0.097256
     15          1           0       -6.691991    0.927828    0.174743
     16          1           0       -5.480686    3.103347   -0.185922
     17          1           0       -0.871801   -2.310121    0.146550
     18          7           0       -1.518398    3.503736   -0.483510
     19          7           0       -4.817467   -2.663289    0.466652
     20          8           0       -2.823367   -3.752837    0.437144
     21          8           0       -6.818889   -1.558744    0.479402
     22          8           0       -3.544727    4.558778   -0.531691
     23          8           0        0.498510    2.540425   -0.230636
     24          6           0       -0.811973    4.779219   -0.668483
     25          1           0       -0.283746    5.053510    0.246015
     26          1           0       -0.081949    4.676644   -1.469976
     27          1           0       -1.552992    5.533850   -0.912764
     28          6           0       -5.486578   -3.956151    0.669715
     29          1           0       -5.261875   -4.622083   -0.163812
     30          1           0       -5.122774   -4.418235    1.587665
     31          1           0       -6.554451   -3.772960    0.732890
     32          6           0        0.828999   -0.419998   -0.288906
     33          6           0        1.326668   -1.674441   -0.654008
     34         16           0        2.173457    0.625978    0.153242
     35          6           0        2.717055   -1.792310   -0.570677
     36          1           0        0.700158   -2.475122   -1.013245
     37          6           0        3.350801   -0.637823   -0.103160
     38          8           0        3.463969   -2.879938   -0.898634
     39          6           0        4.758714   -0.445580    0.103825
     40          6           0        2.782692   -4.061210   -1.310601
     41          6           0        5.402820    0.699472    0.566377
     42         16           0        5.956573   -1.699652   -0.206337
     43          1           0        3.556955   -4.803266   -1.496470
     44          1           0        2.110724   -4.422694   -0.525553
     45          1           0        2.216209   -3.888393   -2.231503
     46          6           0        6.815183    0.573309    0.667006
     47          8           0        4.668538    1.795744    0.874254
     48          6           0        7.245883   -0.666788    0.283680
     49          1           0        7.477901    1.356059    1.005709
     50          6           0        5.351015    2.969276    1.306739
     51          1           0        8.261048   -1.032833    0.262715
     52          1           0        6.040979    3.329134    0.536922
     53          1           0        4.577393    3.715033    1.478692
     54          1           0        5.896256    2.786588    2.238252
 ---------------------------------------------------------------------

 The electronic state is 1-A.
 Alpha  occ. eigenvalues --  -88.88552 -88.88238 -19.17251 -19.17125 -19.12271
 Alpha  occ. eigenvalues --  -19.12256 -19.11753 -19.11361 -14.38446 -14.37890
 Alpha  occ. eigenvalues --  -10.30839 -10.30732 -10.30246 -10.29943 -10.25066
 Alpha  occ. eigenvalues --  -10.24648 -10.24031 -10.23909 -10.23857 -10.22600
 Alpha  occ. eigenvalues --  -10.22525 -10.22256 -10.22156 -10.22085 -10.21890
 Alpha  occ. eigenvalues --  -10.21865 -10.21856 -10.21584 -10.21266 -10.21184
 Alpha  occ. eigenvalues --  -10.20923 -10.20649 -10.20587 -10.20517 -10.19149
 Alpha  occ. eigenvalues --  -10.19136  -7.97105  -7.96676  -5.93414  -5.93025
 Alpha  occ. eigenvalues --   -5.92997  -5.92675  -5.92582  -5.92234  -1.08892
 Alpha  occ. eigenvalues --   -1.08686  -1.08515  -1.08090  -1.06701  -1.06074
 Alpha  occ. eigenvalues --   -0.96075  -0.95518  -0.92089  -0.90336  -0.88804
 Alpha  occ. eigenvalues --   -0.86402  -0.83934  -0.80468  -0.78124  -0.77606
 Alpha  occ. eigenvalues --   -0.76579  -0.75493  -0.74991  -0.73358  -0.72348
 Alpha  occ. eigenvalues --   -0.71459  -0.70606  -0.68821  -0.66906  -0.65723
 Alpha  occ. eigenvalues --   -0.65356  -0.64716  -0.60930  -0.60004  -0.58577
 Alpha  occ. eigenvalues --   -0.57350  -0.56724  -0.56396  -0.55290  -0.54710
 Alpha  occ. eigenvalues --   -0.53602  -0.51426  -0.50107  -0.49964  -0.49411
 Alpha  occ. eigenvalues --   -0.49301  -0.48907  -0.48684  -0.48626  -0.48310
 Alpha  occ. eigenvalues --   -0.48144  -0.47200  -0.46570  -0.46137  -0.45937
 Alpha  occ. eigenvalues --   -0.45602  -0.44997  -0.44298  -0.44026  -0.43462
 Alpha  occ. eigenvalues --   -0.43012  -0.42500  -0.42175  -0.41873  -0.41678
 Alpha  occ. eigenvalues --   -0.41620  -0.41269  -0.41021  -0.40447  -0.39643
 Alpha  occ. eigenvalues --   -0.39407  -0.39140  -0.38983  -0.37554  -0.37134
 Alpha  occ. eigenvalues --   -0.36341  -0.36004  -0.34404  -0.34140  -0.33646
 Alpha  occ. eigenvalues --   -0.33099  -0.31875  -0.30722  -0.30210  -0.29693
 Alpha  occ. eigenvalues --   -0.29236  -0.28656  -0.28617  -0.27752  -0.27274
 Alpha  occ. eigenvalues --   -0.25964  -0.24869  -0.24503  -0.19601
 Alpha virt. eigenvalues --   -0.12697  -0.07592  -0.06313  -0.04298  -0.03701
 Alpha virt. eigenvalues --   -0.00778  -0.00491  -0.00382   0.00018   0.00452
 Alpha virt. eigenvalues --    0.00940   0.01180   0.01457   0.01899   0.02005

 Mulliken charges:
               1
     1  C    0.331722
     2  C   -0.039230
     3  C    0.121627
     4  C    0.176910
     5  C    0.288319
     6  C   -0.283614
     7  C    0.127289
     8  C    0.268841
     9  C    0.405049
    10  C    0.048216
    11  C    0.157863
    12  C    0.231780
    13  C   -0.513307
    14  C   -0.631784
    15  H    0.157608
    16  H    0.160559
    17  H    0.165257
    18  N   -0.178333
    19  N   -0.141911
    20  O   -0.287477
    21  O   -0.268687
    22  O   -0.280662
    23  O   -0.219619
    24  C   -0.216831
    25  H    0.175605
    26  H    0.174992
    27  H    0.184611
    28  C   -0.196594
    29  H    0.172955
    30  H    0.173461
    31  H    0.182955
    32  C   -0.216304
    33  C   -0.679010
    34  S   -0.303360
    35  C   -0.249974
    36  H    0.136945
    37  C    0.675768
    38  O   -0.136875
    39  C    0.798100
    40  C   -0.225529
    41  C   -0.003006
    42  S   -0.262976
    43  H    0.167957
    44  H    0.152409
    45  H    0.146868
    46  C   -0.560051
    47  O   -0.118307
    48  C   -0.281555
    49  H    0.132455
    50  C   -0.245863
    51  H    0.162084
    52  H    0.147134
    53  H    0.171542
    54  H    0.143982
 Sum of Mulliken charges =  -0.00000

 Dipole moment (field-independent basis, Debye):
    X=              5.1585    Y=             -0.7482    Z=              0.0044  Tot=              5.2125
 Quadrupole moment (field-independent basis, Debye-Ang):
   XX=           -212.0368   YY=           -215.1613   ZZ=           -220.1474
   XY=             12.9883   XZ=              4.9211   YZ=              9.6375

 Normal termination of Gaussian 16 at Thu Nov 26 06:26:25 2020.
