 Gaussian 16, Revision C.01,
 Gaussian 16:  ES64L-G16RevC.01  3-Jul-2019

 -------------------------------------
 # opt=modredundant b3lyp/6-311+g(d,p)
 -------------------------------------

 -----------
 NDI_-65.pdb
 -----------
 Symbolic Z-matrix:
 Charge =  0 Multiplicity = 1

 SCF Done:  E(RB3LYP) =  -2359.33398838     A.U. after   19 cycles
 SCF Done:  E(RB3LYP) =  -2359.33588136     A.U. after   16 cycles
 SCF Done:  E(RB3LYP) =  -2359.33639601     A.U. after   15 cycles
 SCF Done:  E(RB3LYP) =  -2359.33642844     A.U. after   14 cycles
 SCF Done:  E(RB3LYP) =  -2359.33649882     A.U. after   12 cycles
 SCF Done:  E(RB3LYP) =  -2359.33650280     A.U. after   13 cycles
 SCF Done:  E(RB3LYP) =  -2359.33650797     A.U. after   12 cycles
 SCF Done:  E(RB3LYP) =  -2359.33651081     A.U. after   12 cycles
 SCF Done:  E(RB3LYP) =  -2359.33651349     A.U. after   12 cycles
 SCF Done:  E(RB3LYP) =  -2359.33651630     A.U. after   12 cycles
 SCF Done:  E(RB3LYP) =  -2359.33653132     A.U. after   12 cycles
 SCF Done:  E(RB3LYP) =  -2359.33653542     A.U. after   12 cycles
 SCF Done:  E(RB3LYP) =  -2359.33653613     A.U. after   12 cycles
 SCF Done:  E(RB3LYP) =  -2359.33653725     A.U. after   10 cycles
 SCF Done:  E(RB3LYP) =  -2359.33653860     A.U. after   10 cycles
 SCF Done:  E(RB3LYP) =  -2359.33653950     A.U. after   12 cycles
 SCF Done:  E(RB3LYP) =  -2359.33653989     A.U. after   12 cycles
 SCF Done:  E(RB3LYP) =  -2359.33654012     A.U. after   12 cycles
 SCF Done:  E(RB3LYP) =  -2359.33654021     A.U. after   12 cycles
 SCF Done:  E(RB3LYP) =  -2359.33654023     A.U. after   10 cycles
 Optimization completed.
    -- Stationary point found.

                         Standard orientation:
 ---------------------------------------------------------------------
 Center     Atomic      Atomic             Coordinates (Angstroms)
 Number     Number       Type             X           Y           Z
 ---------------------------------------------------------------------
      1          6           0        2.729710   -2.907514    0.654845
      2          6           0        2.339460   -1.495571    0.397750
      3          6           0        3.322577   -0.526074    0.098110
      4          6           0        4.685893   -0.883947    0.026318
      5          6           0        5.112032   -2.285182    0.289183
      6          6           0        1.015064   -1.136880    0.456189
      7          6           0        2.914094    0.814004   -0.147154
      8          6           0        1.539169    1.179449   -0.058527
      9          6           0        0.575525    0.203572    0.265147
     10          6           0        1.170237    2.594507   -0.342922
     11          6           0        3.553089    3.155455   -0.827376
     12          6           0        3.912945    1.755724   -0.499810
     13          6           0        5.246109    1.382783   -0.568442
     14          6           0        5.638959    0.066342   -0.298841
     15          1           0        6.679148   -0.228829   -0.349699
     16          1           0        5.974718    2.135139   -0.842840
     17          1           0        0.287090   -1.901224    0.694878
     18          7           0        2.192066    3.461913   -0.774152
     19          7           0        4.095522   -3.208151    0.584823
     20          8           0        1.920362   -3.777616    0.915757
     21          8           0        6.280080   -2.622894    0.250041
     22          8           0        4.386140    3.990496   -1.133276
     23          8           0        0.041891    3.036742   -0.235029
     24          6           0        1.776368    4.834188   -1.098462
     25          1           0        0.945724    4.802798   -1.801679
     26          1           0        1.445173    5.351678   -0.196537
     27          1           0        2.630877    5.347064   -1.528404
     28          6           0        4.468295   -4.605924    0.846578
     29          1           0        4.153129   -4.889163    1.851137
     30          1           0        3.968115   -5.259340    0.131607
     31          1           0        5.546089   -4.687914    0.748981
     32          6           0       -0.875772    0.419335    0.369219
     33          6           0       -1.582959    1.191710    1.258803
     34         16           0       -1.947563   -0.631923   -0.529917
     35          6           0       -2.977010    0.973706    1.196837
     36          1           0       -1.109228    1.901861    1.918286
     37          6           0       -3.369289    0.018989    0.263006
     38          8           0       -3.924842    1.600355    1.945409
     39          6           0       -4.706276   -0.380561   -0.083914
     40          6           0       -3.512695    2.687339    2.769231
     41          6           0       -5.092503   -1.360865   -0.990154
     42         16           0       -6.139573    0.357270    0.621236
     43          1           0       -4.422656    3.086137    3.214230
     44          1           0       -2.840789    2.346907    3.564047
     45          1           0       -3.020678    3.464915    2.176731
     46          6           0       -6.500538   -1.516303   -1.116756
     47          8           0       -4.138891   -2.062915   -1.658898
     48          6           0       -7.184987   -0.653824   -0.306255
     49          1           0       -6.982547   -2.228740   -1.770129
     50          6           0       -4.562237   -3.081292   -2.559533
     51          1           0       -8.254519   -0.560421   -0.196780
     52          1           0       -5.164018   -2.663079   -3.372936
     53          1           0       -3.651731   -3.515046   -2.969034
     54          1           0       -5.132326   -3.856970   -2.038100
 ---------------------------------------------------------------------

 The electronic state is 1-A.
 Alpha  occ. eigenvalues --  -88.88186 -88.88075 -19.16875 -19.16568 -19.12499
 Alpha  occ. eigenvalues --  -19.12443 -19.11944 -19.11942 -14.38652 -14.38251
 Alpha  occ. eigenvalues --  -10.31109 -10.30920 -10.30743 -10.30531 -10.24426
 Alpha  occ. eigenvalues --  -10.24237 -10.23780 -10.23708 -10.23378 -10.23029
 Alpha  occ. eigenvalues --  -10.22850 -10.22707 -10.22394 -10.22371 -10.22209
 Alpha  occ. eigenvalues --  -10.21832 -10.21773 -10.21462 -10.21432 -10.21273
 Alpha  occ. eigenvalues --  -10.21221 -10.21065 -10.20796 -10.20657 -10.18682
 Alpha  occ. eigenvalues --  -10.18680  -7.96742  -7.96628  -5.93063  -5.92937
 Alpha  occ. eigenvalues --   -5.92673  -5.92549  -5.92287  -5.92196  -1.08743
 Alpha  occ. eigenvalues --   -1.08409  -1.08403  -1.08106  -1.06934  -1.06517
 Alpha  occ. eigenvalues --   -0.96306  -0.95840  -0.92565  -0.90138  -0.88598
 Alpha  occ. eigenvalues --   -0.86689  -0.84377  -0.80406  -0.78538  -0.77523
 Alpha  occ. eigenvalues --   -0.76232  -0.75255  -0.75064  -0.73007  -0.72491
 Alpha  occ. eigenvalues --   -0.71799  -0.70171  -0.68768  -0.67212  -0.65979
 Alpha  occ. eigenvalues --   -0.65630  -0.64743  -0.60974  -0.59722  -0.58594
 Alpha  occ. eigenvalues --   -0.57460  -0.56668  -0.56116  -0.55411  -0.54557
 Alpha  occ. eigenvalues --   -0.53559  -0.51753  -0.50278  -0.49867  -0.49826
 Alpha  occ. eigenvalues --   -0.49508  -0.48699  -0.48590  -0.48544  -0.48163
 Alpha  occ. eigenvalues --   -0.47983  -0.47152  -0.46655  -0.46345  -0.45776
 Alpha  occ. eigenvalues --   -0.45403  -0.45042  -0.44657  -0.44370  -0.43823
 Alpha  occ. eigenvalues --   -0.42707  -0.42534  -0.42318  -0.42050  -0.41836
 Alpha  occ. eigenvalues --   -0.41396  -0.41352  -0.41195  -0.40611  -0.39792
 Alpha  occ. eigenvalues --   -0.39665  -0.39174  -0.38640  -0.37626  -0.37397
 Alpha  occ. eigenvalues --   -0.36185  -0.35569  -0.34181  -0.33737  -0.33616
 Alpha  occ. eigenvalues --   -0.33233  -0.32274  -0.31104  -0.30332  -0.29887
 Alpha  occ. eigenvalues --   -0.29346  -0.28975  -0.28673  -0.28252  -0.27317
 Alpha  occ. eigenvalues --   -0.26239  -0.24504  -0.24389  -0.19179
 Alpha virt. eigenvalues --   -0.13155  -0.07078  -0.06357  -0.04796  -0.04084
 Alpha virt. eigenvalues --   -0.00932  -0.00311  -0.00275   0.00137   0.00586
 Alpha virt. eigenvalues --    0.00634   0.01024   0.01257   0.01409   0.01799

 Mulliken charges:
               1
     1  C    0.358129
     2  C   -0.006776
     3  C    0.093940
     4  C    0.254547
     5  C    0.226019
     6  C   -0.680446
     7  C    0.210474
     8  C    0.151025
     9  C    0.563714
    10  C   -0.293992
    11  C    0.324136
    12  C    0.109853
    13  C   -0.490505
    14  C   -0.660330
    15  H    0.160135
    16  H    0.162092
    17  H    0.184178
    18  N   -0.160445
    19  N   -0.144355
    20  O   -0.274079
    21  O   -0.269524
    22  O   -0.279371
    23  O   -0.172950
    24  C   -0.209722
    25  H    0.176292
    26  H    0.174265
    27  H    0.183091
    28  C   -0.197768
    29  H    0.175093
    30  H    0.174246
    31  H    0.182874
    32  C    0.093414
    33  C   -0.313183
    34  S   -0.469745
    35  C   -0.342549
    36  H    0.130307
    37  C    0.561513
    38  O   -0.124404
    39  C    0.894798
    40  C   -0.244020
    41  C   -0.026999
    42  S   -0.242152
    43  H    0.164562
    44  H    0.143144
    45  H    0.160111
    46  C   -0.498767
    47  O   -0.133233
    48  C   -0.283273
    49  H    0.130787
    50  C   -0.239399
    51  H    0.159810
    52  H    0.144631
    53  H    0.165735
    54  H    0.145071
 Sum of Mulliken charges =  -0.00000

 Dipole moment (field-independent basis, Debye):
    X=             -3.3312    Y=             -0.4022    Z=             -0.0593  Tot=              3.3559
 Quadrupole moment (field-independent basis, Debye-Ang):
   XX=           -219.6594   YY=           -218.9724   ZZ=           -211.0185
   XY=              2.8051   XZ=              7.8309   YZ=             16.9317

 Normal termination of Gaussian 16 at Thu Nov 26 08:57:59 2020.
