 Gaussian 16, Revision C.01,
 Gaussian 16:  ES64L-G16RevC.01  3-Jul-2019

 -------------------------------------
 # opt=modredundant b3lyp/6-311+g(d,p)
 -------------------------------------

 ------------
 NDI_-135.pdb
 ------------
 Symbolic Z-matrix:
 Charge =  0 Multiplicity = 1

 SCF Done:  E(RB3LYP) =  -2359.32478117     A.U. after   17 cycles
 SCF Done:  E(RB3LYP) =  -2359.32256751     A.U. after   18 cycles
 SCF Done:  E(RB3LYP) =  -2359.33150365     A.U. after   15 cycles
 SCF Done:  E(RB3LYP) =  -2359.33406231     A.U. after   14 cycles
 SCF Done:  E(RB3LYP) =  -2359.33427188     A.U. after   13 cycles
 SCF Done:  E(RB3LYP) =  -2359.33486412     A.U. after   13 cycles
 SCF Done:  E(RB3LYP) =  -2359.33523413     A.U. after   16 cycles
 SCF Done:  E(RB3LYP) =  -2359.33470035     A.U. after   17 cycles
 SCF Done:  E(RB3LYP) =  -2359.33559220     A.U. after   16 cycles
 SCF Done:  E(RB3LYP) =  -2359.33503454     A.U. after   16 cycles
 SCF Done:  E(RB3LYP) =  -2359.33661130     A.U. after   12 cycles
 SCF Done:  E(RB3LYP) =  -2359.33663131     A.U. after   12 cycles
 SCF Done:  E(RB3LYP) =  -2359.33664765     A.U. after   11 cycles
 SCF Done:  E(RB3LYP) =  -2359.33665081     A.U. after   11 cycles
 SCF Done:  E(RB3LYP) =  -2359.33665241     A.U. after   10 cycles
 SCF Done:  E(RB3LYP) =  -2359.33665541     A.U. after   11 cycles
 SCF Done:  E(RB3LYP) =  -2359.33665817     A.U. after   10 cycles
 SCF Done:  E(RB3LYP) =  -2359.33665973     A.U. after   10 cycles
 SCF Done:  E(RB3LYP) =  -2359.33666023     A.U. after   10 cycles
 SCF Done:  E(RB3LYP) =  -2359.33666030     A.U. after   10 cycles
 Optimization completed.
    -- Stationary point found.

                         Standard orientation:
 ---------------------------------------------------------------------
 Center     Atomic      Atomic             Coordinates (Angstroms)
 Number     Number       Type             X           Y           Z
 ---------------------------------------------------------------------
      1          6           0       -3.522238   -2.694988    0.427992
      2          6           0       -2.768084   -1.450726    0.124831
      3          6           0       -3.427874   -0.199920    0.123857
      4          6           0       -4.803114   -0.109165    0.425161
      5          6           0       -5.583583   -1.333725    0.748508
      6          6           0       -1.416776   -1.515357   -0.117129
      7          6           0       -2.685019    0.968720   -0.197349
      8          6           0       -1.297699    0.878678   -0.501233
      9          6           0       -0.638115   -0.358484   -0.394039
     10          6           0       -0.630072    2.087901   -1.059563
     11          6           0       -2.640507    3.464812   -0.534421
     12          6           0       -3.362784    2.212504   -0.199750
     13          6           0       -4.711784    2.280938    0.110803
     14          6           0       -5.436328    1.122951    0.421433
     15          1           0       -6.491423    1.171146    0.658566
     16          1           0       -5.191398    3.251640    0.106126
     17          1           0       -0.925985   -2.477932   -0.050659
     18          7           0       -1.311018    3.314321   -0.936126
     19          7           0       -4.883654   -2.552385    0.722669
     20          8           0       -3.004358   -3.796630    0.426131
     21          8           0       -6.768751   -1.292527    1.019411
     22          8           0       -3.174375    4.558980   -0.487254
     23          8           0        0.442083    2.061866   -1.631225
     24          6           0       -0.588419    4.506124   -1.403091
     25          1           0        0.421994    4.493138   -0.998763
     26          1           0       -0.524038    4.508232   -2.492865
     27          1           0       -1.133822    5.381154   -1.063301
     28          6           0       -5.616240   -3.790128    1.026987
     29          1           0       -5.561285   -4.468915    0.175643
     30          1           0       -5.165397   -4.281766    1.889275
     31          1           0       -6.647582   -3.524796    1.236313
     32          6           0        0.808611   -0.570136   -0.486017
     33          6           0        1.444932   -1.559852   -1.203622
     34         16           0        1.942983    0.337127    0.473534
     35          6           0        2.844955   -1.564098   -1.013032
     36          1           0        0.918580   -2.230958   -1.867156
     37          6           0        3.300711   -0.603777   -0.113204
     38          8           0        3.740863   -2.398193   -1.606365
     39          6           0        4.651454   -0.379436    0.325912
     40          6           0        3.241945   -3.392383   -2.495137
     41          6           0        5.104542    0.574400    1.229745
     42         16           0        6.015980   -1.330723   -0.248342
     43          1           0        4.112376   -3.944963   -2.844212
     44          1           0        2.559153   -4.075980   -1.979911
     45          1           0        2.733443   -2.936382   -3.350857
     46          6           0        6.508743    0.545974    1.453269
     47          8           0        4.212007    1.420535    1.809579
     48          6           0        7.123230   -0.431572    0.721211
     49          1           0        7.037236    1.211664    2.119836
     50          6           0        4.711076    2.423124    2.688901
     51          1           0        8.174429   -0.674506    0.696811
     52          1           0        5.407067    3.090909    2.171068
     53          1           0        3.842484    2.990125    3.018997
     54          1           0        5.204366    1.975641    3.557858
 ---------------------------------------------------------------------

 The electronic state is 1-A.
 Alpha  occ. eigenvalues --  -88.88190 -88.88144 -19.17002 -19.16851 -19.12461
 Alpha  occ. eigenvalues --  -19.12429 -19.11875 -19.11802 -14.38619 -14.38064
 Alpha  occ. eigenvalues --  -10.31068 -10.30906 -10.30526 -10.30459 -10.24554
 Alpha  occ. eigenvalues --  -10.24486 -10.23839 -10.23689 -10.23553 -10.22865
 Alpha  occ. eigenvalues --  -10.22611 -10.22538 -10.22317 -10.22312 -10.22123
 Alpha  occ. eigenvalues --  -10.22014 -10.21950 -10.21553 -10.21548 -10.21208
 Alpha  occ. eigenvalues --  -10.21156 -10.21040 -10.20771 -10.20689 -10.19037
 Alpha  occ. eigenvalues --  -10.18786  -7.96743  -7.96701  -5.93053  -5.93024
 Alpha  occ. eigenvalues --   -5.92664  -5.92632  -5.92311  -5.92238  -1.08698
 Alpha  occ. eigenvalues --   -1.08546  -1.08399  -1.08242  -1.06895  -1.06389
 Alpha  occ. eigenvalues --   -0.96254  -0.95721  -0.92516  -0.90260  -0.88701
 Alpha  occ. eigenvalues --   -0.86701  -0.84302  -0.80481  -0.78472  -0.77562
 Alpha  occ. eigenvalues --   -0.76406  -0.75268  -0.75135  -0.73181  -0.72517
 Alpha  occ. eigenvalues --   -0.71534  -0.70458  -0.68865  -0.67111  -0.65904
 Alpha  occ. eigenvalues --   -0.65515  -0.64819  -0.60928  -0.59881  -0.58606
 Alpha  occ. eigenvalues --   -0.57454  -0.56765  -0.56262  -0.55109  -0.54776
 Alpha  occ. eigenvalues --   -0.53783  -0.51688  -0.50239  -0.49921  -0.49725
 Alpha  occ. eigenvalues --   -0.49457  -0.48718  -0.48689  -0.48506  -0.48415
 Alpha  occ. eigenvalues --   -0.48085  -0.47124  -0.46633  -0.46370  -0.45837
 Alpha  occ. eigenvalues --   -0.45495  -0.44966  -0.44752  -0.44306  -0.43893
 Alpha  occ. eigenvalues --   -0.42834  -0.42430  -0.42282  -0.41947  -0.41856
 Alpha  occ. eigenvalues --   -0.41594  -0.41328  -0.41144  -0.40626  -0.39950
 Alpha  occ. eigenvalues --   -0.39498  -0.39092  -0.38710  -0.37762  -0.37413
 Alpha  occ. eigenvalues --   -0.36400  -0.35868  -0.34168  -0.33858  -0.33609
 Alpha  occ. eigenvalues --   -0.33550  -0.32114  -0.31001  -0.30253  -0.29708
 Alpha  occ. eigenvalues --   -0.29272  -0.28825  -0.28737  -0.28027  -0.27511
 Alpha  occ. eigenvalues --   -0.26121  -0.24802  -0.24332  -0.19258
 Alpha virt. eigenvalues --   -0.13076  -0.07158  -0.06329  -0.04708  -0.03946
 Alpha virt. eigenvalues --   -0.00873  -0.00553  -0.00333  -0.00042   0.00471
 Alpha virt. eigenvalues --    0.00728   0.01055   0.01160   0.01505   0.01876

 Mulliken charges:
               1
     1  C    0.381658
     2  C   -0.118715
     3  C    0.106254
     4  C    0.233527
     5  C    0.238128
     6  C   -0.306349
     7  C    0.140133
     8  C    0.145213
     9  C    0.312206
    10  C   -0.444551
    11  C    0.287285
    12  C    0.096582
    13  C   -0.448201
    14  C   -0.585949
    15  H    0.159893
    16  H    0.161226
    17  H    0.162043
    18  N   -0.038525
    19  N   -0.143702
    20  O   -0.278750
    21  O   -0.270732
    22  O   -0.281588
    23  O   -0.200459
    24  C   -0.175192
    25  H    0.176530
    26  H    0.178193
    27  H    0.182170
    28  C   -0.197192
    29  H    0.173645
    30  H    0.175036
    31  H    0.182516
    32  C    0.383845
    33  C   -0.612474
    34  S   -0.556545
    35  C   -0.085996
    36  H    0.132463
    37  C    0.524923
    38  O   -0.132788
    39  C    0.874086
    40  C   -0.224321
    41  C    0.012334
    42  S   -0.264505
    43  H    0.166654
    44  H    0.150902
    45  H    0.148385
    46  C   -0.604086
    47  O   -0.137069
    48  C   -0.284138
    49  H    0.130937
    50  C   -0.240491
    51  H    0.160000
    52  H    0.146530
    53  H    0.165205
    54  H    0.143819
 Sum of Mulliken charges =  -0.00000

 Dipole moment (field-independent basis, Debye):
    X=              3.6456    Y=             -0.4392    Z=              0.4979  Tot=              3.7055
 Quadrupole moment (field-independent basis, Debye-Ang):
   XX=           -215.1535   YY=           -221.3652   ZZ=           -212.7830
   XY=              8.9246   XZ=             10.8368   YZ=             14.8142

 Normal termination of Gaussian 16 at Thu Nov 26 09:17:05 2020.
