 Gaussian 16, Revision C.01,
 Gaussian 16:  ES64L-G16RevC.01  3-Jul-2019

 -------------------------------------
 # opt=modredundant b3lyp/6-311+g(d,p)
 -------------------------------------

 ------------
 NDI_-125.pdb
 ------------
 Symbolic Z-matrix:
 Charge =  0 Multiplicity = 1

 SCF Done:  E(RB3LYP) =  -2359.32797304     A.U. after   17 cycles
 SCF Done:  E(RB3LYP) =  -2359.33097341     A.U. after   18 cycles
 SCF Done:  E(RB3LYP) =  -2359.33443815     A.U. after   18 cycles
 SCF Done:  E(RB3LYP) =  -2359.33478182     A.U. after   15 cycles
 SCF Done:  E(RB3LYP) =  -2359.33558217     A.U. after   15 cycles
 SCF Done:  E(RB3LYP) =  -2359.33590199     A.U. after   14 cycles
 SCF Done:  E(RB3LYP) =  -2359.33603078     A.U. after   13 cycles
 SCF Done:  E(RB3LYP) =  -2359.33610974     A.U. after   13 cycles
 SCF Done:  E(RB3LYP) =  -2359.33615262     A.U. after   12 cycles
 SCF Done:  E(RB3LYP) =  -2359.33616575     A.U. after   11 cycles
 SCF Done:  E(RB3LYP) =  -2359.33623282     A.U. after   11 cycles
 SCF Done:  E(RB3LYP) =  -2359.33623465     A.U. after   10 cycles
 SCF Done:  E(RB3LYP) =  -2359.33623546     A.U. after    9 cycles
 SCF Done:  E(RB3LYP) =  -2359.33623608     A.U. after   10 cycles
 SCF Done:  E(RB3LYP) =  -2359.33623645     A.U. after   10 cycles
 SCF Done:  E(RB3LYP) =  -2359.33623680     A.U. after   10 cycles
 SCF Done:  E(RB3LYP) =  -2359.33623724     A.U. after   11 cycles
 SCF Done:  E(RB3LYP) =  -2359.33623757     A.U. after    9 cycles
 SCF Done:  E(RB3LYP) =  -2359.33623766     A.U. after    9 cycles
 SCF Done:  E(RB3LYP) =  -2359.33623766     A.U. after    9 cycles
 Optimization completed.
    -- Stationary point found.

                         Standard orientation:
 ---------------------------------------------------------------------
 Center     Atomic      Atomic             Coordinates (Angstroms)
 Number     Number       Type             X           Y           Z
 ---------------------------------------------------------------------
      1          6           0       -3.525374   -2.700665    0.448121
      2          6           0       -2.770073   -1.457342    0.143304
      3          6           0       -3.432327   -0.208598    0.123455
      4          6           0       -4.812223   -0.118649    0.406799
      5          6           0       -5.594047   -1.342322    0.731235
      6          6           0       -1.415577   -1.520719   -0.087700
      7          6           0       -2.689821    0.960333   -0.197511
      8          6           0       -1.299192    0.871158   -0.484326
      9          6           0       -0.641274   -0.363407   -0.366674
     10          6           0       -0.616545    2.083709   -1.020224
     11          6           0       -2.644752    3.454983   -0.549199
     12          6           0       -3.369701    2.202683   -0.217427
     13          6           0       -4.722483    2.269750    0.073938
     14          6           0       -5.447777    1.111359    0.384249
     15          1           0       -6.506028    1.158692    0.607296
     16          1           0       -5.205116    3.238783    0.055524
     17          1           0       -0.920527   -2.481018   -0.017298
     18          7           0       -1.305812    3.307396   -0.919513
     19          7           0       -4.890870   -2.558858    0.725323
     20          8           0       -3.005108   -3.800788    0.461830
     21          8           0       -6.782687   -1.301035    0.986378
     22          8           0       -3.184273    4.546790   -0.522337
     23          8           0        0.474981    2.061231   -1.552831
     24          6           0       -0.574086    4.500894   -1.368174
     25          1           0        0.422102    4.495610   -0.929744
     26          1           0       -0.473005    4.497298   -2.455095
     27          1           0       -1.135214    5.374670   -1.051700
     28          6           0       -5.623885   -3.795915    1.031813
     29          1           0       -5.558205   -4.481463    0.186675
     30          1           0       -5.181098   -4.279343    1.902838
     31          1           0       -6.658042   -3.531393    1.227843
     32          6           0        0.809331   -0.566947   -0.475577
     33          6           0        1.458768   -1.429482   -1.326449
     34         16           0        1.927622    0.234942    0.589563
     35          6           0        2.862977   -1.422907   -1.145599
     36          1           0        0.941768   -2.014659   -2.073435
     37          6           0        3.304149   -0.580304   -0.130700
     38          8           0        3.771944   -2.149413   -1.850866
     39          6           0        4.653507   -0.383785    0.329398
     40          6           0        3.288220   -3.022338   -2.865936
     41          6           0        5.091816    0.455369    1.345973
     42         16           0        6.034175   -1.222089   -0.368068
     43          1           0        4.167735   -3.502713   -3.290963
     44          1           0        2.623399   -3.785208   -2.447438
     45          1           0        2.764574   -2.464372   -3.649079
     46          6           0        6.498048    0.429955    1.558831
     47          8           0        4.184615    1.200619    2.033953
     48          6           0        7.129118   -0.430858    0.704759
     49          1           0        7.016170    1.016239    2.303583
     50          6           0        4.668701    2.091430    3.033095
     51          1           0        8.185166   -0.644593    0.644464
     52          1           0        5.347723    2.835159    2.603546
     53          1           0        3.791011    2.592906    3.437141
     54          1           0        5.176840    1.546462    3.835385
 ---------------------------------------------------------------------

 The electronic state is 1-A.
 Alpha  occ. eigenvalues --  -88.88001 -88.87973 -19.16779 -19.16678 -19.12561
 Alpha  occ. eigenvalues --  -19.12517 -19.12040 -19.11978 -14.38711 -14.38213
 Alpha  occ. eigenvalues --  -10.31173 -10.30996 -10.30684 -10.30629 -10.24292
 Alpha  occ. eigenvalues --  -10.24285 -10.23684 -10.23600 -10.23565 -10.23018
 Alpha  occ. eigenvalues --  -10.22790 -10.22771 -10.22471 -10.22451 -10.22319
 Alpha  occ. eigenvalues --  -10.21793 -10.21704 -10.21630 -10.21393 -10.21338
 Alpha  occ. eigenvalues --  -10.21324 -10.21111 -10.20778 -10.20526 -10.18840
 Alpha  occ. eigenvalues --  -10.18580  -7.96556  -7.96527  -5.92881  -5.92836
 Alpha  occ. eigenvalues --   -5.92490  -5.92448  -5.92095  -5.92093  -1.08795
 Alpha  occ. eigenvalues --   -1.08406  -1.08317  -1.08212  -1.06994  -1.06561
 Alpha  occ. eigenvalues --   -0.96354  -0.95869  -0.92657  -0.90094  -0.88549
 Alpha  occ. eigenvalues --   -0.86763  -0.84445  -0.80461  -0.78604  -0.77452
 Alpha  occ. eigenvalues --   -0.76257  -0.75277  -0.75032  -0.73032  -0.72598
 Alpha  occ. eigenvalues --   -0.71596  -0.70296  -0.68801  -0.67218  -0.66022
 Alpha  occ. eigenvalues --   -0.65589  -0.64888  -0.60871  -0.59769  -0.58610
 Alpha  occ. eigenvalues --   -0.57533  -0.56733  -0.56074  -0.55201  -0.54592
 Alpha  occ. eigenvalues --   -0.53827  -0.51796  -0.50313  -0.49946  -0.49787
 Alpha  occ. eigenvalues --   -0.49481  -0.48748  -0.48607  -0.48532  -0.48261
 Alpha  occ. eigenvalues --   -0.47952  -0.47258  -0.46698  -0.46451  -0.45761
 Alpha  occ. eigenvalues --   -0.45377  -0.45018  -0.44842  -0.44393  -0.43987
 Alpha  occ. eigenvalues --   -0.42850  -0.42466  -0.42272  -0.42018  -0.41789
 Alpha  occ. eigenvalues --   -0.41512  -0.41309  -0.41225  -0.40683  -0.40016
 Alpha  occ. eigenvalues --   -0.39591  -0.39008  -0.38579  -0.37773  -0.37334
 Alpha  occ. eigenvalues --   -0.36219  -0.35761  -0.34033  -0.33663  -0.33481
 Alpha  occ. eigenvalues --   -0.33433  -0.32272  -0.31103  -0.30292  -0.29762
 Alpha  occ. eigenvalues --   -0.29278  -0.28945  -0.28780  -0.28176  -0.27509
 Alpha  occ. eigenvalues --   -0.26261  -0.24642  -0.24211  -0.19096
 Alpha virt. eigenvalues --   -0.13190  -0.07089  -0.06285  -0.04830  -0.04086
 Alpha virt. eigenvalues --   -0.00912  -0.00483  -0.00278   0.00052   0.00556
 Alpha virt. eigenvalues --    0.00714   0.00990   0.01107   0.01381   0.01848

 Mulliken charges:
               1
     1  C    0.387624
     2  C   -0.105982
     3  C    0.116051
     4  C    0.217898
     5  C    0.246200
     6  C   -0.387261
     7  C    0.150457
     8  C    0.104194
     9  C    0.312793
    10  C   -0.427962
    11  C    0.281634
    12  C    0.112386
    13  C   -0.437517
    14  C   -0.605007
    15  H    0.160513
    16  H    0.161719
    17  H    0.161781
    18  N   -0.052812
    19  N   -0.142809
    20  O   -0.275929
    21  O   -0.271296
    22  O   -0.279754
    23  O   -0.183636
    24  C   -0.175083
    25  H    0.177773
    26  H    0.178388
    27  H    0.182403
    28  C   -0.198502
    29  H    0.174058
    30  H    0.175352
    31  H    0.182730
    32  C    0.467953
    33  C   -0.556532
    34  S   -0.459939
    35  C   -0.138469
    36  H    0.126640
    37  C    0.418448
    38  O   -0.130269
    39  C    0.860715
    40  C   -0.223716
    41  C    0.016379
    42  S   -0.271951
    43  H    0.166116
    44  H    0.149427
    45  H    0.148746
    46  C   -0.584175
    47  O   -0.139764
    48  C   -0.293340
    49  H    0.130193
    50  C   -0.239063
    51  H    0.158980
    52  H    0.145650
    53  H    0.164310
    54  H    0.143258
 Sum of Mulliken charges =  -0.00000

 Dipole moment (field-independent basis, Debye):
    X=              3.0405    Y=             -0.2915    Z=              0.3656  Tot=              3.0762
 Quadrupole moment (field-independent basis, Debye-Ang):
   XX=           -216.6610   YY=           -224.5327   ZZ=           -208.9038
   XY=              8.1531   XZ=             10.5765   YZ=             14.7927

 Normal termination of Gaussian 16 at Thu Nov 26 06:36:50 2020.
