 Gaussian 16, Revision C.01,
 Gaussian 16:  ES64L-G16RevC.01  3-Jul-2019

 -------------------------------------
 # opt=modredundant b3lyp/6-311+g(d,p)
 -------------------------------------

 ----------
 NDI_90.pdb
 ----------
 Symbolic Z-matrix:
 Charge =  0 Multiplicity = 1

 SCF Done:  E(RB3LYP) =  -2359.32970034     A.U. after   21 cycles
 SCF Done:  E(RB3LYP) =  -2359.33303715     A.U. after   15 cycles
 SCF Done:  E(RB3LYP) =  -2359.33383324     A.U. after   15 cycles
 SCF Done:  E(RB3LYP) =  -2359.33401569     A.U. after   15 cycles
 SCF Done:  E(RB3LYP) =  -2359.33415154     A.U. after   14 cycles
 SCF Done:  E(RB3LYP) =  -2359.33419271     A.U. after   13 cycles
 SCF Done:  E(RB3LYP) =  -2359.33422242     A.U. after   12 cycles
 SCF Done:  E(RB3LYP) =  -2359.33423327     A.U. after   12 cycles
 SCF Done:  E(RB3LYP) =  -2359.33424058     A.U. after   11 cycles
 SCF Done:  E(RB3LYP) =  -2359.33424802     A.U. after   12 cycles
 SCF Done:  E(RB3LYP) =  -2359.33425644     A.U. after   11 cycles
 SCF Done:  E(RB3LYP) =  -2359.33426232     A.U. after   11 cycles
 SCF Done:  E(RB3LYP) =  -2359.33426651     A.U. after   11 cycles
 SCF Done:  E(RB3LYP) =  -2359.33427127     A.U. after   11 cycles
 SCF Done:  E(RB3LYP) =  -2359.33427189     A.U. after   10 cycles
 SCF Done:  E(RB3LYP) =  -2359.33427259     A.U. after   10 cycles
 SCF Done:  E(RB3LYP) =  -2359.33427268     A.U. after    9 cycles
 Optimization completed.
    -- Stationary point found.

                         Standard orientation:
 ---------------------------------------------------------------------
 Center     Atomic      Atomic             Coordinates (Angstroms)
 Number     Number       Type             X           Y           Z
 ---------------------------------------------------------------------
      1          6           0       -3.196016   -2.856147    0.318198
      2          6           0       -2.592844   -1.498809    0.239187
      3          6           0       -3.404720   -0.372750   -0.016106
      4          6           0       -4.798174   -0.516716   -0.205673
      5          6           0       -5.433082   -1.861510   -0.135492
      6          6           0       -1.236322   -1.341153    0.417546
      7          6           0       -2.803537    0.913538   -0.084098
      8          6           0       -1.401152    1.059137    0.108542
      9          6           0       -0.613966   -0.068457    0.366014
     10          6           0       -0.807458    2.429361    0.026717
     11          6           0       -3.060204    3.397345   -0.442519
     12          6           0       -3.633767    2.030044   -0.349959
     13          6           0       -4.995695    1.866234   -0.533114
     14          6           0       -5.581702    0.593536   -0.460474
     15          1           0       -6.646737    0.461602   -0.603345
     16          1           0       -5.597241    2.743450   -0.735168
     17          1           0       -0.628457   -2.216088    0.610250
     18          7           0       -1.679552    3.497423   -0.255537
     19          7           0       -4.580268   -2.946562    0.121300
     20          8           0       -2.539393   -3.854852    0.542119
     21          8           0       -6.628965   -2.018454   -0.291976
     22          8           0       -3.749388    4.374944   -0.669142
     23          8           0        0.372722    2.660905    0.187159
     24          6           0       -1.056061    4.826832   -0.340545
     25          1           0       -0.593068    5.080117    0.613508
     26          1           0       -0.281408    4.819778   -1.107001
     27          1           0       -1.833100    5.543110   -0.587390
     28          6           0       -5.161183   -4.295179    0.199480
     29          1           0       -4.692446   -4.939851   -0.544021
     30          1           0       -4.978071   -4.718375    1.187419
     31          1           0       -6.227158   -4.210931    0.013855
     32          6           0        0.851679   -0.043582    0.587193
     33          6           0        1.517862    0.098987    1.772340
     34         16           0        1.941757   -0.369591   -0.727669
     35          6           0        2.927170   -0.023124    1.623569
     36          1           0        1.017553    0.302613    2.708004
     37          6           0        3.345954   -0.278151    0.328263
     38          8           0        3.851306    0.076721    2.620234
     39          6           0        4.694384   -0.445077   -0.156219
     40          6           0        3.402230    0.470546    3.911253
     41          6           0        5.106129   -0.719552   -1.451693
     42         16           0        6.104874   -0.308775    0.885011
     43          1           0        4.294763    0.536528    4.531309
     44          1           0        2.908642    1.447383    3.876852
     45          1           0        2.720610   -0.272964    4.338255
     46          6           0        6.517492   -0.816771   -1.609181
     47          8           0        4.171439   -0.869779   -2.433281
     48          6           0        7.179431   -0.616490   -0.430535
     49          1           0        7.016911   -1.024725   -2.544265
     50          6           0        4.626534   -1.139761   -3.753302
     51          1           0        8.244548   -0.635616   -0.258766
     52          1           0        5.179223   -2.084282   -3.796550
     53          1           0        3.731773   -1.217085   -4.368859
     54          1           0        5.256634   -0.326692   -4.129166
 ---------------------------------------------------------------------

 The electronic state is 1-A.
 Alpha  occ. eigenvalues --  -88.87625 -88.87306 -19.16074 -19.16048 -19.12923
 Alpha  occ. eigenvalues --  -19.12853 -19.12604 -19.12533 -14.39049 -14.38758
 Alpha  occ. eigenvalues --  -10.31551 -10.31331 -10.31247 -10.31209 -10.23949
 Alpha  occ. eigenvalues --  -10.23586 -10.23572 -10.23539 -10.23463 -10.23351
 Alpha  occ. eigenvalues --  -10.23164 -10.23129 -10.22995 -10.22946 -10.22905
 Alpha  occ. eigenvalues --  -10.21990 -10.21902 -10.21889 -10.21372 -10.21324
 Alpha  occ. eigenvalues --  -10.21125 -10.20759 -10.20625 -10.19777 -10.18184
 Alpha  occ. eigenvalues --  -10.17939  -7.96166  -7.95861  -5.92492  -5.92170
 Alpha  occ. eigenvalues --   -5.92100  -5.91782  -5.91705  -5.91430  -1.09160
 Alpha  occ. eigenvalues --   -1.08986  -1.07606  -1.07532  -1.07362  -1.07158
 Alpha  occ. eigenvalues --   -0.96727  -0.96378  -0.93140  -0.89641  -0.88167
 Alpha  occ. eigenvalues --   -0.86845  -0.84924  -0.80510  -0.79063  -0.77085
 Alpha  occ. eigenvalues --   -0.75788  -0.75611  -0.74398  -0.73037  -0.72494
 Alpha  occ. eigenvalues --   -0.71791  -0.69767  -0.68611  -0.67590  -0.66454
 Alpha  occ. eigenvalues --   -0.65932  -0.65061  -0.60833  -0.59437  -0.58562
 Alpha  occ. eigenvalues --   -0.57866  -0.56519  -0.55689  -0.55442  -0.53999
 Alpha  occ. eigenvalues --   -0.53912  -0.52150  -0.50663  -0.50288  -0.50141
 Alpha  occ. eigenvalues --   -0.49109  -0.49070  -0.48882  -0.48039  -0.47814
 Alpha  occ. eigenvalues --   -0.47652  -0.47455  -0.47039  -0.46662  -0.45566
 Alpha  occ. eigenvalues --   -0.45356  -0.45114  -0.44888  -0.44620  -0.44102
 Alpha  occ. eigenvalues --   -0.43089  -0.42884  -0.42514  -0.42023  -0.41847
 Alpha  occ. eigenvalues --   -0.41570  -0.41166  -0.41013  -0.40647  -0.40288
 Alpha  occ. eigenvalues --   -0.40037  -0.38868  -0.38136  -0.37855  -0.36832
 Alpha  occ. eigenvalues --   -0.35823  -0.35464  -0.33595  -0.33220  -0.33024
 Alpha  occ. eigenvalues --   -0.32838  -0.32720  -0.31459  -0.30570  -0.30073
 Alpha  occ. eigenvalues --   -0.29566  -0.29392  -0.28903  -0.28772  -0.27128
 Alpha  occ. eigenvalues --   -0.26846  -0.24094  -0.23747  -0.18548
 Alpha virt. eigenvalues --   -0.13604  -0.07319  -0.06184  -0.05135  -0.04366
 Alpha virt. eigenvalues --   -0.01150  -0.00007   0.00015   0.00233   0.00472
 Alpha virt. eigenvalues --    0.00680   0.00756   0.01048   0.01173   0.01706

 Mulliken charges:
               1
     1  C    0.396616
     2  C    0.036459
     3  C    0.224882
     4  C    0.202603
     5  C    0.263562
     6  C   -0.622756
     7  C    0.193206
     8  C    0.004011
     9  C    0.548349
    10  C   -0.420878
    11  C    0.188210
    12  C    0.202705
    13  C   -0.507151
    14  C   -0.623941
    15  H    0.162265
    16  H    0.163187
    17  H    0.167474
    18  N   -0.167654
    19  N   -0.147880
    20  O   -0.266638
    21  O   -0.268380
    22  O   -0.268108
    23  O   -0.087599
    24  C   -0.216660
    25  H    0.175767
    26  H    0.178805
    27  H    0.183920
    28  C   -0.200847
    29  H    0.175785
    30  H    0.175975
    31  H    0.182585
    32  C    0.151187
    33  C   -0.442348
    34  S   -0.102556
    35  C   -0.083198
    36  H    0.110380
    37  C    0.225277
    38  O   -0.141023
    39  C    0.783529
    40  C   -0.229933
    41  C    0.051126
    42  S   -0.286960
    43  H    0.164262
    44  H    0.152380
    45  H    0.141382
    46  C   -0.543002
    47  O   -0.150223
    48  C   -0.324849
    49  H    0.128070
    50  C   -0.235271
    51  H    0.156110
    52  H    0.141804
    53  H    0.162078
    54  H    0.143904
 Sum of Mulliken charges =  -0.00000

 Dipole moment (field-independent basis, Debye):
    X=              1.0381    Y=              0.1548    Z=             -0.0372  Tot=              1.0502
 Quadrupole moment (field-independent basis, Debye-Ang):
   XX=           -222.0211   YY=           -232.5294   ZZ=           -197.6486
   XY=              1.6855   XZ=             -9.8237   YZ=              7.6085

 Normal termination of Gaussian 16 at Thu Nov 26 13:55:49 2020.
