 Gaussian 16, Revision C.01,
 Gaussian 16:  ES64L-G16RevC.01  3-Jul-2019

 -------------------------------------
 # opt=modredundant b3lyp/6-311+g(d,p)
 -------------------------------------

 -----------
 NDI_-10.pdb
 -----------
 Symbolic Z-matrix:
 Charge =  0 Multiplicity = 1

 SCF Done:  E(RB3LYP) =  -2359.32678231     A.U. after   17 cycles
 SCF Done:  E(RB3LYP) =  -2359.31367786     A.U. after   17 cycles
 SCF Done:  E(RB3LYP) =  -2359.33151657     A.U. after   15 cycles
 SCF Done:  E(RB3LYP) =  -2359.33441181     A.U. after   16 cycles
 SCF Done:  E(RB3LYP) =  -2359.33553141     A.U. after   16 cycles
 SCF Done:  E(RB3LYP) =  -2359.33599975     A.U. after   13 cycles
 SCF Done:  E(RB3LYP) =  -2359.33609741     A.U. after   14 cycles
 SCF Done:  E(RB3LYP) =  -2359.33626801     A.U. after   13 cycles
 SCF Done:  E(RB3LYP) =  -2359.33630949     A.U. after   14 cycles
 SCF Done:  E(RB3LYP) =  -2359.33632671     A.U. after   12 cycles
 SCF Done:  E(RB3LYP) =  -2359.33635708     A.U. after   10 cycles
 SCF Done:  E(RB3LYP) =  -2359.33635788     A.U. after   10 cycles
 SCF Done:  E(RB3LYP) =  -2359.33635826     A.U. after   10 cycles
 SCF Done:  E(RB3LYP) =  -2359.33635843     A.U. after   10 cycles
 SCF Done:  E(RB3LYP) =  -2359.33635849     A.U. after    9 cycles
 SCF Done:  E(RB3LYP) =  -2359.33635853     A.U. after    8 cycles
 SCF Done:  E(RB3LYP) =  -2359.33635856     A.U. after    9 cycles
 SCF Done:  E(RB3LYP) =  -2359.33635859     A.U. after    9 cycles
 SCF Done:  E(RB3LYP) =  -2359.33635860     A.U. after    8 cycles
 SCF Done:  E(RB3LYP) =  -2359.33635861     A.U. after    8 cycles
 Optimization completed.
    -- Stationary point found.

                         Standard orientation:
 ---------------------------------------------------------------------
 Center     Atomic      Atomic             Coordinates (Angstroms)
 Number     Number       Type             X           Y           Z
 ---------------------------------------------------------------------
      1          6           0       -2.461353   -3.037554   -0.045345
      2          6           0       -2.203527   -1.574556    0.014425
      3          6           0       -3.274325   -0.653643   -0.047722
      4          6           0       -4.600052   -1.106978   -0.188011
      5          6           0       -4.894065   -2.562981   -0.264524
      6          6           0       -0.914943   -1.124221    0.085601
      7          6           0       -2.978263    0.734072    0.045263
      8          6           0       -1.630436    1.193951    0.185552
      9          6           0       -0.554985    0.260226    0.135594
     10          6           0       -1.454000    2.630071    0.520056
     11          6           0       -3.863963    3.092110    0.078964
     12          6           0       -4.073819    1.632703   -0.019639
     13          6           0       -5.373220    1.168839   -0.176545
     14          6           0       -5.645478   -0.198513   -0.257135
     15          1           0       -6.657270   -0.565432   -0.370415
     16          1           0       -6.170424    1.899360   -0.231049
     17          1           0       -0.143446   -1.882774    0.071406
     18          7           0       -2.556246    3.490147    0.358753
     19          7           0       -3.795295   -3.435938   -0.180322
     20          8           0       -1.572903   -3.867983    0.016457
     21          8           0       -6.026895   -2.988387   -0.390268
     22          8           0       -4.768418    3.900475   -0.045164
     23          8           0       -0.418295    3.113251    0.949450
     24          6           0       -2.306304    4.915088    0.617038
     25          1           0       -2.044502    5.066388    1.665043
     26          1           0       -1.474677    5.258635    0.002689
     27          1           0       -3.213447    5.458423    0.371906
     28          6           0       -4.040400   -4.883750   -0.242411
     29          1           0       -3.511346   -5.310680   -1.094804
     30          1           0       -3.669601   -5.358553    0.666219
     31          1           0       -5.110092   -5.037107   -0.343233
     32          6           0        0.871421    0.529821   -0.004445
     33          6           0        1.572215    1.686365   -0.303298
     34         16           0        2.012701   -0.801401    0.229727
     35          6           0        2.962218    1.507935   -0.370809
     36          1           0        1.095071    2.635441   -0.460794
     37          6           0        3.394965    0.207395   -0.096731
     38          8           0        3.884889    2.461478   -0.657727
     39          6           0        4.742715   -0.279878   -0.063741
     40          6           0        3.425717    3.796227   -0.865531
     41          6           0        5.170231   -1.578023    0.205155
     42         16           0        6.142109    0.742770   -0.373095
     43          1           0        4.319143    4.394414   -1.034428
     44          1           0        2.776055    3.854013   -1.744593
     45          1           0        2.891930    4.168626    0.013796
     46          6           0        6.580789   -1.745624    0.163930
     47          8           0        4.250574   -2.536712    0.473779
     48          6           0        7.224902   -0.576784   -0.135831
     49          1           0        7.093191   -2.678852    0.345784
     50          6           0        4.708961   -3.861310    0.735725
     51          1           0        8.288209   -0.418252   -0.231649
     52          1           0        5.349975   -3.886344    1.622463
     53          1           0        3.814767   -4.454547    0.916404
     54          1           0        5.248675   -4.267029   -0.125595
 ---------------------------------------------------------------------

 The electronic state is 1-A.
 Alpha  occ. eigenvalues --  -88.88907 -88.88717 -19.17685 -19.17272 -19.12131
 Alpha  occ. eigenvalues --  -19.12115 -19.11493 -19.11388 -14.38312 -14.37818
 Alpha  occ. eigenvalues --  -10.30719 -10.30580 -10.30364 -10.29933 -10.25449
 Alpha  occ. eigenvalues --  -10.25012 -10.24212 -10.23902 -10.23773 -10.23035
 Alpha  occ. eigenvalues --  -10.22533 -10.22486 -10.22274 -10.22188 -10.22010
 Alpha  occ. eigenvalues --  -10.21813 -10.21802 -10.21590 -10.21479 -10.21192
 Alpha  occ. eigenvalues --  -10.20812 -10.20598 -10.20580 -10.20482 -10.19461
 Alpha  occ. eigenvalues --  -10.18953  -7.97457  -7.97290  -5.93767  -5.93607
 Alpha  occ. eigenvalues --   -5.93377  -5.93214  -5.93025  -5.92836  -1.09268
 Alpha  occ. eigenvalues --   -1.08847  -1.08387  -1.07962  -1.06570  -1.06002
 Alpha  occ. eigenvalues --   -0.95951  -0.95402  -0.92057  -0.90744  -0.89138
 Alpha  occ. eigenvalues --   -0.86398  -0.83850  -0.80498  -0.78237  -0.77865
 Alpha  occ. eigenvalues --   -0.76733  -0.75715  -0.74904  -0.73569  -0.72256
 Alpha  occ. eigenvalues --   -0.71795  -0.70639  -0.68903  -0.66933  -0.65578
 Alpha  occ. eigenvalues --   -0.65470  -0.64403  -0.61349  -0.60156  -0.58541
 Alpha  occ. eigenvalues --   -0.57295  -0.56850  -0.56714  -0.55356  -0.55035
 Alpha  occ. eigenvalues --   -0.53341  -0.51456  -0.50433  -0.49789  -0.49510
 Alpha  occ. eigenvalues --   -0.49233  -0.49198  -0.48717  -0.48650  -0.48405
 Alpha  occ. eigenvalues --   -0.48180  -0.46988  -0.46529  -0.46151  -0.45989
 Alpha  occ. eigenvalues --   -0.45713  -0.44692  -0.44342  -0.43949  -0.43211
 Alpha  occ. eigenvalues --   -0.43086  -0.42686  -0.42504  -0.42073  -0.41894
 Alpha  occ. eigenvalues --   -0.41606  -0.40993  -0.40972  -0.40384  -0.40009
 Alpha  occ. eigenvalues --   -0.39367  -0.39225  -0.38946  -0.37879  -0.37393
 Alpha  occ. eigenvalues --   -0.36703  -0.36305  -0.34700  -0.34393  -0.33729
 Alpha  occ. eigenvalues --   -0.33597  -0.31817  -0.30797  -0.30429  -0.29593
 Alpha  occ. eigenvalues --   -0.29145  -0.28597  -0.28509  -0.27779  -0.27251
 Alpha  occ. eigenvalues --   -0.26009  -0.25017  -0.24936  -0.19767
 Alpha virt. eigenvalues --   -0.12775  -0.07951  -0.06232  -0.04241  -0.03594
 Alpha virt. eigenvalues --   -0.00864  -0.00456  -0.00306  -0.00125   0.00368
 Alpha virt. eigenvalues --    0.00814   0.01298   0.01383   0.01820   0.01914

 Mulliken charges:
               1
     1  C    0.296442
     2  C   -0.025193
     3  C    0.178297
     4  C    0.209994
     5  C    0.259700
     6  C    0.127691
     7  C    0.194758
     8  C    0.455744
     9  C    0.197332
    10  C   -0.826528
    11  C    0.230887
    12  C    0.147342
    13  C   -0.481213
    14  C   -0.590337
    15  H    0.157674
    16  H    0.160642
    17  H    0.165578
    18  N   -0.065833
    19  N   -0.141551
    20  O   -0.287480
    21  O   -0.268053
    22  O   -0.281481
    23  O   -0.260602
    24  C   -0.159202
    25  H    0.178172
    26  H    0.164404
    27  H    0.183508
    28  C   -0.197373
    29  H    0.173698
    30  H    0.172962
    31  H    0.181664
    32  C   -0.033284
    33  C   -0.099316
    34  S   -0.666810
    35  C   -0.630878
    36  H    0.156640
    37  C    0.621206
    38  O   -0.125610
    39  C    0.997603
    40  C   -0.244797
    41  C    0.021282
    42  S   -0.222223
    43  H    0.167059
    44  H    0.145617
    45  H    0.164450
    46  C   -0.588706
    47  O   -0.127310
    48  C   -0.308252
    49  H    0.133963
    50  C   -0.242303
    51  H    0.163759
    52  H    0.146033
    53  H    0.173138
    54  H    0.147100
 Sum of Mulliken charges =  -0.00000

 Dipole moment (field-independent basis, Debye):
    X=              5.8097    Y=             -0.7057    Z=             -0.4267  Tot=              5.8680
 Quadrupole moment (field-independent basis, Debye-Ang):
   XX=           -214.5576   YY=           -207.9294   ZZ=           -223.6303
   XY=             -5.0154   XZ=             -1.8027   YZ=             -6.7551

 Normal termination of Gaussian 16 at Thu Nov 26 10:05:25 2020.
