 Gaussian 16, Revision C.01,
 Gaussian 16:  ES64L-G16RevC.01  3-Jul-2019

 -------------------------------------
 # opt=modredundant b3lyp/6-311+g(d,p)
 -------------------------------------

 ----------
 NDI_40.pdb
 ----------
 Symbolic Z-matrix:
 Charge =  0 Multiplicity = 1

 SCF Done:  E(RB3LYP) =  -2359.33313103     A.U. after   17 cycles
 SCF Done:  E(RB3LYP) =  -2359.33126982     A.U. after   17 cycles
 SCF Done:  E(RB3LYP) =  -2359.33639724     A.U. after   13 cycles
 SCF Done:  E(RB3LYP) =  -2359.33710213     A.U. after   16 cycles
 SCF Done:  E(RB3LYP) =  -2359.33757664     A.U. after   13 cycles
 SCF Done:  E(RB3LYP) =  -2359.33787852     A.U. after   13 cycles
 SCF Done:  E(RB3LYP) =  -2359.33805926     A.U. after   16 cycles
 SCF Done:  E(RB3LYP) =  -2359.33812735     A.U. after   13 cycles
 SCF Done:  E(RB3LYP) =  -2359.33820807     A.U. after   13 cycles
 SCF Done:  E(RB3LYP) =  -2359.33826521     A.U. after   13 cycles
 SCF Done:  E(RB3LYP) =  -2359.33830577     A.U. after   12 cycles
 SCF Done:  E(RB3LYP) =  -2359.33830784     A.U. after   12 cycles
 SCF Done:  E(RB3LYP) =  -2359.33831025     A.U. after   11 cycles
 SCF Done:  E(RB3LYP) =  -2359.33831135     A.U. after   11 cycles
 SCF Done:  E(RB3LYP) =  -2359.33831238     A.U. after   11 cycles
 SCF Done:  E(RB3LYP) =  -2359.33831273     A.U. after   10 cycles
 SCF Done:  E(RB3LYP) =  -2359.33831287     A.U. after    9 cycles
 SCF Done:  E(RB3LYP) =  -2359.33831296     A.U. after    9 cycles
 SCF Done:  E(RB3LYP) =  -2359.33831302     A.U. after    9 cycles
 SCF Done:  E(RB3LYP) =  -2359.33831305     A.U. after   10 cycles
 Optimization completed.
    -- Stationary point found.

                         Standard orientation:
 ---------------------------------------------------------------------
 Center     Atomic      Atomic             Coordinates (Angstroms)
 Number     Number       Type             X           Y           Z
 ---------------------------------------------------------------------
      1          6           0       -2.630438   -2.984344    0.417219
      2          6           0       -2.290003   -1.549666    0.224477
      3          6           0       -3.312217   -0.583027    0.083696
      4          6           0       -4.668681   -0.964490    0.128221
      5          6           0       -5.045137   -2.389196    0.332506
      6          6           0       -0.974894   -1.165451    0.213070
      7          6           0       -2.944487    0.776585   -0.118038
      8          6           0       -1.570508    1.164764   -0.151917
      9          6           0       -0.563325    0.192568    0.064785
     10          6           0       -1.262523    2.573028   -0.522244
     11          6           0       -3.693871    3.145060   -0.538768
     12          6           0       -3.991276    1.717801   -0.285975
     13          6           0       -5.320482    1.323853   -0.231377
     14          6           0       -5.666292   -0.014557   -0.022722
     15          1           0       -6.701664   -0.327375    0.016707
     16          1           0       -6.082723    2.081823   -0.360339
     17          1           0       -0.227587   -1.932477    0.369600
     18          7           0       -2.342003    3.465503   -0.671361
     19          7           0       -3.990889   -3.309404    0.458910
     20          8           0       -1.785637   -3.852591    0.535484
     21          8           0       -6.205888   -2.749645    0.385951
     22          8           0       -4.567133    3.988993   -0.645978
     23          8           0       -0.138805    2.999532   -0.722782
     24          6           0       -1.986196    4.849781   -1.014330
     25          1           0       -1.344159    5.270733   -0.240156
     26          1           0       -1.441487    4.867775   -1.958264
     27          1           0       -2.907523    5.418079   -1.092657
     28          6           0       -4.315702   -4.729615    0.654047
     29          1           0       -3.883540   -5.319774   -0.154303
     30          1           0       -3.894566   -5.077389    1.597645
     31          1           0       -5.396628   -4.826882    0.661164
     32          6           0        0.871390    0.432157    0.195890
     33          6           0        1.549554    1.442266    0.844536
     34         16           0        1.999727   -0.771890   -0.406654
     35          6           0        2.944483    1.261550    0.854292
     36          1           0        1.052581    2.286010    1.293166
     37          6           0        3.382121    0.107234    0.201611
     38          8           0        3.862541    2.087434    1.421390
     39          6           0        4.734646   -0.329055    0.000137
     40          6           0        3.404077    3.326098    1.958341
     41          6           0        5.166855   -1.492960   -0.628267
     42         16           0        6.132160    0.594608    0.540372
     43          1           0        4.295558    3.854438    2.291405
     44          1           0        2.887836    3.916582    1.195348
     45          1           0        2.739352    3.161807    2.812685
     46          6           0        6.580073   -1.639128   -0.675207
     47          8           0        4.248122   -2.358529   -1.127857
     48          6           0        7.222159   -0.586913   -0.082964
     49          1           0        7.095553   -2.476844   -1.121496
     50          6           0        4.714222   -3.556538   -1.742837
     51          1           0        8.286076   -0.442070    0.026020
     52          1           0        5.281397   -4.167628   -1.033626
     53          1           0        3.822785   -4.097120   -2.055210
     54          1           0        5.331912   -3.334250   -2.618767
 ---------------------------------------------------------------------

 The electronic state is 1-A.
 Alpha  occ. eigenvalues --  -88.88535 -88.88520 -19.17338 -19.16990 -19.12273
 Alpha  occ. eigenvalues --  -19.12235 -19.11598 -19.11529 -14.38443 -14.37960
 Alpha  occ. eigenvalues --  -10.30871 -10.30708 -10.30449 -10.30172 -10.24991
 Alpha  occ. eigenvalues --  -10.24714 -10.24003 -10.23708 -10.23643 -10.22730
 Alpha  occ. eigenvalues --  -10.22526 -10.22402 -10.22317 -10.22062 -10.22056
 Alpha  occ. eigenvalues --  -10.22046 -10.21905 -10.21769 -10.21265 -10.21170
 Alpha  occ. eigenvalues --  -10.20907 -10.20862 -10.20788 -10.20609 -10.19115
 Alpha  occ. eigenvalues --  -10.18959  -7.97086  -7.97083  -5.93400  -5.93396
 Alpha  occ. eigenvalues --   -5.93011  -5.93007  -5.92654  -5.92630  -1.08894
 Alpha  occ. eigenvalues --   -1.08555  -1.08524  -1.08065  -1.06709  -1.06155
 Alpha  occ. eigenvalues --   -0.96087  -0.95511  -0.92247  -0.90489  -0.88909
 Alpha  occ. eigenvalues --   -0.86525  -0.84051  -0.80434  -0.78281  -0.77764
 Alpha  occ. eigenvalues --   -0.76526  -0.75478  -0.75018  -0.73313  -0.72334
 Alpha  occ. eigenvalues --   -0.71770  -0.70449  -0.68859  -0.67008  -0.65705
 Alpha  occ. eigenvalues --   -0.65510  -0.64544  -0.61169  -0.59964  -0.58538
 Alpha  occ. eigenvalues --   -0.57292  -0.56762  -0.56516  -0.55208  -0.54956
 Alpha  occ. eigenvalues --   -0.53414  -0.51556  -0.50270  -0.49864  -0.49616
 Alpha  occ. eigenvalues --   -0.49308  -0.48925  -0.48637  -0.48486  -0.48407
 Alpha  occ. eigenvalues --   -0.48175  -0.46947  -0.46493  -0.46245  -0.45837
 Alpha  occ. eigenvalues --   -0.45688  -0.44842  -0.44410  -0.44096  -0.43580
 Alpha  occ. eigenvalues --   -0.42830  -0.42574  -0.42362  -0.41979  -0.41790
 Alpha  occ. eigenvalues --   -0.41743  -0.41109  -0.41043  -0.40409  -0.39847
 Alpha  occ. eigenvalues --   -0.39490  -0.39120  -0.38984  -0.37766  -0.37438
 Alpha  occ. eigenvalues --   -0.36542  -0.35871  -0.34452  -0.34126  -0.33783
 Alpha  occ. eigenvalues --   -0.33559  -0.31971  -0.30895  -0.30354  -0.29668
 Alpha  occ. eigenvalues --   -0.29209  -0.28773  -0.28578  -0.27934  -0.27242
 Alpha  occ. eigenvalues --   -0.26011  -0.24809  -0.24673  -0.19502
 Alpha virt. eigenvalues --   -0.12943  -0.07410  -0.06345  -0.04467  -0.03757
 Alpha virt. eigenvalues --   -0.00861  -0.00463  -0.00323  -0.00000   0.00409
 Alpha virt. eigenvalues --    0.00806   0.01182   0.01471   0.01617   0.01841

 Mulliken charges:
               1
     1  C    0.290384
     2  C   -0.094137
     3  C    0.157485
     4  C    0.205343
     5  C    0.228308
     6  C   -0.332187
     7  C    0.215260
     8  C    0.373977
     9  C    0.445179
    10  C   -0.446299
    11  C    0.211607
    12  C    0.149521
    13  C   -0.475900
    14  C   -0.584750
    15  H    0.158482
    16  H    0.160669
    17  H    0.179078
    18  N   -0.124158
    19  N   -0.142462
    20  O   -0.281047
    21  O   -0.268694
    22  O   -0.277452
    23  O   -0.212386
    24  C   -0.193656
    25  H    0.168631
    26  H    0.176490
    27  H    0.182509
    28  C   -0.198056
    29  H    0.173503
    30  H    0.174227
    31  H    0.182083
    32  C    0.092085
    33  C   -0.508852
    34  S   -0.582800
    35  C   -0.185608
    36  H    0.135774
    37  C    0.712076
    38  O   -0.129933
    39  C    0.814080
    40  C   -0.240918
    41  C   -0.037345
    42  S   -0.260234
    43  H    0.165237
    44  H    0.162205
    45  H    0.144742
    46  C   -0.598760
    47  O   -0.129053
    48  C   -0.269180
    49  H    0.132552
    50  C   -0.240538
    51  H    0.161619
    52  H    0.146671
    53  H    0.169146
    54  H    0.145485
 Sum of Mulliken charges =  -0.00000

 Dipole moment (field-independent basis, Debye):
    X=              4.7409    Y=             -0.5859    Z=              0.2391  Tot=              4.7830
 Quadrupole moment (field-independent basis, Debye-Ang):
   XX=           -216.9558   YY=           -213.2286   ZZ=           -217.5092
   XY=             -4.0832   XZ=             -3.6780   YZ=             14.2368

 Normal termination of Gaussian 16 at Thu Nov 26 12:09:21 2020.
