 Gaussian 16, Revision C.01,
 Gaussian 16:  ES64L-G16RevC.01  3-Jul-2019

 -------------------------------------
 # opt=modredundant b3lyp/6-311+g(d,p)
 -------------------------------------

 ----------
 NDI_80.pdb
 ----------
 Symbolic Z-matrix:
 Charge =  0 Multiplicity = 1

 SCF Done:  E(RB3LYP) =  -2359.32950091     A.U. after   22 cycles
 SCF Done:  E(RB3LYP) =  -2359.33318023     A.U. after   15 cycles
 SCF Done:  E(RB3LYP) =  -2359.33424269     A.U. after   17 cycles
 SCF Done:  E(RB3LYP) =  -2359.33450817     A.U. after   14 cycles
 SCF Done:  E(RB3LYP) =  -2359.33464913     A.U. after   14 cycles
 SCF Done:  E(RB3LYP) =  -2359.33472575     A.U. after   12 cycles
 SCF Done:  E(RB3LYP) =  -2359.33475777     A.U. after   12 cycles
 SCF Done:  E(RB3LYP) =  -2359.33477520     A.U. after   12 cycles
 SCF Done:  E(RB3LYP) =  -2359.33478711     A.U. after   11 cycles
 SCF Done:  E(RB3LYP) =  -2359.33480108     A.U. after   11 cycles
 SCF Done:  E(RB3LYP) =  -2359.33486939     A.U. after   12 cycles
 SCF Done:  E(RB3LYP) =  -2359.33487648     A.U. after   13 cycles
 SCF Done:  E(RB3LYP) =  -2359.33488075     A.U. after   12 cycles
 SCF Done:  E(RB3LYP) =  -2359.33488295     A.U. after   11 cycles
 SCF Done:  E(RB3LYP) =  -2359.33488351     A.U. after   11 cycles
 SCF Done:  E(RB3LYP) =  -2359.33488361     A.U. after   10 cycles
 Optimization completed.
    -- Stationary point found.

                         Standard orientation:
 ---------------------------------------------------------------------
 Center     Atomic      Atomic             Coordinates (Angstroms)
 Number     Number       Type             X           Y           Z
 ---------------------------------------------------------------------
      1          6           0       -3.021214   -2.872409    0.541088
      2          6           0       -2.497253   -1.495010    0.340811
      3          6           0       -3.379146   -0.434317    0.038270
      4          6           0       -4.768150   -0.664150   -0.081570
      5          6           0       -5.325595   -2.030054    0.116762
      6          6           0       -1.147339   -1.253822    0.459943
      7          6           0       -2.850570    0.871302   -0.154280
      8          6           0       -1.451816    1.103869   -0.029300
      9          6           0       -0.598161    0.045359    0.307770
     10          6           0       -0.931714    2.478709   -0.297288
     11          6           0       -3.254677    3.298050   -0.707459
     12          6           0       -3.749662    1.917627   -0.475650
     13          6           0       -5.107450    1.670515   -0.587056
     14          6           0       -5.620812    0.380794   -0.388968
     15          1           0       -6.681639    0.183306   -0.476472
     16          1           0       -5.762243    2.496853   -0.833242
     17          1           0       -0.489291   -2.078943    0.701444
     18          7           0       -1.872053    3.476459   -0.616431
     19          7           0       -4.405261   -3.047995    0.413094
     20          8           0       -2.302540   -3.817500    0.804653
     21          8           0       -6.516735   -2.259630    0.027116
     22          8           0       -4.004398    4.221104   -0.969468
     23          8           0        0.246053    2.772146   -0.265364
     24          6           0       -1.321482    4.815887   -0.872478
     25          1           0       -0.793680    5.173907    0.011742
     26          1           0       -0.613328    4.769948   -1.699691
     27          1           0       -2.149466    5.474865   -1.113293
     28          6           0       -4.908442   -4.414817    0.614738
     29          1           0       -4.439200   -5.088006   -0.102778
     30          1           0       -4.658907   -4.754443    1.620235
     31          1           0       -5.984603   -4.398457    0.475175
     32          6           0        0.862361    0.168486    0.504010
     33          6           0        1.529065    0.624758    1.608938
     34         16           0        1.955486   -0.523755   -0.660270
     35          6           0        2.935020    0.455443    1.508374
     36          1           0        1.027505    1.075796    2.452728
     37          6           0        3.356816   -0.148725    0.333403
     38          8           0        3.857010    0.817233    2.443569
     39          6           0        4.706085   -0.427084   -0.089183
     40          6           0        3.413416    1.586025    3.556006
     41          6           0        5.120229   -1.059334   -1.252940
     42         16           0        6.116165    0.029589    0.857555
     43          1           0        4.306534    1.820487    4.132834
     44          1           0        2.935053    2.514570    3.227912
     45          1           0        2.720105    1.013966    4.181841
     46          6           0        6.532482   -1.174577   -1.385146
     47          8           0        4.186753   -1.501291   -2.141768
     48          6           0        7.192568   -0.629319   -0.319810
     49          1           0        7.033967   -1.637528   -2.222506
     50          6           0        4.642383   -2.145541   -3.325537
     51          1           0        8.258172   -0.582689   -0.156292
     52          1           0        5.207780   -3.053217   -3.089633
     53          1           0        3.747130   -2.412952   -3.884378
     54          1           0        5.260099   -1.472545   -3.929411
 ---------------------------------------------------------------------

 The electronic state is 1-A.
 Alpha  occ. eigenvalues --  -88.87833 -88.87535 -19.16313 -19.16225 -19.12786
 Alpha  occ. eigenvalues --  -19.12714 -19.12430 -19.12344 -14.38919 -14.38615
 Alpha  occ. eigenvalues --  -10.31409 -10.31194 -10.31092 -10.31032 -10.23860
 Alpha  occ. eigenvalues --  -10.23795 -10.23751 -10.23394 -10.23323 -10.23322
 Alpha  occ. eigenvalues --  -10.23239 -10.23162 -10.22814 -10.22745 -10.22731
 Alpha  occ. eigenvalues --  -10.21779 -10.21775 -10.21707 -10.21485 -10.21268
 Alpha  occ. eigenvalues --  -10.21071 -10.21035 -10.20871 -10.20041 -10.18345
 Alpha  occ. eigenvalues --  -10.18161  -7.96376  -7.96090  -5.92700  -5.92399
 Alpha  occ. eigenvalues --   -5.92309  -5.92011  -5.91918  -5.91658  -1.09021
 Alpha  occ. eigenvalues --   -1.08808  -1.07834  -1.07737  -1.07220  -1.06971
 Alpha  occ. eigenvalues --   -0.96588  -0.96217  -0.92970  -0.89792  -0.88283
 Alpha  occ. eigenvalues --   -0.86838  -0.84761  -0.80469  -0.78905  -0.77219
 Alpha  occ. eigenvalues --   -0.75914  -0.75527  -0.74615  -0.72957  -0.72507
 Alpha  occ. eigenvalues --   -0.71853  -0.69884  -0.68669  -0.67483  -0.66309
 Alpha  occ. eigenvalues --   -0.65838  -0.64976  -0.60858  -0.59522  -0.58595
 Alpha  occ. eigenvalues --   -0.57740  -0.56539  -0.55689  -0.55620  -0.54159
 Alpha  occ. eigenvalues --   -0.53815  -0.52036  -0.50538  -0.50160  -0.50023
 Alpha  occ. eigenvalues --   -0.49259  -0.48944  -0.48808  -0.48157  -0.47908
 Alpha  occ. eigenvalues --   -0.47715  -0.47459  -0.46912  -0.46587  -0.45606
 Alpha  occ. eigenvalues --   -0.45329  -0.44978  -0.44925  -0.44602  -0.44061
 Alpha  occ. eigenvalues --   -0.42943  -0.42789  -0.42376  -0.42079  -0.41825
 Alpha  occ. eigenvalues --   -0.41484  -0.41294  -0.41003  -0.40768  -0.40146
 Alpha  occ. eigenvalues --   -0.39910  -0.38936  -0.38356  -0.37805  -0.36991
 Alpha  occ. eigenvalues --   -0.35843  -0.35573  -0.33820  -0.33367  -0.33236
 Alpha  occ. eigenvalues --   -0.32861  -0.32658  -0.31343  -0.30484  -0.29977
 Alpha  occ. eigenvalues --   -0.29443  -0.29335  -0.28901  -0.28574  -0.27208
 Alpha  occ. eigenvalues --   -0.26627  -0.24242  -0.23967  -0.18735
 Alpha virt. eigenvalues --   -0.13466  -0.07210  -0.06149  -0.05053  -0.04387
 Alpha virt. eigenvalues --   -0.01093  -0.00113  -0.00067   0.00134   0.00531
 Alpha virt. eigenvalues --    0.00771   0.00885   0.01001   0.01167   0.01769

 Mulliken charges:
               1
     1  C    0.391883
     2  C    0.001747
     3  C    0.154129
     4  C    0.183018
     5  C    0.245972
     6  C   -0.712216
     7  C    0.209687
     8  C    0.131109
     9  C    0.665831
    10  C   -0.422180
    11  C    0.293118
    12  C    0.125495
    13  C   -0.518451
    14  C   -0.633008
    15  H    0.161518
    16  H    0.162619
    17  H    0.171503
    18  N   -0.164889
    19  N   -0.147946
    20  O   -0.269010
    21  O   -0.268967
    22  O   -0.271448
    23  O   -0.088132
    24  C   -0.207332
    25  H    0.175221
    26  H    0.179196
    27  H    0.184259
    28  C   -0.198214
    29  H    0.175562
    30  H    0.175765
    31  H    0.183221
    32  C    0.202389
    33  C   -0.588609
    34  S   -0.255685
    35  C   -0.379800
    36  H    0.112355
    37  C    0.461551
    38  O   -0.129282
    39  C    0.941632
    40  C   -0.236629
    41  C    0.048053
    42  S   -0.258998
    43  H    0.164280
    44  H    0.155131
    45  H    0.141992
    46  C   -0.502000
    47  O   -0.142203
    48  C   -0.302427
    49  H    0.128968
    50  C   -0.237301
    51  H    0.157429
    52  H    0.142401
    53  H    0.163024
    54  H    0.144675
 Sum of Mulliken charges =  -0.00000

 Dipole moment (field-independent basis, Debye):
    X=              1.7108    Y=              0.0011    Z=             -0.0058  Tot=              1.7108
 Quadrupole moment (field-independent basis, Debye-Ang):
   XX=           -221.4174   YY=           -227.2373   ZZ=           -202.6807
   XY=             -0.5793   XZ=             -8.8463   YZ=             14.3397

 Normal termination of Gaussian 16 at Thu Nov 26 11:42:45 2020.
