 Gaussian 16, Revision C.01,
 Gaussian 16:  ES64L-G16RevC.01  3-Jul-2019

 -------------------------------------
 # opt=modredundant b3lyp/6-311+g(d,p)
 -------------------------------------

 -----------
 NDI_105.pdb
 -----------
 Symbolic Z-matrix:
 Charge =  0 Multiplicity = 1

 SCF Done:  E(RB3LYP) =  -2359.33120260     A.U. after   18 cycles
 SCF Done:  E(RB3LYP) =  -2359.33389619     A.U. after   14 cycles
 SCF Done:  E(RB3LYP) =  -2359.33438872     A.U. after   15 cycles
 SCF Done:  E(RB3LYP) =  -2359.33463994     A.U. after   14 cycles
 SCF Done:  E(RB3LYP) =  -2359.33469886     A.U. after   13 cycles
 SCF Done:  E(RB3LYP) =  -2359.33472315     A.U. after   12 cycles
 SCF Done:  E(RB3LYP) =  -2359.33473800     A.U. after   12 cycles
 SCF Done:  E(RB3LYP) =  -2359.33474616     A.U. after   12 cycles
 SCF Done:  E(RB3LYP) =  -2359.33475185     A.U. after   11 cycles
 SCF Done:  E(RB3LYP) =  -2359.33475882     A.U. after   12 cycles
 SCF Done:  E(RB3LYP) =  -2359.33483310     A.U. after   11 cycles
 SCF Done:  E(RB3LYP) =  -2359.33483335     A.U. after   11 cycles
 SCF Done:  E(RB3LYP) =  -2359.33483349     A.U. after   11 cycles
 SCF Done:  E(RB3LYP) =  -2359.33483370     A.U. after   11 cycles
 SCF Done:  E(RB3LYP) =  -2359.33483392     A.U. after   11 cycles
 SCF Done:  E(RB3LYP) =  -2359.33483409     A.U. after   10 cycles
 SCF Done:  E(RB3LYP) =  -2359.33483424     A.U. after   10 cycles
 SCF Done:  E(RB3LYP) =  -2359.33483434     A.U. after   10 cycles
 SCF Done:  E(RB3LYP) =  -2359.33483440     A.U. after   10 cycles
 SCF Done:  E(RB3LYP) =  -2359.33483442     A.U. after    9 cycles
 Optimization completed.
    -- Stationary point found.

                         Standard orientation:
 ---------------------------------------------------------------------
 Center     Atomic      Atomic             Coordinates (Angstroms)
 Number     Number       Type             X           Y           Z
 ---------------------------------------------------------------------
      1          6           0        3.427528   -2.781675    0.231579
      2          6           0        2.718639   -1.488932    0.038195
      3          6           0        3.430273   -0.270883    0.098023
      4          6           0        4.820453   -0.259320    0.351739
      5          6           0        5.558408   -1.535279    0.559093
      6          6           0        1.359748   -1.480000   -0.184871
      7          6           0        2.731172    0.949890   -0.106315
      8          6           0        1.332052    0.939250   -0.364277
      9          6           0        0.635075   -0.275230   -0.368349
     10          6           0        0.658860    2.234316   -0.684509
     11          6           0        2.782291    3.467634   -0.242672
     12          6           0        3.461486    2.161874   -0.041417
     13          6           0        4.821991    2.150368    0.213680
     14          6           0        5.505248    0.940991    0.409141
     15          1           0        6.569732    0.927965    0.606091
     16          1           0        5.345294    3.097099    0.259399
     17          1           0        0.825918   -2.421730   -0.202038
     18          7           0        1.418781    3.410386   -0.540351
     19          7           0        4.804193   -2.717307    0.483269
     20          8           0        2.860914   -3.856673    0.177917
     21          8           0        6.753930   -1.560160    0.781573
     22          8           0        3.377087    4.527105   -0.163499
     23          8           0       -0.489029    2.317254   -1.069588
     24          6           0        0.709075    4.670298   -0.808083
     25          1           0        0.438504    4.731391   -1.863272
     26          1           0       -0.204626    4.703037   -0.216472
     27          1           0        1.371649    5.488180   -0.543340
     28          6           0        5.490292   -4.003258    0.677488
     29          1           0        5.041667   -4.535459    1.516365
     30          1           0        5.382656   -4.616755   -0.217302
     31          1           0        6.537639   -3.796735    0.873126
     32          6           0       -0.826253   -0.411200   -0.550414
     33          6           0       -1.489921   -0.841915   -1.667366
     34         16           0       -1.923491   -0.050054    0.749192
     35          6           0       -2.899469   -0.864464   -1.488560
     36          1           0       -0.985700   -1.100615   -2.587276
     37          6           0       -3.322539   -0.470074   -0.228231
     38          8           0       -3.822113   -1.236618   -2.418795
     39          6           0       -4.670583   -0.418064    0.280488
     40          6           0       -3.356523   -1.619570   -3.707376
     41          6           0       -5.089334   -0.025406    1.543523
     42         16           0       -6.072152   -0.865863   -0.682919
     43          1           0       -4.245417   -1.867569   -4.284963
     44          1           0       -2.823678   -0.796888   -4.195603
     45          1           0       -2.705393   -2.498258   -3.648496
     46          6           0       -6.498438   -0.079349    1.735878
     47          8           0       -4.162687    0.361619    2.465165
     48          6           0       -7.151630   -0.514838    0.617172
     49          1           0       -7.002699    0.189611    2.652590
     50          6           0       -4.626634    0.792871    3.738763
     51          1           0       -8.213804   -0.648734    0.482068
     52          1           0       -5.157853   -0.010775    4.259600
     53          1           0       -3.737376    1.063652    4.305597
     54          1           0       -5.279465    1.667301    3.647002
 ---------------------------------------------------------------------

 The electronic state is 1-A.
 Alpha  occ. eigenvalues --  -88.87676 -88.87478 -19.16260 -19.16238 -19.12822
 Alpha  occ. eigenvalues --  -19.12762 -19.12433 -19.12376 -14.38956 -14.38586
 Alpha  occ. eigenvalues --  -10.31446 -10.31239 -10.31069 -10.31034 -10.23823
 Alpha  occ. eigenvalues --  -10.23779 -10.23673 -10.23411 -10.23345 -10.23310
 Alpha  occ. eigenvalues --  -10.23258 -10.23200 -10.22849 -10.22776 -10.22774
 Alpha  occ. eigenvalues --  -10.21831 -10.21807 -10.21749 -10.21429 -10.21302
 Alpha  occ. eigenvalues --  -10.21003 -10.20997 -10.20804 -10.19968 -10.18368
 Alpha  occ. eigenvalues --  -10.18104  -7.96222  -7.96033  -5.92548  -5.92342
 Alpha  occ. eigenvalues --   -5.92157  -5.91954  -5.91760  -5.91602  -1.09057
 Alpha  occ. eigenvalues --   -1.08812  -1.07802  -1.07727  -1.07258  -1.06980
 Alpha  occ. eigenvalues --   -0.96622  -0.96225  -0.93001  -0.89732  -0.88245
 Alpha  occ. eigenvalues --   -0.86842  -0.84789  -0.80477  -0.78930  -0.77179
 Alpha  occ. eigenvalues --   -0.75894  -0.75531  -0.74562  -0.72941  -0.72595
 Alpha  occ. eigenvalues --   -0.71721  -0.69920  -0.68648  -0.67483  -0.66327
 Alpha  occ. eigenvalues --   -0.65810  -0.65031  -0.60805  -0.59519  -0.58581
 Alpha  occ. eigenvalues --   -0.57768  -0.56606  -0.55637  -0.55460  -0.54152
 Alpha  occ. eigenvalues --   -0.53925  -0.52050  -0.50554  -0.50177  -0.50014
 Alpha  occ. eigenvalues --   -0.49230  -0.48958  -0.48824  -0.48144  -0.47891
 Alpha  occ. eigenvalues --   -0.47599  -0.47596  -0.46939  -0.46610  -0.45565
 Alpha  occ. eigenvalues --   -0.45329  -0.45077  -0.44887  -0.44597  -0.44114
 Alpha  occ. eigenvalues --   -0.43024  -0.42739  -0.42361  -0.42049  -0.41772
 Alpha  occ. eigenvalues --   -0.41502  -0.41299  -0.41017  -0.40719  -0.40210
 Alpha  occ. eigenvalues --   -0.39895  -0.38865  -0.38219  -0.37839  -0.36995
 Alpha  occ. eigenvalues --   -0.35863  -0.35592  -0.33690  -0.33255  -0.33135
 Alpha  occ. eigenvalues --   -0.33065  -0.32647  -0.31355  -0.30475  -0.29968
 Alpha  occ. eigenvalues --   -0.29438  -0.29245  -0.28825  -0.28597  -0.27311
 Alpha  occ. eigenvalues --   -0.26664  -0.24242  -0.23858  -0.18692
 Alpha virt. eigenvalues --   -0.13487  -0.07219  -0.06157  -0.05055  -0.04331
 Alpha virt. eigenvalues --   -0.01081  -0.00194  -0.00085   0.00221   0.00605
 Alpha virt. eigenvalues --    0.00636   0.00841   0.01051   0.01153   0.01748

 Mulliken charges:
               1
     1  C    0.402277
     2  C    0.005383
     3  C    0.141318
     4  C    0.243774
     5  C    0.252241
     6  C   -0.695023
     7  C    0.161281
     8  C    0.019733
     9  C    0.479886
    10  C   -0.261032
    11  C    0.286647
    12  C    0.222992
    13  C   -0.529934
    14  C   -0.651604
    15  H    0.161985
    16  H    0.163290
    17  H    0.162663
    18  N   -0.120522
    19  N   -0.144385
    20  O   -0.268834
    21  O   -0.270460
    22  O   -0.272689
    23  O   -0.126533
    24  C   -0.199351
    25  H    0.178042
    26  H    0.179366
    27  H    0.183284
    28  C   -0.201053
    29  H    0.175965
    30  H    0.175296
    31  H    0.182980
    32  C    0.524631
    33  C   -0.832469
    34  S   -0.232467
    35  C   -0.282683
    36  H    0.114738
    37  C    0.321212
    38  O   -0.120761
    39  C    0.966228
    40  C   -0.242986
    41  C    0.021279
    42  S   -0.259989
    43  H    0.165422
    44  H    0.149109
    45  H    0.146657
    46  C   -0.518917
    47  O   -0.147044
    48  C   -0.307128
    49  H    0.128604
    50  C   -0.236043
    51  H    0.157041
    52  H    0.142202
    53  H    0.162312
    54  H    0.144070
 Sum of Mulliken charges =  -0.00000

 Dipole moment (field-independent basis, Debye):
    X=             -1.5959    Y=              0.0267    Z=              0.1037  Tot=              1.5995
 Quadrupole moment (field-independent basis, Debye-Ang):
   XX=           -220.1653   YY=           -232.6054   ZZ=           -199.0022
   XY=             -5.4813   XZ=            -10.3437   YZ=              8.0317

 Normal termination of Gaussian 16 at Thu Nov 26 13:09:38 2020.
