 Gaussian 16, Revision C.01,
 Gaussian 16:  ES64L-G16RevC.01  3-Jul-2019

 -------------------------------------
 # opt=modredundant b3lyp/6-311+g(d,p)
 -------------------------------------

 -----------
 NDI_175.pdb
 -----------
 Symbolic Z-matrix:
 Charge =  0 Multiplicity = 1

 SCF Done:  E(RB3LYP) =  -2359.29145186     A.U. after   17 cycles
 SCF Done:  E(RB3LYP) =  -2359.32169763     A.U. after   17 cycles
 SCF Done:  E(RB3LYP) =  -2359.33071963     A.U. after   16 cycles
 SCF Done:  E(RB3LYP) =  -2359.33304580     A.U. after   14 cycles
 SCF Done:  E(RB3LYP) =  -2359.33354429     A.U. after   13 cycles
 SCF Done:  E(RB3LYP) =  -2359.33363353     A.U. after   15 cycles
 SCF Done:  E(RB3LYP) =  -2359.33381464     A.U. after   13 cycles
 SCF Done:  E(RB3LYP) =  -2359.33388352     A.U. after   13 cycles
 SCF Done:  E(RB3LYP) =  -2359.33392891     A.U. after   14 cycles
 SCF Done:  E(RB3LYP) =  -2359.33400749     A.U. after   13 cycles
 SCF Done:  E(RB3LYP) =  -2359.33420511     A.U. after   14 cycles
 SCF Done:  E(RB3LYP) =  -2359.33420353     A.U. after   13 cycles
 SCF Done:  E(RB3LYP) =  -2359.33420860     A.U. after   12 cycles
 SCF Done:  E(RB3LYP) =  -2359.33420865     A.U. after   11 cycles
 SCF Done:  E(RB3LYP) =  -2359.33420959     A.U. after   12 cycles
 SCF Done:  E(RB3LYP) =  -2359.33420979     A.U. after   10 cycles
 SCF Done:  E(RB3LYP) =  -2359.33421000     A.U. after   10 cycles
 SCF Done:  E(RB3LYP) =  -2359.33421010     A.U. after    9 cycles
 SCF Done:  E(RB3LYP) =  -2359.33421016     A.U. after   10 cycles
 SCF Done:  E(RB3LYP) =  -2359.33421018     A.U. after    9 cycles
 Optimization completed.
    -- Stationary point found.

                         Standard orientation:
 ---------------------------------------------------------------------
 Center     Atomic      Atomic             Coordinates (Angstroms)
 Number     Number       Type             X           Y           Z
 ---------------------------------------------------------------------
      1          6           0       -3.536363   -2.670983   -0.074481
      2          6           0       -2.790641   -1.393068    0.069482
      3          6           0       -3.456225   -0.154844   -0.076179
      4          6           0       -4.831826   -0.109577   -0.371023
      5          6           0       -5.608322   -1.367957   -0.527239
      6          6           0       -1.444435   -1.428953    0.304041
      7          6           0       -2.700148    1.036485    0.088112
      8          6           0       -1.301652    0.986107    0.381993
      9          6           0       -0.624096   -0.263412    0.443211
     10          6           0       -0.650355    2.267819    0.732309
     11          6           0       -2.688728    3.556439    0.112600
     12          6           0       -3.390738    2.266399   -0.059220
     13          6           0       -4.745801    2.293341   -0.362322
     14          6           0       -5.473583    1.111252   -0.517850
     15          1           0       -6.530977    1.127847   -0.747871
     16          1           0       -5.223075    3.258995   -0.471481
     17          1           0       -0.999789   -2.410563    0.340145
     18          7           0       -1.356216    3.463411    0.515017
     19          7           0       -4.901495   -2.573089   -0.360338
     20          8           0       -3.007836   -3.762167    0.046554
     21          8           0       -6.797269   -1.367925   -0.784349
     22          8           0       -3.233809    4.633474   -0.059904
     23          8           0        0.465534    2.343011    1.221041
     24          6           0       -0.630502    4.705029    0.817139
     25          1           0       -0.402439    4.755299    1.882583
     26          1           0        0.308110    4.723254    0.264358
     27          1           0       -1.264605    5.536659    0.526355
     28          6           0       -5.631381   -3.841155   -0.500279
     29          1           0       -5.204563   -4.424416   -1.316712
     30          1           0       -5.542337   -4.419385    0.419540
     31          1           0       -6.671249   -3.606879   -0.704483
     32          6           0        0.812078   -0.544275    0.515304
     33          6           0        1.346140   -1.826527    0.672661
     34         16           0        2.101228    0.567537    0.094967
     35          6           0        2.724302   -1.908939    0.449157
     36          1           0        0.762173   -2.684394    0.963769
     37          6           0        3.308011   -0.695531    0.076241
     38          8           0        3.504809   -3.016801    0.563984
     39          6           0        4.688913   -0.450915   -0.223718
     40          6           0        2.877542   -4.243938    0.924384
     41          6           0        5.281793    0.756670   -0.586905
     42         16           0        5.917644   -1.712942   -0.184853
     43          1           0        3.671630   -4.987685    0.954372
     44          1           0        2.408839   -4.171794    1.911243
     45          1           0        2.130141   -4.538179    0.180431
     46          6           0        6.680400    0.670098   -0.824096
     47          8           0        4.516033    1.869865   -0.686081
     48          6           0        7.151185   -0.601428   -0.644543
     49          1           0        7.305961    1.501829   -1.112923
     50          6           0        5.154104    3.103288   -1.006559
     51          1           0        8.166964   -0.948202   -0.758409
     52          1           0        5.622071    3.058974   -1.995122
     53          1           0        4.365158    3.852743   -1.011484
     54          1           0        5.902269    3.365914   -0.252176
 ---------------------------------------------------------------------

 The electronic state is 1-A.
 Alpha  occ. eigenvalues --  -88.88789 -88.88337 -19.17545 -19.17220 -19.12210
 Alpha  occ. eigenvalues --  -19.12183 -19.11446 -19.11337 -14.38376 -14.37762
 Alpha  occ. eigenvalues --  -10.30765 -10.30664 -10.30122 -10.29899 -10.25355
 Alpha  occ. eigenvalues --  -10.24793 -10.24166 -10.23949 -10.23922 -10.22608
 Alpha  occ. eigenvalues --  -10.22583 -10.22467 -10.22133 -10.22031 -10.21969
 Alpha  occ. eigenvalues --  -10.21801 -10.21792 -10.21513 -10.21481 -10.21185
 Alpha  occ. eigenvalues --  -10.20863 -10.20572 -10.20500 -10.20465 -10.19477
 Alpha  occ. eigenvalues --  -10.19365  -7.97341  -7.96835  -5.93650  -5.93261
 Alpha  occ. eigenvalues --   -5.93156  -5.92910  -5.92744  -5.92387  -1.09169
 Alpha  occ. eigenvalues --   -1.08786  -1.08441  -1.07914  -1.06629  -1.05958
 Alpha  occ. eigenvalues --   -0.95999  -0.95382  -0.92033  -0.90578  -0.89014
 Alpha  occ. eigenvalues --   -0.86388  -0.83838  -0.80506  -0.78056  -0.77789
 Alpha  occ. eigenvalues --   -0.76733  -0.75701  -0.74897  -0.73519  -0.72291
 Alpha  occ. eigenvalues --   -0.71418  -0.70823  -0.68933  -0.66851  -0.65653
 Alpha  occ. eigenvalues --   -0.65301  -0.64646  -0.61049  -0.60176  -0.58554
 Alpha  occ. eigenvalues --   -0.57387  -0.56809  -0.56565  -0.55419  -0.54716
 Alpha  occ. eigenvalues --   -0.53644  -0.51366  -0.50151  -0.49882  -0.49381
 Alpha  occ. eigenvalues --   -0.49251  -0.49122  -0.48762  -0.48726  -0.48317
 Alpha  occ. eigenvalues --   -0.48167  -0.47096  -0.46569  -0.46094  -0.45977
 Alpha  occ. eigenvalues --   -0.45603  -0.44858  -0.44364  -0.44038  -0.43493
 Alpha  occ. eigenvalues --   -0.43135  -0.42426  -0.42336  -0.41974  -0.41741
 Alpha  occ. eigenvalues --   -0.41593  -0.41182  -0.40971  -0.40453  -0.39877
 Alpha  occ. eigenvalues --   -0.39498  -0.39181  -0.38828  -0.37628  -0.37150
 Alpha  occ. eigenvalues --   -0.36604  -0.36303  -0.34590  -0.34306  -0.33716
 Alpha  occ. eigenvalues --   -0.33379  -0.31676  -0.30704  -0.30419  -0.29609
 Alpha  occ. eigenvalues --   -0.29181  -0.28586  -0.28439  -0.27763  -0.27255
 Alpha  occ. eigenvalues --   -0.25893  -0.25063  -0.24537  -0.19685
 Alpha virt. eigenvalues --   -0.12722  -0.07850  -0.06163  -0.04247  -0.03704
 Alpha virt. eigenvalues --   -0.00907  -0.00485  -0.00343  -0.00116   0.00382
 Alpha virt. eigenvalues --    0.00927   0.01073   0.01451   0.01921   0.01968

 Mulliken charges:
               1
     1  C    0.344774
     2  C   -0.059077
     3  C    0.163500
     4  C    0.175021
     5  C    0.253614
     6  C    0.131816
     7  C    0.077912
     8  C    0.253516
     9  C    0.395341
    10  C   -0.425721
    11  C    0.260470
    12  C    0.079427
    13  C   -0.448424
    14  C   -0.585100
    15  H    0.157379
    16  H    0.160409
    17  H    0.155238
    18  N   -0.085179
    19  N   -0.147839
    20  O   -0.287122
    21  O   -0.265911
    22  O   -0.281858
    23  O   -0.222501
    24  C   -0.171183
    25  H    0.177464
    26  H    0.170169
    27  H    0.182459
    28  C   -0.197646
    29  H    0.173332
    30  H    0.173002
    31  H    0.182094
    32  C   -0.119231
    33  C   -0.328303
    34  S   -0.671472
    35  C   -0.372451
    36  H    0.128877
    37  C    0.640639
    38  O   -0.135690
    39  C    0.850576
    40  C   -0.225561
    41  C   -0.056541
    42  S   -0.249760
    43  H    0.168696
    44  H    0.149385
    45  H    0.150780
    46  C   -0.528404
    47  O   -0.114917
    48  C   -0.292005
    49  H    0.133026
    50  C   -0.242322
    51  H    0.162860
    52  H    0.144666
    53  H    0.168973
    54  H    0.148801
 Sum of Mulliken charges =  -0.00000

 Dipole moment (field-independent basis, Debye):
    X=              5.5317    Y=             -0.8526    Z=             -0.5041  Tot=              5.6197
 Quadrupole moment (field-independent basis, Debye-Ang):
   XX=           -209.8413   YY=           -213.4044   ZZ=           -223.1983
   XY=             12.4793   XZ=             -9.2241   YZ=             -5.9541

 Normal termination of Gaussian 16 at Thu Nov 26 23:15:51 2020.
