 Gaussian 16, Revision C.01,
 Gaussian 16:  ES64L-G16RevC.01  3-Jul-2019

 -------------------------------------
 # opt=modredundant b3lyp/6-311+g(d,p)
 -------------------------------------

 ----------
 NDI_-5.pdb
 ----------
 Symbolic Z-matrix:
 Charge =  0 Multiplicity = 1

 SCF Done:  E(RB3LYP) =  -2359.32328299     A.U. after   16 cycles
 SCF Done:  E(RB3LYP) =  -2359.31384163     A.U. after   17 cycles
 SCF Done:  E(RB3LYP) =  -2359.33132641     A.U. after   15 cycles
 SCF Done:  E(RB3LYP) =  -2359.33450377     A.U. after   17 cycles
 SCF Done:  E(RB3LYP) =  -2359.33516017     A.U. after   16 cycles
 SCF Done:  E(RB3LYP) =  -2359.33558445     A.U. after   13 cycles
 SCF Done:  E(RB3LYP) =  -2359.33565170     A.U. after   13 cycles
 SCF Done:  E(RB3LYP) =  -2359.33575042     A.U. after   13 cycles
 SCF Done:  E(RB3LYP) =  -2359.33577955     A.U. after   13 cycles
 SCF Done:  E(RB3LYP) =  -2359.33579381     A.U. after   12 cycles
 SCF Done:  E(RB3LYP) =  -2359.33580910     A.U. after   12 cycles
 SCF Done:  E(RB3LYP) =  -2359.33581287     A.U. after   11 cycles
 SCF Done:  E(RB3LYP) =  -2359.33581664     A.U. after   11 cycles
 SCF Done:  E(RB3LYP) =  -2359.33581834     A.U. after   11 cycles
 SCF Done:  E(RB3LYP) =  -2359.33581893     A.U. after   11 cycles
 SCF Done:  E(RB3LYP) =  -2359.33581910     A.U. after   11 cycles
 SCF Done:  E(RB3LYP) =  -2359.33581922     A.U. after    9 cycles
 SCF Done:  E(RB3LYP) =  -2359.33581929     A.U. after    9 cycles
 SCF Done:  E(RB3LYP) =  -2359.33581933     A.U. after    9 cycles
 SCF Done:  E(RB3LYP) =  -2359.33581937     A.U. after    9 cycles
 Optimization completed.
    -- Stationary point found.

                         Standard orientation:
 ---------------------------------------------------------------------
 Center     Atomic      Atomic             Coordinates (Angstroms)
 Number     Number       Type             X           Y           Z
 ---------------------------------------------------------------------
      1          6           0       -2.422905   -3.039332    0.049449
      2          6           0       -2.183706   -1.572153    0.073307
      3          6           0       -3.263303   -0.666461   -0.036343
      4          6           0       -4.579727   -1.139453   -0.195739
      5          6           0       -4.854919   -2.600451   -0.239210
      6          6           0       -0.902809   -1.104721    0.160379
      7          6           0       -2.984076    0.726126    0.028698
      8          6           0       -1.644796    1.205798    0.191058
      9          6           0       -0.555247    0.284530    0.181152
     10          6           0       -1.498724    2.651365    0.494244
     11          6           0       -3.897999    3.073035   -0.030794
     12          6           0       -4.088093    1.609182   -0.089490
     13          6           0       -5.378041    1.125872   -0.265983
     14          6           0       -5.633611   -0.245930   -0.314584
     15          1           0       -6.638178   -0.627672   -0.442135
     16          1           0       -6.181107    1.845614   -0.361973
     17          1           0       -0.126794   -1.857907    0.190962
     18          7           0       -2.602693    3.494374    0.270605
     19          7           0       -3.748428   -3.457502   -0.105760
     20          8           0       -1.526510   -3.856772    0.155201
     21          8           0       -5.979478   -3.042944   -0.379307
     22          8           0       -4.807550    3.866730   -0.203210
     23          8           0       -0.485523    3.158827    0.949991
     24          6           0       -2.375902    4.929159    0.493469
     25          1           0       -2.160786    5.116980    1.546267
     26          1           0       -1.521734    5.260486   -0.095934
     27          1           0       -3.276464    5.455362    0.192893
     28          6           0       -3.975400   -4.909305   -0.133472
     29          1           0       -3.417516   -5.353419   -0.958213
     30          1           0       -3.625361   -5.354107    0.798323
     31          1           0       -5.040025   -5.078280   -0.259739
     32          6           0        0.872696    0.560455    0.059447
     33          6           0        1.584095    1.728537   -0.166643
     34         16           0        2.008557   -0.791995    0.196517
     35          6           0        2.972057    1.544427   -0.253532
     36          1           0        1.114082    2.689972   -0.250154
     37          6           0        3.396385    0.225616   -0.070892
     38          8           0        3.900416    2.509158   -0.477806
     39          6           0        4.740150   -0.273042   -0.080100
     40          6           0        3.448265    3.856041   -0.609713
     41          6           0        5.159522   -1.588493    0.105295
     42         16           0        6.144918    0.756080   -0.339857
     43          1           0        4.344800    4.457631   -0.747066
     44          1           0        2.796692    3.966136   -1.482229
     45          1           0        2.918447    4.182098    0.290131
     46          6           0        6.568242   -1.763726    0.040847
     47          8           0        4.234698   -2.554776    0.322801
     48          6           0        7.218923   -0.583584   -0.193490
     49          1           0        7.074796   -2.710033    0.161004
     50          6           0        4.684865   -3.895117    0.508175
     51          1           0        8.282623   -0.427476   -0.289042
     52          1           0        5.331526   -3.973498    1.387651
     53          1           0        3.787385   -4.490886    0.662190
     54          1           0        5.215784   -4.256500   -0.377991
 ---------------------------------------------------------------------

 The electronic state is 1-A.
 Alpha  occ. eigenvalues --  -88.88941 -88.88711 -19.17712 -19.17270 -19.12126
 Alpha  occ. eigenvalues --  -19.12115 -19.11548 -19.11369 -14.38310 -14.37822
 Alpha  occ. eigenvalues --  -10.30713 -10.30579 -10.30394 -10.29910 -10.25494
 Alpha  occ. eigenvalues --  -10.25002 -10.24225 -10.23985 -10.23755 -10.23068
 Alpha  occ. eigenvalues --  -10.22574 -10.22532 -10.22305 -10.22217 -10.21984
 Alpha  occ. eigenvalues --  -10.21792 -10.21785 -10.21631 -10.21460 -10.21192
 Alpha  occ. eigenvalues --  -10.20813 -10.20606 -10.20556 -10.20459 -10.19492
 Alpha  occ. eigenvalues --  -10.18867  -7.97491  -7.97287  -5.93801  -5.93605
 Alpha  occ. eigenvalues --   -5.93411  -5.93210  -5.93059  -5.92831  -1.09300
 Alpha  occ. eigenvalues --   -1.08842  -1.08385  -1.07989  -1.06568  -1.06009
 Alpha  occ. eigenvalues --   -0.95950  -0.95416  -0.92045  -0.90758  -0.89149
 Alpha  occ. eigenvalues --   -0.86390  -0.83840  -0.80505  -0.78243  -0.77870
 Alpha  occ. eigenvalues --   -0.76748  -0.75712  -0.74906  -0.73583  -0.72256
 Alpha  occ. eigenvalues --   -0.71800  -0.70653  -0.68901  -0.66945  -0.65585
 Alpha  occ. eigenvalues --   -0.65472  -0.64399  -0.61366  -0.60165  -0.58554
 Alpha  occ. eigenvalues --   -0.57302  -0.56866  -0.56716  -0.55384  -0.55027
 Alpha  occ. eigenvalues --   -0.53330  -0.51453  -0.50470  -0.49796  -0.49513
 Alpha  occ. eigenvalues --   -0.49252  -0.49215  -0.48700  -0.48655  -0.48423
 Alpha  occ. eigenvalues --   -0.48183  -0.47027  -0.46524  -0.46146  -0.46005
 Alpha  occ. eigenvalues --   -0.45723  -0.44703  -0.44344  -0.43958  -0.43158
 Alpha  occ. eigenvalues --   -0.43097  -0.42672  -0.42505  -0.42089  -0.41901
 Alpha  occ. eigenvalues --   -0.41601  -0.41006  -0.40994  -0.40398  -0.39987
 Alpha  occ. eigenvalues --   -0.39388  -0.39186  -0.38950  -0.37867  -0.37383
 Alpha  occ. eigenvalues --   -0.36713  -0.36337  -0.34724  -0.34404  -0.33725
 Alpha  occ. eigenvalues --   -0.33525  -0.31813  -0.30793  -0.30444  -0.29609
 Alpha  occ. eigenvalues --   -0.29148  -0.28577  -0.28508  -0.27762  -0.27280
 Alpha  occ. eigenvalues --   -0.26035  -0.25033  -0.24982  -0.19797
 Alpha virt. eigenvalues --   -0.12756  -0.08026  -0.06231  -0.04232  -0.03570
 Alpha virt. eigenvalues --   -0.00864  -0.00436  -0.00284  -0.00141   0.00371
 Alpha virt. eigenvalues --    0.00816   0.01287   0.01361   0.01845   0.01890

 Mulliken charges:
               1
     1  C    0.318295
     2  C   -0.008758
     3  C    0.137451
     4  C    0.233341
     5  C    0.276084
     6  C    0.074856
     7  C    0.159861
     8  C    0.401508
     9  C    0.200214
    10  C   -0.752048
    11  C    0.253703
    12  C    0.164313
    13  C   -0.490456
    14  C   -0.619163
    15  H    0.157840
    16  H    0.160875
    17  H    0.166271
    18  N   -0.064104
    19  N   -0.141359
    20  O   -0.287666
    21  O   -0.268557
    22  O   -0.282192
    23  O   -0.267327
    24  C   -0.158182
    25  H    0.178226
    26  H    0.164419
    27  H    0.183573
    28  C   -0.195891
    29  H    0.173607
    30  H    0.173102
    31  H    0.181740
    32  C    0.019181
    33  C    0.045978
    34  S   -0.655629
    35  C   -0.775919
    36  H    0.164620
    37  C    0.529455
    38  O   -0.127497
    39  C    1.025437
    40  C   -0.244082
    41  C    0.023042
    42  S   -0.218684
    43  H    0.167170
    44  H    0.146248
    45  H    0.163545
    46  C   -0.563352
    47  O   -0.126985
    48  C   -0.317870
    49  H    0.134025
    50  C   -0.243282
    51  H    0.163878
    52  H    0.146395
    53  H    0.173835
    54  H    0.146915
 Sum of Mulliken charges =  -0.00000

 Dipole moment (field-independent basis, Debye):
    X=              5.8924    Y=             -0.7282    Z=             -0.4370  Tot=              5.9533
 Quadrupole moment (field-independent basis, Debye-Ang):
   XX=           -214.3731   YY=           -207.1826   ZZ=           -224.4828
   XY=             -5.1179   XZ=             -2.9765   YZ=             -4.6941

 Normal termination of Gaussian 16 at Thu Nov 26 10:38:37 2020.
