 Gaussian 16, Revision C.01,
 Gaussian 16:  ES64L-G16RevC.01  3-Jul-2019

 -------------------------------------
 # opt=modredundant b3lyp/6-311+g(d,p)
 -------------------------------------

 -----------
 NDI_-75.pdb
 -----------
 Symbolic Z-matrix:
 Charge =  0 Multiplicity = 1

 SCF Done:  E(RB3LYP) =  -2359.33198225     A.U. after   19 cycles
 SCF Done:  E(RB3LYP) =  -2359.33481463     A.U. after   16 cycles
 SCF Done:  E(RB3LYP) =  -2359.33525912     A.U. after   14 cycles
 SCF Done:  E(RB3LYP) =  -2359.33525763     A.U. after   14 cycles
 SCF Done:  E(RB3LYP) =  -2359.33534605     A.U. after   13 cycles
 SCF Done:  E(RB3LYP) =  -2359.33534884     A.U. after   12 cycles
 SCF Done:  E(RB3LYP) =  -2359.33535220     A.U. after   11 cycles
 SCF Done:  E(RB3LYP) =  -2359.33535267     A.U. after   12 cycles
 SCF Done:  E(RB3LYP) =  -2359.33535320     A.U. after   11 cycles
 SCF Done:  E(RB3LYP) =  -2359.33535360     A.U. after   12 cycles
 SCF Done:  E(RB3LYP) =  -2359.33535457     A.U. after   11 cycles
 SCF Done:  E(RB3LYP) =  -2359.33535463     A.U. after   11 cycles
 SCF Done:  E(RB3LYP) =  -2359.33535464     A.U. after   11 cycles
 SCF Done:  E(RB3LYP) =  -2359.33535468     A.U. after   10 cycles
 SCF Done:  E(RB3LYP) =  -2359.33535470     A.U. after   10 cycles
 SCF Done:  E(RB3LYP) =  -2359.33535473     A.U. after   10 cycles
 SCF Done:  E(RB3LYP) =  -2359.33535476     A.U. after   10 cycles
 SCF Done:  E(RB3LYP) =  -2359.33535478     A.U. after   10 cycles
 SCF Done:  E(RB3LYP) =  -2359.33535479     A.U. after   10 cycles
 SCF Done:  E(RB3LYP) =  -2359.33535480     A.U. after    8 cycles
 Optimization completed.
    -- Stationary point found.

                         Standard orientation:
 ---------------------------------------------------------------------
 Center     Atomic      Atomic             Coordinates (Angstroms)
 Number     Number       Type             X           Y           Z
 ---------------------------------------------------------------------
      1          6           0        2.936731   -2.883814    0.590299
      2          6           0        2.451220   -1.497059    0.360303
      3          6           0        3.364874   -0.462741    0.058805
      4          6           0        4.749156   -0.728643   -0.031750
      5          6           0        5.268826   -2.104009    0.199689
      6          6           0        1.106556   -1.221385    0.452658
      7          6           0        2.871251    0.851782   -0.164980
      8          6           0        1.476522    1.121259   -0.067882
      9          6           0        0.590840    0.089536    0.276973
     10          6           0        0.996055    2.499954   -0.381011
     11          6           0        3.345989    3.254690   -0.762153
     12          6           0        3.801909    1.868668   -0.491285
     13          6           0        5.155379    1.586406   -0.573562
     14          6           0        5.633465    0.289387   -0.342127
     15          1           0        6.690385    0.064287   -0.406787
     16          1           0        5.833988    2.391895   -0.824313
     17          1           0        0.426107   -2.027057    0.697482
     18          7           0        1.966109    3.466072   -0.709263
     19          7           0        4.318218   -3.094664    0.493648
     20          8           0        2.189854   -3.807480    0.851960
     21          8           0        6.455453   -2.364195    0.137316
     22          8           0        4.122905    4.154894   -1.025438
     23          8           0       -0.174731    2.823947   -0.380924
     24          6           0        1.453226    4.810427   -1.012443
     25          1           0        0.753011    4.756536   -1.845794
     26          1           0        0.925491    5.209985   -0.146010
     27          1           0        2.300673    5.440206   -1.263506
     28          6           0        4.783749   -4.469838    0.726038
     29          1           0        4.500966   -4.789512    1.729242
     30          1           0        4.317070   -5.142036    0.005847
     31          1           0        5.863145   -4.480464    0.613530
     32          6           0       -0.866085    0.248579    0.452606
     33          6           0       -1.536241    0.823544    1.500255
     34         16           0       -1.959963   -0.575479   -0.624479
     35          6           0       -2.939629    0.640154    1.421061
     36          1           0       -1.035929    1.367182    2.288177
     37          6           0       -3.360907   -0.093256    0.319968
     38          8           0       -3.862730    1.101886    2.309241
     39          6           0       -4.709696   -0.412035   -0.071122
     40          6           0       -3.423242    2.001417    3.321333
     41          6           0       -5.123526   -1.174970   -1.154639
     42         16           0       -6.120567    0.160079    0.809836
     43          1           0       -4.317922    2.300008    3.865099
     44          1           0       -2.728506    1.511473    4.011801
     45          1           0       -2.947953    2.884981    2.883333
     46          6           0       -6.535694   -1.297822   -1.277655
     47          8           0       -4.189831   -1.721381   -1.981819
     48          6           0       -7.195964   -0.627602   -0.286095
     49          1           0       -7.037179   -1.853583   -2.056475
     50          6           0       -4.643688   -2.510260   -3.075762
     51          1           0       -8.261854   -0.557570   -0.133000
     52          1           0       -5.258930   -1.918351   -3.761415
     53          1           0       -3.747400   -2.847133   -3.593778
     54          1           0       -5.210771   -3.379875   -2.727647
 ---------------------------------------------------------------------

 The electronic state is 1-A.
 Alpha  occ. eigenvalues --  -88.87959 -88.87695 -19.16481 -19.16346 -19.12695
 Alpha  occ. eigenvalues --  -19.12626 -19.12296 -19.12204 -14.38834 -14.38506
 Alpha  occ. eigenvalues --  -10.31315 -10.31106 -10.30978 -10.30895 -10.23950
 Alpha  occ. eigenvalues --  -10.23948 -10.23807 -10.23438 -10.23307 -10.23275
 Alpha  occ. eigenvalues --  -10.23162 -10.23028 -10.22687 -10.22634 -10.22576
 Alpha  occ. eigenvalues --  -10.21693 -10.21624 -10.21579 -10.21565 -10.21295
 Alpha  occ. eigenvalues --  -10.21202 -10.21040 -10.20961 -10.20224 -10.18457
 Alpha  occ. eigenvalues --  -10.18316  -7.96505  -7.96249  -5.92828  -5.92559
 Alpha  occ. eigenvalues --   -5.92437  -5.92171  -5.92048  -5.91818  -1.08932
 Alpha  occ. eigenvalues --   -1.08679  -1.08003  -1.07870  -1.07129  -1.06833
 Alpha  occ. eigenvalues --   -0.96497  -0.96099  -0.92849  -0.89901  -0.88374
 Alpha  occ. eigenvalues --   -0.86812  -0.84644  -0.80445  -0.78793  -0.77311
 Alpha  occ. eigenvalues --   -0.76019  -0.75443  -0.74763  -0.72927  -0.72532
 Alpha  occ. eigenvalues --   -0.71853  -0.69973  -0.68708  -0.67401  -0.66207
 Alpha  occ. eigenvalues --   -0.65771  -0.64912  -0.60886  -0.59585  -0.58605
 Alpha  occ. eigenvalues --   -0.57651  -0.56577  -0.55800  -0.55588  -0.54288
 Alpha  occ. eigenvalues --   -0.53739  -0.51954  -0.50456  -0.50071  -0.49946
 Alpha  occ. eigenvalues --   -0.49354  -0.48857  -0.48749  -0.48269  -0.48000
 Alpha  occ. eigenvalues --   -0.47781  -0.47392  -0.46825  -0.46524  -0.45661
 Alpha  occ. eigenvalues --   -0.45295  -0.45010  -0.44866  -0.44543  -0.44014
 Alpha  occ. eigenvalues --   -0.42851  -0.42719  -0.42276  -0.42158  -0.41797
 Alpha  occ. eigenvalues --   -0.41431  -0.41342  -0.41080  -0.40753  -0.40042
 Alpha  occ. eigenvalues --   -0.39824  -0.39009  -0.38463  -0.37762  -0.37118
 Alpha  occ. eigenvalues --   -0.35928  -0.35590  -0.33958  -0.33466  -0.33382
 Alpha  occ. eigenvalues --   -0.32960  -0.32544  -0.31263  -0.30427  -0.29920
 Alpha  occ. eigenvalues --   -0.29389  -0.29261  -0.28856  -0.28457  -0.27246
 Alpha  occ. eigenvalues --   -0.26494  -0.24331  -0.24113  -0.18864
 Alpha virt. eigenvalues --   -0.13374  -0.07146  -0.06175  -0.04993  -0.04330
 Alpha virt. eigenvalues --   -0.01046  -0.00188  -0.00137   0.00108   0.00578
 Alpha virt. eigenvalues --    0.00762   0.00971   0.01008   0.01227   0.01816

 Mulliken charges:
               1
     1  C    0.390526
     2  C   -0.028064
     3  C    0.134620
     4  C    0.199006
     5  C    0.240087
     6  C   -0.703031
     7  C    0.214290
     8  C    0.163233
     9  C    0.642888
    10  C   -0.415792
    11  C    0.303729
    12  C    0.113187
    13  C   -0.516074
    14  C   -0.635086
    15  H    0.161074
    16  H    0.162303
    17  H    0.175222
    18  N   -0.164751
    19  N   -0.147296
    20  O   -0.270711
    21  O   -0.269117
    22  O   -0.273781
    23  O   -0.102659
    24  C   -0.203598
    25  H    0.178968
    26  H    0.174592
    27  H    0.184118
    28  C   -0.198207
    29  H    0.175570
    30  H    0.175188
    31  H    0.183083
    32  C    0.148384
    33  C   -0.444752
    34  S   -0.346321
    35  C   -0.371694
    36  H    0.115284
    37  C    0.526223
    38  O   -0.128028
    39  C    0.900138
    40  C   -0.239160
    41  C    0.018712
    42  S   -0.255782
    43  H    0.164335
    44  H    0.142153
    45  H    0.156541
    46  C   -0.499081
    47  O   -0.138428
    48  C   -0.293480
    49  H    0.129527
    50  C   -0.237966
    51  H    0.158098
    52  H    0.144793
    53  H    0.163740
    54  H    0.143244
 Sum of Mulliken charges =  -0.00000

 Dipole moment (field-independent basis, Debye):
    X=             -2.1910    Y=             -0.1125    Z=              0.0156  Tot=              2.1940
 Quadrupole moment (field-independent basis, Debye-Ang):
   XX=           -220.8447   YY=           -224.4419   ZZ=           -205.4864
   XY=              1.4601   XZ=              8.2881   YZ=             15.9882

 Normal termination of Gaussian 16 at Thu Nov 26 08:23:55 2020.
