 Gaussian 16, Revision C.01,
 Gaussian 16:  ES64L-G16RevC.01  3-Jul-2019

 -------------------------------------
 # opt=modredundant b3lyp/6-311+g(d,p)
 -------------------------------------

 -----------
 NDI_160.pdb
 -----------
 Symbolic Z-matrix:
 Charge =  0 Multiplicity = 1

 SCF Done:  E(RB3LYP) =  -2359.30329484     A.U. after   18 cycles
 SCF Done:  E(RB3LYP) =  -2359.32273364     A.U. after   17 cycles
 SCF Done:  E(RB3LYP) =  -2359.33093131     A.U. after   16 cycles
 SCF Done:  E(RB3LYP) =  -2359.33363773     A.U. after   15 cycles
 SCF Done:  E(RB3LYP) =  -2359.33387246     A.U. after   14 cycles
 SCF Done:  E(RB3LYP) =  -2359.33457720     A.U. after   16 cycles
 SCF Done:  E(RB3LYP) =  -2359.33525455     A.U. after   15 cycles
 SCF Done:  E(RB3LYP) =  -2359.33537038     A.U. after   13 cycles
 SCF Done:  E(RB3LYP) =  -2359.33538934     A.U. after   12 cycles
 SCF Done:  E(RB3LYP) =  -2359.33539977     A.U. after   12 cycles
 SCF Done:  E(RB3LYP) =  -2359.33542907     A.U. after   11 cycles
 SCF Done:  E(RB3LYP) =  -2359.33543056     A.U. after   11 cycles
 SCF Done:  E(RB3LYP) =  -2359.33543130     A.U. after   10 cycles
 SCF Done:  E(RB3LYP) =  -2359.33543164     A.U. after    9 cycles
 SCF Done:  E(RB3LYP) =  -2359.33543186     A.U. after    9 cycles
 SCF Done:  E(RB3LYP) =  -2359.33543220     A.U. after   10 cycles
 SCF Done:  E(RB3LYP) =  -2359.33543232     A.U. after   10 cycles
 SCF Done:  E(RB3LYP) =  -2359.33543237     A.U. after    9 cycles
 SCF Done:  E(RB3LYP) =  -2359.33543239     A.U. after    8 cycles
 SCF Done:  E(RB3LYP) =  -2359.33543239     A.U. after    8 cycles
 Optimization completed.
    -- Stationary point found.

                         Standard orientation:
 ---------------------------------------------------------------------
 Center     Atomic      Atomic             Coordinates (Angstroms)
 Number     Number       Type             X           Y           Z
 ---------------------------------------------------------------------
      1          6           0       -3.422935   -2.695610   -0.362461
      2          6           0       -2.738773   -1.391991   -0.153514
      3          6           0       -3.484692   -0.193648   -0.083430
      4          6           0       -4.888289   -0.216297   -0.186104
      5          6           0       -5.606890   -1.502537   -0.387210
      6          6           0       -1.377695   -1.363906   -0.037984
      7          6           0       -2.778578    1.027218    0.086181
      8          6           0       -1.349394    1.048833    0.166020
      9          6           0       -0.609034   -0.166881    0.151895
     10          6           0       -0.710512    2.372204    0.290945
     11          6           0       -2.911487    3.523475    0.414030
     12          6           0       -3.553103    2.211307    0.186706
     13          6           0       -4.938622    2.170097    0.095689
     14          6           0       -5.613015    0.963103   -0.099067
     15          1           0       -6.691839    0.927259   -0.177281
     16          1           0       -5.480994    3.102928    0.184037
     17          1           0       -0.871358   -2.310158   -0.144724
     18          7           0       -1.518968    3.503671    0.484750
     19          7           0       -4.816749   -2.663664   -0.467895
     20          8           0       -2.822690   -3.753210   -0.435315
     21          8           0       -6.818317   -1.559396   -0.481427
     22          8           0       -3.545399    4.558581    0.531055
     23          8           0        0.498304    2.540513    0.234206
     24          6           0       -0.812870    4.779210    0.670626
     25          1           0       -0.083602    4.676572    1.472796
     26          1           0       -0.283813    5.053727   -0.243324
     27          1           0       -1.554215    5.533709    0.914331
     28          6           0       -5.485611   -3.956599   -0.671311
     29          1           0       -5.116179   -4.421503   -1.585525
     30          1           0       -5.266936   -4.620419    0.165561
     31          1           0       -6.552932   -3.772779   -0.741609
     32          6           0        0.829067   -0.419674    0.290327
     33          6           0        1.326952   -1.673866    0.655982
     34         16           0        2.173193    0.626107   -0.153006
     35          6           0        2.717316   -1.791696    0.572034
     36          1           0        0.700628   -2.474369    1.015943
     37          6           0        3.350754   -0.637473    0.103434
     38          8           0        3.464488   -2.879022    0.900421
     39          6           0        4.758546   -0.445305   -0.104437
     40          6           0        2.783439   -4.060419    1.312424
     41          6           0        5.402365    0.699490   -0.568020
     42         16           0        5.956600   -1.699163    0.205808
     43          1           0        3.557825   -4.802425    1.497987
     44          1           0        2.217208   -3.887780    2.233518
     45          1           0        2.111274   -4.421854    0.527526
     46          6           0        6.814674    0.573296   -0.669373
     47          8           0        4.667885    1.795561   -0.876171
     48          6           0        7.245613   -0.666577   -0.285589
     49          1           0        7.477184    1.355859   -1.008917
     50          6           0        5.350150    2.969009   -1.309219
     51          1           0        8.260794   -1.032602   -0.265007
     52          1           0        5.895058    2.786102   -2.240885
     53          1           0        4.576434    3.714689   -1.481093
     54          1           0        6.040378    3.329101   -0.539749
 ---------------------------------------------------------------------

 The electronic state is 1-A.
 Alpha  occ. eigenvalues --  -88.88552 -88.88238 -19.17251 -19.17125 -19.12271
 Alpha  occ. eigenvalues --  -19.12256 -19.11751 -19.11362 -14.38447 -14.37890
 Alpha  occ. eigenvalues --  -10.30839 -10.30733 -10.30246 -10.29943 -10.25065
 Alpha  occ. eigenvalues --  -10.24647 -10.24030 -10.23909 -10.23857 -10.22600
 Alpha  occ. eigenvalues --  -10.22523 -10.22256 -10.22157 -10.22085 -10.21891
 Alpha  occ. eigenvalues --  -10.21865 -10.21856 -10.21584 -10.21266 -10.21184
 Alpha  occ. eigenvalues --  -10.20923 -10.20649 -10.20588 -10.20517 -10.19149
 Alpha  occ. eigenvalues --  -10.19136  -7.97105  -7.96676  -5.93414  -5.93025
 Alpha  occ. eigenvalues --   -5.92997  -5.92675  -5.92582  -5.92235  -1.08891
 Alpha  occ. eigenvalues --   -1.08686  -1.08515  -1.08090  -1.06701  -1.06074
 Alpha  occ. eigenvalues --   -0.96075  -0.95517  -0.92089  -0.90336  -0.88804
 Alpha  occ. eigenvalues --   -0.86403  -0.83934  -0.80468  -0.78124  -0.77606
 Alpha  occ. eigenvalues --   -0.76579  -0.75493  -0.74991  -0.73358  -0.72348
 Alpha  occ. eigenvalues --   -0.71459  -0.70606  -0.68821  -0.66906  -0.65723
 Alpha  occ. eigenvalues --   -0.65356  -0.64716  -0.60930  -0.60004  -0.58577
 Alpha  occ. eigenvalues --   -0.57349  -0.56723  -0.56396  -0.55289  -0.54710
 Alpha  occ. eigenvalues --   -0.53602  -0.51426  -0.50107  -0.49964  -0.49411
 Alpha  occ. eigenvalues --   -0.49301  -0.48907  -0.48684  -0.48626  -0.48310
 Alpha  occ. eigenvalues --   -0.48144  -0.47199  -0.46570  -0.46137  -0.45937
 Alpha  occ. eigenvalues --   -0.45602  -0.44997  -0.44298  -0.44026  -0.43463
 Alpha  occ. eigenvalues --   -0.43012  -0.42499  -0.42176  -0.41872  -0.41678
 Alpha  occ. eigenvalues --   -0.41621  -0.41268  -0.41022  -0.40447  -0.39644
 Alpha  occ. eigenvalues --   -0.39406  -0.39139  -0.38983  -0.37554  -0.37134
 Alpha  occ. eigenvalues --   -0.36342  -0.36004  -0.34405  -0.34141  -0.33645
 Alpha  occ. eigenvalues --   -0.33100  -0.31875  -0.30722  -0.30210  -0.29693
 Alpha  occ. eigenvalues --   -0.29236  -0.28655  -0.28617  -0.27753  -0.27274
 Alpha  occ. eigenvalues --   -0.25964  -0.24869  -0.24502  -0.19600
 Alpha virt. eigenvalues --   -0.12698  -0.07591  -0.06313  -0.04298  -0.03701
 Alpha virt. eigenvalues --   -0.00778  -0.00491  -0.00382   0.00018   0.00452
 Alpha virt. eigenvalues --    0.00941   0.01179   0.01458   0.01898   0.02006

 Mulliken charges:
               1
     1  C    0.330942
     2  C   -0.039145
     3  C    0.121491
     4  C    0.176838
     5  C    0.287845
     6  C   -0.282573
     7  C    0.128056
     8  C    0.268349
     9  C    0.404884
    10  C    0.048215
    11  C    0.158168
    12  C    0.231839
    13  C   -0.513173
    14  C   -0.631803
    15  H    0.157610
    16  H    0.160561
    17  H    0.165240
    18  N   -0.178443
    19  N   -0.141923
    20  O   -0.287475
    21  O   -0.268689
    22  O   -0.280667
    23  O   -0.219488
    24  C   -0.216845
    25  H    0.174987
    26  H    0.175607
    27  H    0.184598
    28  C   -0.196572
    29  H    0.173388
    30  H    0.173030
    31  H    0.182951
    32  C   -0.215819
    33  C   -0.678914
    34  S   -0.304969
    35  C   -0.249853
    36  H    0.136953
    37  C    0.676285
    38  O   -0.136846
    39  C    0.797960
    40  C   -0.225515
    41  C   -0.002939
    42  S   -0.262860
    43  H    0.167946
    44  H    0.146868
    45  H    0.152408
    46  C   -0.559923
    47  O   -0.118308
    48  C   -0.281599
    49  H    0.132454
    50  C   -0.245863
    51  H    0.162085
    52  H    0.143975
    53  H    0.171528
    54  H    0.147146
 Sum of Mulliken charges =  -0.00000

 Dipole moment (field-independent basis, Debye):
    X=              5.1575    Y=             -0.7481    Z=             -0.0089  Tot=              5.2114
 Quadrupole moment (field-independent basis, Debye-Ang):
   XX=           -212.0450   YY=           -215.1684   ZZ=           -220.1324
   XY=             12.9781   XZ=             -4.9404   YZ=             -9.6345

 Normal termination of Gaussian 16 at Thu Nov 26 14:15:46 2020.
