 Gaussian 16, Revision C.01,
 Gaussian 16:  ES64L-G16RevC.01  3-Jul-2019

 -------------------------------------
 # opt=modredundant b3lyp/6-311+g(d,p)
 -------------------------------------

 -----------
 NDI_-35.pdb
 -----------
 Symbolic Z-matrix:
 Charge =  0 Multiplicity = 1

 SCF Done:  E(RB3LYP) =  -2359.33777015     A.U. after   17 cycles
 SCF Done:  E(RB3LYP) =  -2359.33793600     A.U. after   13 cycles
 SCF Done:  E(RB3LYP) =  -2359.33811284     A.U. after   13 cycles
 SCF Done:  E(RB3LYP) =  -2359.33825218     A.U. after   12 cycles
 SCF Done:  E(RB3LYP) =  -2359.33826421     A.U. after   13 cycles
 SCF Done:  E(RB3LYP) =  -2359.33828060     A.U. after   13 cycles
 SCF Done:  E(RB3LYP) =  -2359.33828430     A.U. after   13 cycles
 SCF Done:  E(RB3LYP) =  -2359.33828933     A.U. after   11 cycles
 SCF Done:  E(RB3LYP) =  -2359.33829022     A.U. after   12 cycles
 SCF Done:  E(RB3LYP) =  -2359.33829082     A.U. after   10 cycles
 SCF Done:  E(RB3LYP) =  -2359.33829103     A.U. after   10 cycles
 SCF Done:  E(RB3LYP) =  -2359.33829142     A.U. after   10 cycles
 SCF Done:  E(RB3LYP) =  -2359.33829191     A.U. after   11 cycles
 SCF Done:  E(RB3LYP) =  -2359.33829231     A.U. after   10 cycles
 SCF Done:  E(RB3LYP) =  -2359.33829261     A.U. after   10 cycles
 SCF Done:  E(RB3LYP) =  -2359.33829269     A.U. after    9 cycles
 SCF Done:  E(RB3LYP) =  -2359.33829275     A.U. after   10 cycles
 SCF Done:  E(RB3LYP) =  -2359.33829277     A.U. after    8 cycles
 Optimization completed.
    -- Stationary point found.

                         Standard orientation:
 ---------------------------------------------------------------------
 Center     Atomic      Atomic             Coordinates (Angstroms)
 Number     Number       Type             X           Y           Z
 ---------------------------------------------------------------------
      1          6           0        2.613398   -2.996371    0.363489
      2          6           0        2.281298   -1.557541    0.188599
      3          6           0        3.309110   -0.592567    0.079374
      4          6           0        4.663049   -0.979305    0.142073
      5          6           0        5.031115   -2.408432    0.329703
      6          6           0        0.968431   -1.167957    0.167219
      7          6           0        2.948436    0.770828   -0.108716
      8          6           0        1.576211    1.164157   -0.162277
      9          6           0        0.561357    0.193356    0.031315
     10          6           0        1.282735    2.573054   -0.540515
     11          6           0        3.713210    3.143553   -0.472549
     12          6           0        4.001243    1.711221   -0.240116
     13          6           0        5.328244    1.312325   -0.165962
     14          6           0        5.666448   -0.030294    0.025745
     15          1           0        6.699951   -0.347091    0.079350
     16          1           0        6.094726    2.070391   -0.265974
     17          1           0        0.218669   -1.936127    0.305666
     18          7           0        2.365701    3.468721   -0.634980
     19          7           0        3.971740   -3.326865    0.423542
     20          8           0        1.763738   -3.863483    0.452633
     21          8           0        6.189508   -2.774142    0.396829
     22          8           0        4.590098    3.987801   -0.541505
     23          8           0        0.168747    2.998377   -0.792916
     24          6           0        2.022017    4.856979   -0.973959
     25          1           0        1.533695    4.890561   -1.948068
     26          1           0        1.332925    5.259533   -0.231351
     27          1           0        2.942912    5.431194   -0.988291
     28          6           0        4.288559   -4.751169    0.600965
     29          1           0        3.843105   -5.114516    1.527305
     30          1           0        3.875657   -5.325887   -0.228397
     31          1           0        5.368769   -4.851345    0.633028
     32          6           0       -0.870750    0.436187    0.170077
     33          6           0       -1.547424    1.479933    0.766661
     34         16           0       -2.005716   -0.789570   -0.378319
     35          6           0       -2.942117    1.304305    0.785557
     36          1           0       -1.049782    2.343221    1.174504
     37          6           0       -3.384003    0.121176    0.188428
     38          8           0       -3.857430    2.158798    1.312497
     39          6           0       -4.737695   -0.321472    0.012953
     40          6           0       -3.394023    3.416987    1.797827
     41          6           0       -5.174180   -1.511339   -0.562236
     42         16           0       -6.131643    0.626345    0.519795
     43          1           0       -4.283699    3.963120    2.105996
     44          1           0       -2.732025    3.285432    2.659882
     45          1           0       -2.873137    3.972017    1.011780
     46          6           0       -6.587659   -1.657774   -0.595412
     47          8           0       -4.258919   -2.398511   -1.028090
     48          6           0       -7.225579   -0.579995   -0.046069
     49          1           0       -7.106291   -2.513366   -1.002369
     50          6           0       -4.728814   -3.620201   -1.591926
     51          1           0       -8.288829   -0.429196    0.061454
     52          1           0       -5.349620   -3.432846   -2.473757
     53          1           0       -3.839139   -4.174115   -1.885288
     54          1           0       -5.293852   -4.200945   -0.856065
 ---------------------------------------------------------------------

 The electronic state is 1-A.
 Alpha  occ. eigenvalues --  -88.88610 -88.88575 -19.17412 -19.17061 -19.12239
 Alpha  occ. eigenvalues --  -19.12204 -19.11554 -19.11492 -14.38411 -14.37922
 Alpha  occ. eigenvalues --  -10.30835 -10.30676 -10.30414 -10.30123 -10.25083
 Alpha  occ. eigenvalues --  -10.24794 -10.24050 -10.23708 -10.23686 -10.22682
 Alpha  occ. eigenvalues --  -10.22638 -10.22333 -10.22254 -10.22113 -10.22012
 Alpha  occ. eigenvalues --  -10.21994 -10.21981 -10.21705 -10.21254 -10.21245
 Alpha  occ. eigenvalues --  -10.20883 -10.20803 -10.20722 -10.20599 -10.19185
 Alpha  occ. eigenvalues --  -10.18997  -7.97161  -7.97140  -5.93471  -5.93456
 Alpha  occ. eigenvalues --   -5.93082  -5.93067  -5.92730  -5.92687  -1.08972
 Alpha  occ. eigenvalues --   -1.08630  -1.08491  -1.08026  -1.06676  -1.06112
 Alpha  occ. eigenvalues --   -0.96053  -0.95474  -0.92204  -0.90547  -0.88961
 Alpha  occ. eigenvalues --   -0.86499  -0.84005  -0.80446  -0.78256  -0.77796
 Alpha  occ. eigenvalues --   -0.76572  -0.75541  -0.74987  -0.73369  -0.72313
 Alpha  occ. eigenvalues --   -0.71772  -0.70492  -0.68873  -0.66982  -0.65668
 Alpha  occ. eigenvalues --   -0.65498  -0.64512  -0.61205  -0.60006  -0.58531
 Alpha  occ. eigenvalues --   -0.57283  -0.56771  -0.56578  -0.55199  -0.55010
 Alpha  occ. eigenvalues --   -0.53399  -0.51531  -0.50299  -0.49848  -0.49585
 Alpha  occ. eigenvalues --   -0.49276  -0.48984  -0.48652  -0.48531  -0.48396
 Alpha  occ. eigenvalues --   -0.48185  -0.46935  -0.46493  -0.46234  -0.45846
 Alpha  occ. eigenvalues --   -0.45713  -0.44805  -0.44389  -0.44052  -0.43533
 Alpha  occ. eigenvalues --   -0.42876  -0.42601  -0.42378  -0.41962  -0.41859
 Alpha  occ. eigenvalues --   -0.41712  -0.41066  -0.41023  -0.40392  -0.39896
 Alpha  occ. eigenvalues --   -0.39454  -0.39116  -0.39022  -0.37804  -0.37428
 Alpha  occ. eigenvalues --   -0.36591  -0.35951  -0.34499  -0.34190  -0.33788
 Alpha  occ. eigenvalues --   -0.33602  -0.31932  -0.30870  -0.30367  -0.29636
 Alpha  occ. eigenvalues --   -0.29193  -0.28744  -0.28560  -0.27895  -0.27234
 Alpha  occ. eigenvalues --   -0.25990  -0.24856  -0.24722  -0.19555
 Alpha virt. eigenvalues --   -0.12910  -0.07502  -0.06322  -0.04416  -0.03721
 Alpha virt. eigenvalues --   -0.00858  -0.00478  -0.00329  -0.00024   0.00391
 Alpha virt. eigenvalues --    0.00820   0.01204   0.01456   0.01664   0.01867

 Mulliken charges:
               1
     1  C    0.285371
     2  C   -0.094955
     3  C    0.166358
     4  C    0.205071
     5  C    0.226068
     6  C   -0.238347
     7  C    0.217811
     8  C    0.430132
     9  C    0.388066
    10  C   -0.524242
    11  C    0.219874
    12  C    0.140867
    13  C   -0.478127
    14  C   -0.585743
    15  H    0.158296
    16  H    0.160595
    17  H    0.176473
    18  N   -0.109637
    19  N   -0.141860
    20  O   -0.282442
    21  O   -0.268625
    22  O   -0.278047
    23  O   -0.220547
    24  C   -0.185015
    25  H    0.176816
    26  H    0.167602
    27  H    0.182629
    28  C   -0.198307
    29  H    0.174010
    30  H    0.173487
    31  H    0.181963
    32  C    0.080649
    33  C   -0.512792
    34  S   -0.609639
    35  C   -0.199052
    36  H    0.136907
    37  C    0.715522
    38  O   -0.128696
    39  C    0.833328
    40  C   -0.241002
    41  C   -0.025776
    42  S   -0.256872
    43  H    0.165577
    44  H    0.145064
    45  H    0.162819
    46  C   -0.608152
    47  O   -0.128647
    48  C   -0.271272
    49  H    0.132865
    50  C   -0.240696
    51  H    0.162005
    52  H    0.145592
    53  H    0.169797
    54  H    0.146875
 Sum of Mulliken charges =  -0.00000

 Dipole moment (field-independent basis, Debye):
    X=             -4.9656    Y=             -0.6058    Z=              0.2890  Tot=              5.0108
 Quadrupole moment (field-independent basis, Debye-Ang):
   XX=           -216.4293   YY=           -212.2908   ZZ=           -218.6356
   XY=              4.2680   XZ=              2.8251   YZ=             13.3317

 Normal termination of Gaussian 16 at Thu Nov 26 08:21:46 2020.
