 Gaussian 16, Revision C.01,
 Gaussian 16:  ES64L-G16RevC.01  3-Jul-2019

 -------------------------------------
 # opt=modredundant b3lyp/6-311+g(d,p)
 -------------------------------------

 ------------
 NDI_-140.pdb
 ------------
 Symbolic Z-matrix:
 Charge =  0 Multiplicity = 1

 SCF Done:  E(RB3LYP) =  -2359.32214958     A.U. after   17 cycles
 SCF Done:  E(RB3LYP) =  -2359.32293793     A.U. after   18 cycles
 SCF Done:  E(RB3LYP) =  -2359.33099744     A.U. after   14 cycles
 SCF Done:  E(RB3LYP) =  -2359.33463033     A.U. after   14 cycles
 SCF Done:  E(RB3LYP) =  -2359.33502499     A.U. after   13 cycles
 SCF Done:  E(RB3LYP) =  -2359.33523459     A.U. after   13 cycles
 SCF Done:  E(RB3LYP) =  -2359.33541225     A.U. after   13 cycles
 SCF Done:  E(RB3LYP) =  -2359.33559552     A.U. after   16 cycles
 SCF Done:  E(RB3LYP) =  -2359.33589728     A.U. after   13 cycles
 SCF Done:  E(RB3LYP) =  -2359.33600036     A.U. after   13 cycles
 SCF Done:  E(RB3LYP) =  -2359.33668023     A.U. after   12 cycles
 SCF Done:  E(RB3LYP) =  -2359.33669820     A.U. after   12 cycles
 SCF Done:  E(RB3LYP) =  -2359.33670916     A.U. after   12 cycles
 SCF Done:  E(RB3LYP) =  -2359.33671422     A.U. after   11 cycles
 SCF Done:  E(RB3LYP) =  -2359.33671572     A.U. after   11 cycles
 SCF Done:  E(RB3LYP) =  -2359.33671682     A.U. after   10 cycles
 SCF Done:  E(RB3LYP) =  -2359.33671815     A.U. after   11 cycles
 SCF Done:  E(RB3LYP) =  -2359.33671907     A.U. after   10 cycles
 SCF Done:  E(RB3LYP) =  -2359.33671919     A.U. after   10 cycles
 SCF Done:  E(RB3LYP) =  -2359.33671921     A.U. after    8 cycles
 Optimization completed.
    -- Stationary point found.

                         Standard orientation:
 ---------------------------------------------------------------------
 Center     Atomic      Atomic             Coordinates (Angstroms)
 Number     Number       Type             X           Y           Z
 ---------------------------------------------------------------------
      1          6           0       -3.518737   -2.694627    0.403923
      2          6           0       -2.766288   -1.447787    0.107368
      3          6           0       -3.425693   -0.196684    0.122081
      4          6           0       -4.798594   -0.108280    0.432902
      5          6           0       -5.577434   -1.335537    0.749410
      6          6           0       -1.416767   -1.510871   -0.141144
      7          6           0       -2.683295    0.973904   -0.192949
      8          6           0       -1.297580    0.886083   -0.505925
      9          6           0       -0.636338   -0.352781   -0.412492
     10          6           0       -0.637624    2.098464   -1.064954
     11          6           0       -2.641110    3.472711   -0.508347
     12          6           0       -3.360904    2.217839   -0.179604
     13          6           0       -4.707974    2.284187    0.140733
     14          6           0       -5.431426    1.124263    0.445179
     15          1           0       -6.484905    1.170839    0.689596
     16          1           0       -5.186652    3.255336    0.148171
     17          1           0       -0.928242   -2.474865   -0.081566
     18          7           0       -1.316004    3.324541   -0.924805
     19          7           0       -4.878242   -2.554403    0.707590
     20          8           0       -3.001043   -3.796417    0.389378
     21          8           0       -6.760877   -1.296793    1.028150
     22          8           0       -3.173293    4.567063   -0.445701
     23          8           0        0.426764    2.076245   -1.651748
     24          6           0       -0.598219    4.519105   -1.391866
     25          1           0        0.416975    4.502749   -0.999799
     26          1           0       -0.546766    4.528974   -2.482294
     27          1           0       -1.139004    5.391985   -1.039360
     28          6           0       -5.609605   -3.794588    1.004621
     29          1           0       -5.557647   -4.466436    0.147620
     30          1           0       -5.155706   -4.293217    1.861309
     31          1           0       -6.640173   -3.531023    1.219913
     32          6           0        0.808741   -0.568111   -0.498682
     33          6           0        1.437582   -1.610080   -1.149420
     34         16           0        1.952276    0.379615    0.410477
     35          6           0        2.835017   -1.621772   -0.951322
     36          1           0        0.906664   -2.315000   -1.772958
     37          6           0        3.299020   -0.614520   -0.107572
     38          8           0        3.723110   -2.501143   -1.488062
     39          6           0        4.650535   -0.380539    0.322189
     40          6           0        3.215707   -3.541040   -2.317965
     41          6           0        5.112009    0.619039    1.171292
     42         16           0        6.005887   -1.378670   -0.191656
     43          1           0        4.080673   -4.124308   -2.628507
     44          1           0        2.522076   -4.183777   -1.765979
     45          1           0        2.716787   -3.131181   -3.202186
     46          6           0        6.515089    0.587883    1.400532
     47          8           0        4.227805    1.506571    1.698351
     48          6           0        7.120207   -0.437254    0.728064
     49          1           0        7.049403    1.284877    2.029365
     50          6           0        4.735773    2.554580    2.517935
     51          1           0        8.168623   -0.693097    0.721672
     52          1           0        5.439725    3.182925    1.962944
     53          1           0        3.872513    3.149120    2.811406
     54          1           0        5.222497    2.154267    3.413162
 ---------------------------------------------------------------------

 The electronic state is 1-A.
 Alpha  occ. eigenvalues --  -88.88290 -88.88206 -19.17103 -19.16925 -19.12417
 Alpha  occ. eigenvalues --  -19.12391 -19.11800 -19.11723 -14.38578 -14.37999
 Alpha  occ. eigenvalues --  -10.31020 -10.30867 -10.30456 -10.30381 -10.24680
 Alpha  occ. eigenvalues --  -10.24567 -10.23909 -10.23743 -10.23545 -10.22798
 Alpha  occ. eigenvalues --  -10.22527 -10.22437 -10.22251 -10.22241 -10.22156
 Alpha  occ. eigenvalues --  -10.22033 -10.22023 -10.21652 -10.21515 -10.21122
 Alpha  occ. eigenvalues --  -10.21070 -10.21010 -10.20886 -10.20650 -10.19126
 Alpha  occ. eigenvalues --  -10.18882  -7.96843  -7.96762  -5.93153  -5.93086
 Alpha  occ. eigenvalues --   -5.92764  -5.92693  -5.92412  -5.92301  -1.08655
 Alpha  occ. eigenvalues --   -1.08652  -1.08478  -1.08171  -1.06851  -1.06312
 Alpha  occ. eigenvalues --   -0.96211  -0.95656  -0.92452  -0.90335  -0.88772
 Alpha  occ. eigenvalues --   -0.86667  -0.84235  -0.80493  -0.78412  -0.77611
 Alpha  occ. eigenvalues --   -0.76471  -0.75346  -0.75100  -0.73252  -0.72480
 Alpha  occ. eigenvalues --   -0.71506  -0.70532  -0.68892  -0.67065  -0.65853
 Alpha  occ. eigenvalues --   -0.65484  -0.64787  -0.60957  -0.59933  -0.58602
 Alpha  occ. eigenvalues --   -0.57424  -0.56775  -0.56346  -0.55084  -0.54845
 Alpha  occ. eigenvalues --   -0.53764  -0.51639  -0.50213  -0.49926  -0.49688
 Alpha  occ. eigenvalues --   -0.49426  -0.48790  -0.48684  -0.48498  -0.48449
 Alpha  occ. eigenvalues --   -0.48136  -0.47071  -0.46612  -0.46333  -0.45862
 Alpha  occ. eigenvalues --   -0.45553  -0.44934  -0.44708  -0.44267  -0.43845
 Alpha  occ. eigenvalues --   -0.42850  -0.42436  -0.42256  -0.41977  -0.41818
 Alpha  occ. eigenvalues --   -0.41673  -0.41294  -0.41108  -0.40601  -0.39926
 Alpha  occ. eigenvalues --   -0.39473  -0.39126  -0.38758  -0.37766  -0.37422
 Alpha  occ. eigenvalues --   -0.36478  -0.35933  -0.34232  -0.33945  -0.33668
 Alpha  occ. eigenvalues --   -0.33583  -0.32044  -0.30956  -0.30253  -0.29690
 Alpha  occ. eigenvalues --   -0.29269  -0.28774  -0.28710  -0.27968  -0.27496
 Alpha  occ. eigenvalues --   -0.26066  -0.24871  -0.24377  -0.19331
 Alpha virt. eigenvalues --   -0.13027  -0.07226  -0.06328  -0.04647  -0.03886
 Alpha virt. eigenvalues --   -0.00867  -0.00568  -0.00346  -0.00082   0.00429
 Alpha virt. eigenvalues --    0.00739   0.01082   0.01185   0.01559   0.01865

 Mulliken charges:
               1
     1  C    0.377173
     2  C   -0.112179
     3  C    0.105335
     4  C    0.241049
     5  C    0.234209
     6  C   -0.251180
     7  C    0.136319
     8  C    0.164011
     9  C    0.300638
    10  C   -0.453903
    11  C    0.295420
    12  C    0.090607
    13  C   -0.458093
    14  C   -0.579987
    15  H    0.159600
    16  H    0.161024
    17  H    0.161966
    18  N   -0.033247
    19  N   -0.144195
    20  O   -0.280162
    21  O   -0.270419
    22  O   -0.282352
    23  O   -0.206255
    24  C   -0.176704
    25  H    0.175905
    26  H    0.178133
    27  H    0.182055
    28  C   -0.196428
    29  H    0.173467
    30  H    0.174885
    31  H    0.182422
    32  C    0.329956
    33  C   -0.644956
    34  S   -0.596622
    35  C   -0.068818
    36  H    0.134700
    37  C    0.580983
    38  O   -0.134314
    39  C    0.881714
    40  C   -0.224485
    41  C    0.006453
    42  S   -0.260380
    43  H    0.166930
    44  H    0.151446
    45  H    0.148219
    46  C   -0.611484
    47  O   -0.135435
    48  C   -0.280227
    49  H    0.131280
    50  C   -0.241186
    51  H    0.160493
    52  H    0.146987
    53  H    0.165566
    54  H    0.144067
 Sum of Mulliken charges =  -0.00000

 Dipole moment (field-independent basis, Debye):
    X=              3.9248    Y=             -0.5036    Z=              0.5517  Tot=              3.9953
 Quadrupole moment (field-independent basis, Debye-Ang):
   XX=           -214.4229   YY=           -219.9966   ZZ=           -214.5052
   XY=              9.2881   XZ=             10.9488   YZ=             14.4486

 Normal termination of Gaussian 16 at Thu Nov 26 08:34:04 2020.
