 Gaussian 16, Revision C.01,
 Gaussian 16:  ES64L-G16RevC.01  3-Jul-2019

 -------------------------------------
 # opt=modredundant b3lyp/6-311+g(d,p)
 -------------------------------------

 -----------
 NDI_135.pdb
 -----------
 Symbolic Z-matrix:
 Charge =  0 Multiplicity = 1

 SCF Done:  E(RB3LYP) =  -2359.32695356     A.U. after   17 cycles
 SCF Done:  E(RB3LYP) =  -2359.32484987     A.U. after   17 cycles
 SCF Done:  E(RB3LYP) =  -2359.33278956     A.U. after   14 cycles
 SCF Done:  E(RB3LYP) =  -2359.33528680     A.U. after   16 cycles
 SCF Done:  E(RB3LYP) =  -2359.33605921     A.U. after   16 cycles
 SCF Done:  E(RB3LYP) =  -2359.33644165     A.U. after   13 cycles
 SCF Done:  E(RB3LYP) =  -2359.33649178     A.U. after   14 cycles
 SCF Done:  E(RB3LYP) =  -2359.33656527     A.U. after   12 cycles
 SCF Done:  E(RB3LYP) =  -2359.33658302     A.U. after   11 cycles
 SCF Done:  E(RB3LYP) =  -2359.33659849     A.U. after   11 cycles
 SCF Done:  E(RB3LYP) =  -2359.33665365     A.U. after   11 cycles
 SCF Done:  E(RB3LYP) =  -2359.33665646     A.U. after   11 cycles
 SCF Done:  E(RB3LYP) =  -2359.33665798     A.U. after   10 cycles
 SCF Done:  E(RB3LYP) =  -2359.33665854     A.U. after    9 cycles
 SCF Done:  E(RB3LYP) =  -2359.33665923     A.U. after   10 cycles
 SCF Done:  E(RB3LYP) =  -2359.33666003     A.U. after   10 cycles
 SCF Done:  E(RB3LYP) =  -2359.33666032     A.U. after    9 cycles
 SCF Done:  E(RB3LYP) =  -2359.33666067     A.U. after   10 cycles
 SCF Done:  E(RB3LYP) =  -2359.33666078     A.U. after   10 cycles
 SCF Done:  E(RB3LYP) =  -2359.33666080     A.U. after    9 cycles
 Optimization completed.
    -- Stationary point found.

                         Standard orientation:
 ---------------------------------------------------------------------
 Center     Atomic      Atomic             Coordinates (Angstroms)
 Number     Number       Type             X           Y           Z
 ---------------------------------------------------------------------
      1          6           0        3.522478   -2.694873    0.427931
      2          6           0        2.768200   -1.450686    0.124784
      3          6           0        3.427927   -0.199826    0.123789
      4          6           0        4.803162   -0.108963    0.425039
      5          6           0        5.583723   -1.333449    0.748395
      6          6           0        1.416914   -1.515438   -0.117141
      7          6           0        2.684970    0.968737   -0.197415
      8          6           0        1.297652    0.878586   -0.501276
      9          6           0        0.638112   -0.358645   -0.394081
     10          6           0        0.629933    2.087740   -1.059633
     11          6           0        2.640173    3.464835   -0.534352
     12          6           0        3.362609    2.212593   -0.199810
     13          6           0        4.711618    2.281139    0.110674
     14          6           0        5.436273    1.123208    0.421250
     15          1           0        6.491374    1.171503    0.658329
     16          1           0        5.191159    3.251878    0.106009
     17          1           0        0.926218   -2.478066   -0.050674
     18          7           0        1.310771    3.314220   -0.936260
     19          7           0        4.883845   -2.552136    0.722780
     20          8           0        3.004718   -3.796578    0.426021
     21          8           0        6.768930   -1.292171    1.019154
     22          8           0        3.173922    4.559060   -0.486991
     23          8           0       -0.442202    2.061621   -1.631372
     24          6           0        0.588126    4.505993   -1.403188
     25          1           0        0.524658    4.508693   -2.493021
     26          1           0       -0.422606    4.492391   -0.999700
     27          1           0        1.132934    5.381054   -1.062520
     28          6           0        5.616509   -3.789803    1.027205
     29          1           0        5.164543   -4.282261    1.888420
     30          1           0        5.563160   -4.468003    0.175273
     31          1           0        6.647438   -3.524203    1.238216
     32          6           0       -0.808568   -0.570325   -0.485939
     33          6           0       -1.444891   -1.560298   -1.203212
     34         16           0       -1.942972    0.337071    0.473485
     35          6           0       -2.844885   -1.564622   -1.012525
     36          1           0       -0.918544   -2.231555   -1.866597
     37          6           0       -3.300668   -0.604061   -0.112955
     38          8           0       -3.740794   -2.398903   -1.605594
     39          6           0       -4.651409   -0.379549    0.326044
     40          6           0       -3.241960   -3.392820   -2.494702
     41          6           0       -5.104494    0.574389    1.229773
     42         16           0       -6.016004   -1.330680   -0.248356
     43          1           0       -4.112400   -3.945406   -2.843745
     44          1           0       -2.733640   -2.936555   -3.350390
     45          1           0       -2.559024   -4.076516   -1.979789
     46          6           0       -6.508730    0.546160    1.453110
     47          8           0       -4.211924    1.420358    1.809771
     48          6           0       -7.123251   -0.431337    0.721018
     49          1           0       -7.037207    1.211933    2.119607
     50          6           0       -4.711095    2.423912    2.687932
     51          1           0       -8.174471   -0.674173    0.696546
     52          1           0       -5.204838    1.977384    3.557125
     53          1           0       -3.842498    2.991010    3.017844
     54          1           0       -5.406722    3.091362    2.169183
 ---------------------------------------------------------------------

 The electronic state is 1-A.
 Alpha  occ. eigenvalues --  -88.88190 -88.88144 -19.17002 -19.16851 -19.12461
 Alpha  occ. eigenvalues --  -19.12428 -19.11875 -19.11802 -14.38619 -14.38064
 Alpha  occ. eigenvalues --  -10.31067 -10.30906 -10.30526 -10.30459 -10.24555
 Alpha  occ. eigenvalues --  -10.24487 -10.23840 -10.23690 -10.23553 -10.22865
 Alpha  occ. eigenvalues --  -10.22611 -10.22538 -10.22316 -10.22312 -10.22123
 Alpha  occ. eigenvalues --  -10.22015 -10.21950 -10.21553 -10.21549 -10.21207
 Alpha  occ. eigenvalues --  -10.21155 -10.21040 -10.20772 -10.20689 -10.19038
 Alpha  occ. eigenvalues --  -10.18787  -7.96744  -7.96701  -5.93053  -5.93025
 Alpha  occ. eigenvalues --   -5.92664  -5.92633  -5.92312  -5.92239  -1.08697
 Alpha  occ. eigenvalues --   -1.08547  -1.08399  -1.08241  -1.06895  -1.06388
 Alpha  occ. eigenvalues --   -0.96254  -0.95721  -0.92516  -0.90260  -0.88701
 Alpha  occ. eigenvalues --   -0.86701  -0.84301  -0.80481  -0.78471  -0.77562
 Alpha  occ. eigenvalues --   -0.76407  -0.75268  -0.75135  -0.73182  -0.72518
 Alpha  occ. eigenvalues --   -0.71534  -0.70459  -0.68865  -0.67111  -0.65904
 Alpha  occ. eigenvalues --   -0.65515  -0.64819  -0.60928  -0.59881  -0.58607
 Alpha  occ. eigenvalues --   -0.57454  -0.56766  -0.56263  -0.55109  -0.54776
 Alpha  occ. eigenvalues --   -0.53783  -0.51688  -0.50239  -0.49921  -0.49725
 Alpha  occ. eigenvalues --   -0.49457  -0.48719  -0.48689  -0.48506  -0.48415
 Alpha  occ. eigenvalues --   -0.48086  -0.47124  -0.46633  -0.46370  -0.45837
 Alpha  occ. eigenvalues --   -0.45495  -0.44966  -0.44751  -0.44306  -0.43893
 Alpha  occ. eigenvalues --   -0.42834  -0.42430  -0.42282  -0.41947  -0.41856
 Alpha  occ. eigenvalues --   -0.41594  -0.41328  -0.41143  -0.40626  -0.39950
 Alpha  occ. eigenvalues --   -0.39498  -0.39092  -0.38710  -0.37762  -0.37413
 Alpha  occ. eigenvalues --   -0.36400  -0.35869  -0.34169  -0.33858  -0.33611
 Alpha  occ. eigenvalues --   -0.33548  -0.32114  -0.31001  -0.30254  -0.29707
 Alpha  occ. eigenvalues --   -0.29272  -0.28824  -0.28737  -0.28027  -0.27511
 Alpha  occ. eigenvalues --   -0.26121  -0.24802  -0.24332  -0.19259
 Alpha virt. eigenvalues --   -0.13076  -0.07158  -0.06329  -0.04707  -0.03946
 Alpha virt. eigenvalues --   -0.00873  -0.00553  -0.00333  -0.00042   0.00470
 Alpha virt. eigenvalues --    0.00728   0.01055   0.01160   0.01505   0.01876

 Mulliken charges:
               1
     1  C    0.381574
     2  C   -0.118680
     3  C    0.106170
     4  C    0.233605
     5  C    0.238015
     6  C   -0.306113
     7  C    0.140146
     8  C    0.145433
     9  C    0.312352
    10  C   -0.444587
    11  C    0.287311
    12  C    0.096528
    13  C   -0.448221
    14  C   -0.585979
    15  H    0.159892
    16  H    0.161226
    17  H    0.162039
    18  N   -0.038558
    19  N   -0.143702
    20  O   -0.278752
    21  O   -0.270735
    22  O   -0.281613
    23  O   -0.200475
    24  C   -0.175209
    25  H    0.178194
    26  H    0.176535
    27  H    0.182163
    28  C   -0.197181
    29  H    0.175018
    30  H    0.173661
    31  H    0.182517
    32  C    0.383780
    33  C   -0.612746
    34  S   -0.556766
    35  C   -0.085990
    36  H    0.132479
    37  C    0.525194
    38  O   -0.132790
    39  C    0.873987
    40  C   -0.224301
    41  C    0.012318
    42  S   -0.264465
    43  H    0.166655
    44  H    0.148401
    45  H    0.150886
    46  C   -0.603939
    47  O   -0.137059
    48  C   -0.284183
    49  H    0.130936
    50  C   -0.240529
    51  H    0.160004
    52  H    0.143803
    53  H    0.165202
    54  H    0.146551
 Sum of Mulliken charges =  -0.00000

 Dipole moment (field-independent basis, Debye):
    X=             -3.6476    Y=             -0.4381    Z=              0.4968  Tot=              3.7072
 Quadrupole moment (field-independent basis, Debye-Ang):
   XX=           -215.1491   YY=           -221.3617   ZZ=           -212.7905
   XY=             -8.9302   XZ=            -10.8281   YZ=             14.8109

 Normal termination of Gaussian 16 at Thu Nov 26 12:49:48 2020.
