 Gaussian 16, Revision C.01,
 Gaussian 16:  ES64L-G16RevC.01  3-Jul-2019

 -------------------------------------
 # opt=modredundant b3lyp/6-311+g(d,p)
 -------------------------------------

 ------------
 NDI_-115.pdb
 ------------
 Symbolic Z-matrix:
 Charge =  0 Multiplicity = 1

 SCF Done:  E(RB3LYP) =  -2359.32905803     A.U. after   17 cycles
 SCF Done:  E(RB3LYP) =  -2359.33375173     A.U. after   18 cycles
 SCF Done:  E(RB3LYP) =  -2359.33448581     A.U. after   15 cycles
 SCF Done:  E(RB3LYP) =  -2359.33511287     A.U. after   14 cycles
 SCF Done:  E(RB3LYP) =  -2359.33535632     A.U. after   15 cycles
 SCF Done:  E(RB3LYP) =  -2359.33546631     A.U. after   14 cycles
 SCF Done:  E(RB3LYP) =  -2359.33550959     A.U. after   15 cycles
 SCF Done:  E(RB3LYP) =  -2359.33553581     A.U. after   12 cycles
 SCF Done:  E(RB3LYP) =  -2359.33554459     A.U. after   12 cycles
 SCF Done:  E(RB3LYP) =  -2359.33555250     A.U. after   12 cycles
 SCF Done:  E(RB3LYP) =  -2359.33558444     A.U. after   13 cycles
 SCF Done:  E(RB3LYP) =  -2359.33558736     A.U. after   12 cycles
 SCF Done:  E(RB3LYP) =  -2359.33553889     A.U. after   11 cycles
 SCF Done:  E(RB3LYP) =  -2359.33553937     A.U. after   10 cycles
 SCF Done:  E(RB3LYP) =  -2359.33557958     A.U. after   12 cycles
 SCF Done:  E(RB3LYP) =  -2359.33558693     A.U. after   12 cycles
 SCF Done:  E(RB3LYP) =  -2359.33554001     A.U. after   11 cycles
 SCF Done:  E(RB3LYP) =  -2359.33553895     A.U. after   11 cycles
 SCF Done:  E(RB3LYP) =  -2359.33553986     A.U. after   10 cycles
 SCF Done:  E(RB3LYP) =  -2359.33554000     A.U. after    9 cycles
 Optimization completed.
    -- Stationary point found.

                         Standard orientation:
 ---------------------------------------------------------------------
 Center     Atomic      Atomic             Coordinates (Angstroms)
 Number     Number       Type             X           Y           Z
 ---------------------------------------------------------------------
      1          6           0       -3.499186   -2.727278    0.401514
      2          6           0       -2.756586   -1.469849    0.123344
      3          6           0       -3.433586   -0.229774    0.117000
      4          6           0       -4.818149   -0.161927    0.387455
      5          6           0       -5.588044   -1.400528    0.683730
      6          6           0       -1.399645   -1.512915   -0.103693
      7          6           0       -2.703350    0.954454   -0.174788
      8          6           0       -1.309013    0.887427   -0.448800
      9          6           0       -0.640836   -0.341870   -0.360172
     10          6           0       -0.621911    2.127075   -0.916592
     11          6           0       -2.685502    3.456989   -0.476857
     12          6           0       -3.398314    2.188620   -0.179074
     13          6           0       -4.754667    2.233183    0.096866
     14          6           0       -5.468442    1.059682    0.378560
     15          1           0       -6.529610    1.089932    0.590658
     16          1           0       -5.249865    3.195988    0.089923
     17          1           0       -0.892270   -2.468151   -0.055381
     18          7           0       -1.336210    3.336208   -0.817822
     19          7           0       -4.869352   -2.607309    0.666882
     20          8           0       -2.964805   -3.820353    0.404078
     21          8           0       -6.779777   -1.377490    0.926224
     22          8           0       -3.243065    4.539209   -0.443514
     23          8           0        0.496317    2.138121   -1.389586
     24          6           0       -0.606127    4.550018   -1.212230
     25          1           0        0.355068    4.573487   -0.701437
     26          1           0       -0.424730    4.547867   -2.288345
     27          1           0       -1.212909    5.407387   -0.938397
     28          6           0       -5.589218   -3.858414    0.946789
     29          1           0       -5.505124   -4.530182    0.092311
     30          1           0       -5.149523   -4.348951    1.815390
     31          1           0       -6.628862   -3.610480    1.135285
     32          6           0        0.814834   -0.525193   -0.498697
     33          6           0        1.474255   -1.212068   -1.485824
     34         16           0        1.919895    0.110900    0.684527
     35          6           0        2.881353   -1.207972   -1.306641
     36          1           0        0.965519   -1.669299   -2.322349
     37          6           0        3.310722   -0.540191   -0.167009
     38          8           0        3.799950   -1.787913   -2.126908
     39          6           0        4.658689   -0.395480    0.319568
     40          6           0        3.326947   -2.490081   -3.270770
     41          6           0        5.084609    0.271915    1.459933
     42         16           0        6.052230   -1.079632   -0.507723
     43          1           0        4.212768   -2.877550   -3.771039
     44          1           0        2.677902   -3.323798   -2.982860
     45          1           0        2.789570   -1.820691   -3.950570
     46          6           0        6.492176    0.239245    1.665129
     47          8           0        4.165436    0.875664    2.263283
     48          6           0        7.136870   -0.455626    0.680374
     49          1           0        7.001470    0.704638    2.496366
     50          6           0        4.637616    1.601798    3.392229
     51          1           0        8.196582   -0.635174    0.584285
     52          1           0        5.300195    2.418688    3.087898
     53          1           0        3.752829    2.013889    3.874477
     54          1           0        5.160508    0.944472    4.094796
 ---------------------------------------------------------------------

 The electronic state is 1-A.
 Alpha  occ. eigenvalues --  -88.87838 -88.87734 -19.16529 -19.16471 -19.12681
 Alpha  occ. eigenvalues --  -19.12628 -19.12226 -19.12166 -14.38824 -14.38387
 Alpha  occ. eigenvalues --  -10.31299 -10.31107 -10.30862 -10.30823 -10.24052
 Alpha  occ. eigenvalues --  -10.23988 -10.23691 -10.23505 -10.23419 -10.23200
 Alpha  occ. eigenvalues --  -10.23044 -10.22987 -10.22650 -10.22603 -10.22537
 Alpha  occ. eigenvalues --  -10.21712 -10.21615 -10.21602 -10.21535 -10.21358
 Alpha  occ. eigenvalues --  -10.21199 -10.21074 -10.20879 -10.20257 -10.18612
 Alpha  occ. eigenvalues --  -10.18350  -7.96390  -7.96288  -5.92715  -5.92598
 Alpha  occ. eigenvalues --   -5.92324  -5.92209  -5.91926  -5.91857  -1.08916
 Alpha  occ. eigenvalues --   -1.08595  -1.08067  -1.07987  -1.07115  -1.06758
 Alpha  occ. eigenvalues --   -0.96478  -0.96036  -0.92819  -0.89912  -0.88392
 Alpha  occ. eigenvalues --   -0.86815  -0.84608  -0.80457  -0.78756  -0.77323
 Alpha  occ. eigenvalues --   -0.76082  -0.75396  -0.74808  -0.72913  -0.72654
 Alpha  occ. eigenvalues --   -0.71663  -0.70114  -0.68725  -0.67343  -0.66164
 Alpha  occ. eigenvalues --   -0.65685  -0.64962  -0.60825  -0.59646  -0.58604
 Alpha  occ. eigenvalues --   -0.57639  -0.56678  -0.55859  -0.55323  -0.54377
 Alpha  occ. eigenvalues --   -0.53878  -0.51918  -0.50420  -0.50042  -0.49875
 Alpha  occ. eigenvalues --   -0.49398  -0.48831  -0.48718  -0.48341  -0.48081
 Alpha  occ. eigenvalues --   -0.47784  -0.47423  -0.46800  -0.46532  -0.45657
 Alpha  occ. eigenvalues --   -0.45309  -0.45034  -0.44909  -0.44500  -0.44069
 Alpha  occ. eigenvalues --   -0.42920  -0.42584  -0.42202  -0.42141  -0.41700
 Alpha  occ. eigenvalues --   -0.41524  -0.41320  -0.41137  -0.40732  -0.40101
 Alpha  occ. eigenvalues --   -0.39729  -0.38927  -0.38407  -0.37801  -0.37191
 Alpha  occ. eigenvalues --   -0.36021  -0.35680  -0.33885  -0.33461  -0.33314
 Alpha  occ. eigenvalues --   -0.33250  -0.32456  -0.31219  -0.30363  -0.29851
 Alpha  occ. eigenvalues --   -0.29326  -0.29091  -0.28804  -0.28365  -0.27445
 Alpha  occ. eigenvalues --   -0.26444  -0.24453  -0.24049  -0.18906
 Alpha virt. eigenvalues --   -0.13328  -0.07116  -0.06200  -0.04950  -0.04233
 Alpha virt. eigenvalues --   -0.00979  -0.00356  -0.00192   0.00154   0.00607
 Alpha virt. eigenvalues --    0.00703   0.00929   0.01059   0.01250   0.01809

 Mulliken charges:
               1
     1  C    0.389538
     2  C   -0.058769
     3  C    0.136135
     4  C    0.207473
     5  C    0.257179
     6  C   -0.452513
     7  C    0.163791
     8  C    0.034037
     9  C    0.303022
    10  C   -0.379420
    11  C    0.281708
    12  C    0.141537
    13  C   -0.457575
    14  C   -0.619459
    15  H    0.161177
    16  H    0.162307
    17  H    0.161929
    18  N   -0.082597
    19  N   -0.142803
    20  O   -0.272958
    21  O   -0.271345
    22  O   -0.276986
    23  O   -0.160481
    24  C   -0.181813
    25  H    0.178748
    26  H    0.178315
    27  H    0.182885
    28  C   -0.199630
    29  H    0.174543
    30  H    0.175708
    31  H    0.182910
    32  C    0.477793
    33  C   -0.492844
    34  S   -0.363037
    35  C   -0.184105
    36  H    0.120095
    37  C    0.338416
    38  O   -0.129662
    39  C    0.847796
    40  C   -0.223768
    41  C    0.017181
    42  S   -0.279085
    43  H    0.165577
    44  H    0.148132
    45  H    0.148580
    46  C   -0.562910
    47  O   -0.142394
    48  C   -0.302826
    49  H    0.129364
    50  C   -0.237532
    51  H    0.157890
    52  H    0.144929
    53  H    0.163236
    54  H    0.142578
 Sum of Mulliken charges =  -0.00000

 Dipole moment (field-independent basis, Debye):
    X=              2.3523    Y=             -0.1412    Z=              0.2219  Tot=              2.3669
 Quadrupole moment (field-independent basis, Debye-Ang):
   XX=           -218.3291   YY=           -228.3345   ZZ=           -204.2605
   XY=              7.0696   XZ=             10.4657   YZ=             13.0960

 Normal termination of Gaussian 16 at Thu Nov 26 07:44:43 2020.
