 Gaussian 16, Revision C.01,
 Gaussian 16:  ES64L-G16RevC.01  3-Jul-2019

 -------------------------------------
 # opt=modredundant b3lyp/6-311+g(d,p)
 -------------------------------------

 -----------
 NDI_-90.pdb
 -----------
 Symbolic Z-matrix:
 Charge =  0 Multiplicity = 1

 SCF Done:  E(RB3LYP) =  -2359.32980594     A.U. after   22 cycles
 SCF Done:  E(RB3LYP) =  -2359.33372070     A.U. after   15 cycles
 SCF Done:  E(RB3LYP) =  -2359.33413062     A.U. after   14 cycles
 SCF Done:  E(RB3LYP) =  -2359.33415253     A.U. after   14 cycles
 SCF Done:  E(RB3LYP) =  -2359.33425550     A.U. after   13 cycles
 SCF Done:  E(RB3LYP) =  -2359.33425941     A.U. after   12 cycles
 SCF Done:  E(RB3LYP) =  -2359.33426785     A.U. after   11 cycles
 SCF Done:  E(RB3LYP) =  -2359.33426917     A.U. after   11 cycles
 SCF Done:  E(RB3LYP) =  -2359.33427017     A.U. after   10 cycles
 SCF Done:  E(RB3LYP) =  -2359.33427075     A.U. after   10 cycles
 SCF Done:  E(RB3LYP) =  -2359.33427113     A.U. after    9 cycles
 SCF Done:  E(RB3LYP) =  -2359.33427169     A.U. after   10 cycles
 SCF Done:  E(RB3LYP) =  -2359.33427220     A.U. after    9 cycles
 SCF Done:  E(RB3LYP) =  -2359.33427274     A.U. after    9 cycles
 SCF Done:  E(RB3LYP) =  -2359.33427316     A.U. after   10 cycles
 SCF Done:  E(RB3LYP) =  -2359.33427336     A.U. after    9 cycles
 SCF Done:  E(RB3LYP) =  -2359.33427343     A.U. after    9 cycles
 SCF Done:  E(RB3LYP) =  -2359.33427345     A.U. after    9 cycles
 SCF Done:  E(RB3LYP) =  -2359.33427346     A.U. after    9 cycles
 Optimization completed.
    -- Stationary point found.

                         Standard orientation:
 ---------------------------------------------------------------------
 Center     Atomic      Atomic             Coordinates (Angstroms)
 Number     Number       Type             X           Y           Z
 ---------------------------------------------------------------------
      1          6           0        3.195246   -2.856197    0.319365
      2          6           0        2.592397   -1.498757    0.239739
      3          6           0        3.404569   -0.372991   -0.015923
      4          6           0        4.797993   -0.517363   -0.205349
      5          6           0        5.432563   -1.862290   -0.134698
      6          6           0        1.235894   -1.340694    0.417883
      7          6           0        2.803691    0.913406   -0.084586
      8          6           0        1.401321    1.059426    0.107831
      9          6           0        0.613882   -0.067867    0.365832
     10          6           0        0.807916    2.429743    0.025109
     11          6           0        3.060994    3.397037   -0.443769
     12          6           0        3.634214    2.029624   -0.350719
     13          6           0        4.996130    1.865420   -0.533632
     14          6           0        5.581796    0.592602   -0.460571
     15          1           0        6.646795    0.460338   -0.603399
     16          1           0        5.597915    2.742432   -0.735853
     17          1           0        0.627751   -2.215379    0.610846
     18          7           0        1.680157    3.497359   -0.258324
     19          7           0        4.579672   -2.946870    0.123823
     20          8           0        2.538242   -3.854757    0.542769
     21          8           0        6.628308   -2.019651   -0.291775
     22          8           0        3.750541    4.374515   -0.669747
     23          8           0       -0.372168    2.661675    0.185610
     24          6           0        1.056959    4.826813   -0.344647
     25          1           0        0.279003    4.817541   -1.107659
     26          1           0        0.598246    5.083521    0.610606
     27          1           0        1.833283    5.541984   -0.596899
     28          6           0        5.160327   -4.295530    0.203203
     29          1           0        4.966342   -4.722100    1.187509
     30          1           0        4.700346   -4.938016   -0.547750
     31          1           0        6.228160   -4.210163    0.029152
     32          6           0       -0.851761   -0.042494    0.587007
     33          6           0       -1.517916    0.101513    1.771982
     34         16           0       -1.941865   -0.370135   -0.727416
     35          6           0       -2.927211   -0.020765    1.623399
     36          1           0       -1.017532    0.306262    2.707371
     37          6           0       -3.346035   -0.277345    0.328405
     38          8           0       -3.851326    0.080504    2.619935
     39          6           0       -4.694458   -0.444771   -0.155910
     40          6           0       -3.401880    0.473926    3.910934
     41          6           0       -5.106090   -0.721432   -1.450948
     42         16           0       -6.105087   -0.306022    0.884832
     43          1           0       -4.294327    0.540459    4.531049
     44          1           0       -2.720717   -0.270076    4.337813
     45          1           0       -2.907658    1.450443    3.876586
     46          6           0       -6.517444   -0.818626   -1.608459
     47          8           0       -4.171286   -0.873570   -2.432130
     48          6           0       -7.179512   -0.615902   -0.430302
     49          1           0       -7.016770   -1.028217   -2.543228
     50          6           0       -4.626208   -1.146351   -3.751637
     51          1           0       -8.244656   -0.634459   -0.258662
     52          1           0       -5.256120   -0.334006   -4.129370
     53          1           0       -3.731355   -1.225139   -4.366871
     54          1           0       -5.179025   -2.090880   -3.792917
 ---------------------------------------------------------------------

 The electronic state is 1-A.
 Alpha  occ. eigenvalues --  -88.87626 -88.87307 -19.16075 -19.16049 -19.12923
 Alpha  occ. eigenvalues --  -19.12852 -19.12603 -19.12533 -14.39049 -14.38758
 Alpha  occ. eigenvalues --  -10.31551 -10.31330 -10.31246 -10.31208 -10.23949
 Alpha  occ. eigenvalues --  -10.23586 -10.23572 -10.23538 -10.23464 -10.23350
 Alpha  occ. eigenvalues --  -10.23165 -10.23129 -10.22995 -10.22945 -10.22905
 Alpha  occ. eigenvalues --  -10.21989 -10.21902 -10.21889 -10.21371 -10.21324
 Alpha  occ. eigenvalues --  -10.21124 -10.20759 -10.20625 -10.19778 -10.18184
 Alpha  occ. eigenvalues --  -10.17939  -7.96166  -7.95861  -5.92493  -5.92171
 Alpha  occ. eigenvalues --   -5.92100  -5.91783  -5.91706  -5.91430  -1.09160
 Alpha  occ. eigenvalues --   -1.08986  -1.07607  -1.07533  -1.07362  -1.07158
 Alpha  occ. eigenvalues --   -0.96727  -0.96377  -0.93139  -0.89642  -0.88167
 Alpha  occ. eigenvalues --   -0.86845  -0.84924  -0.80509  -0.79062  -0.77086
 Alpha  occ. eigenvalues --   -0.75788  -0.75611  -0.74398  -0.73037  -0.72493
 Alpha  occ. eigenvalues --   -0.71791  -0.69767  -0.68611  -0.67590  -0.66454
 Alpha  occ. eigenvalues --   -0.65932  -0.65061  -0.60833  -0.59437  -0.58562
 Alpha  occ. eigenvalues --   -0.57866  -0.56519  -0.55689  -0.55442  -0.53999
 Alpha  occ. eigenvalues --   -0.53912  -0.52149  -0.50662  -0.50287  -0.50141
 Alpha  occ. eigenvalues --   -0.49109  -0.49070  -0.48882  -0.48039  -0.47814
 Alpha  occ. eigenvalues --   -0.47652  -0.47455  -0.47039  -0.46662  -0.45565
 Alpha  occ. eigenvalues --   -0.45356  -0.45114  -0.44887  -0.44620  -0.44102
 Alpha  occ. eigenvalues --   -0.43088  -0.42885  -0.42513  -0.42022  -0.41847
 Alpha  occ. eigenvalues --   -0.41570  -0.41166  -0.41013  -0.40648  -0.40288
 Alpha  occ. eigenvalues --   -0.40037  -0.38868  -0.38137  -0.37855  -0.36832
 Alpha  occ. eigenvalues --   -0.35823  -0.35464  -0.33594  -0.33219  -0.33024
 Alpha  occ. eigenvalues --   -0.32838  -0.32722  -0.31458  -0.30571  -0.30073
 Alpha  occ. eigenvalues --   -0.29565  -0.29392  -0.28903  -0.28771  -0.27128
 Alpha  occ. eigenvalues --   -0.26845  -0.24094  -0.23747  -0.18548
 Alpha virt. eigenvalues --   -0.13603  -0.07319  -0.06184  -0.05135  -0.04366
 Alpha virt. eigenvalues --   -0.01150  -0.00007   0.00015   0.00234   0.00472
 Alpha virt. eigenvalues --    0.00681   0.00755   0.01048   0.01173   0.01706

 Mulliken charges:
               1
     1  C    0.396574
     2  C    0.036745
     3  C    0.225041
     4  C    0.202987
     5  C    0.263522
     6  C   -0.624150
     7  C    0.192993
     8  C    0.004539
     9  C    0.548859
    10  C   -0.421202
    11  C    0.188121
    12  C    0.202260
    13  C   -0.506891
    14  C   -0.623900
    15  H    0.162262
    16  H    0.163187
    17  H    0.167503
    18  N   -0.167615
    19  N   -0.147870
    20  O   -0.266657
    21  O   -0.268364
    22  O   -0.268151
    23  O   -0.087541
    24  C   -0.216644
    25  H    0.178764
    26  H    0.175798
    27  H    0.183909
    28  C   -0.200797
    29  H    0.175830
    30  H    0.175912
    31  H    0.182584
    32  C    0.151052
    33  C   -0.443054
    34  S   -0.103119
    35  C   -0.082652
    36  H    0.110384
    37  C    0.226671
    38  O   -0.141096
    39  C    0.783495
    40  C   -0.229811
    41  C    0.050976
    42  S   -0.286993
    43  H    0.164274
    44  H    0.141408
    45  H    0.152350
    46  C   -0.543219
    47  O   -0.150182
    48  C   -0.324794
    49  H    0.128070
    50  C   -0.235274
    51  H    0.156113
    52  H    0.143904
    53  H    0.162081
    54  H    0.141807
 Sum of Mulliken charges =  -0.00000

 Dipole moment (field-independent basis, Debye):
    X=             -1.0388    Y=              0.1508    Z=             -0.0356  Tot=              1.0503
 Quadrupole moment (field-independent basis, Debye-Ang):
   XX=           -222.0219   YY=           -232.5181   ZZ=           -197.6559
   XY=             -1.6627   XZ=              9.8341   YZ=              7.6091

 Normal termination of Gaussian 16 at Thu Nov 26 07:05:30 2020.
