 Gaussian 16, Revision C.01,
 Gaussian 16:  ES64L-G16RevC.01  3-Jul-2019

 -------------------------------------
 # opt=modredundant b3lyp/6-311+g(d,p)
 -------------------------------------

 ------------
 NDI_-150.pdb
 ------------
 Symbolic Z-matrix:
 Charge =  0 Multiplicity = 1

 SCF Done:  E(RB3LYP) =  -2359.31464341     A.U. after   17 cycles
 SCF Done:  E(RB3LYP) =  -2359.32372142     A.U. after   17 cycles
 SCF Done:  E(RB3LYP) =  -2359.33199098     A.U. after   16 cycles
 SCF Done:  E(RB3LYP) =  -2359.33467601     A.U. after   14 cycles
 SCF Done:  E(RB3LYP) =  -2359.33520309     A.U. after   13 cycles
 SCF Done:  E(RB3LYP) =  -2359.33536599     A.U. after   16 cycles
 SCF Done:  E(RB3LYP) =  -2359.33561529     A.U. after   13 cycles
 SCF Done:  E(RB3LYP) =  -2359.33566507     A.U. after   12 cycles
 SCF Done:  E(RB3LYP) =  -2359.33570851     A.U. after   12 cycles
 SCF Done:  E(RB3LYP) =  -2359.33572701     A.U. after   12 cycles
 SCF Done:  E(RB3LYP) =  -2359.33578568     A.U. after   10 cycles
 SCF Done:  E(RB3LYP) =  -2359.33578684     A.U. after   11 cycles
 SCF Done:  E(RB3LYP) =  -2359.33578726     A.U. after    9 cycles
 SCF Done:  E(RB3LYP) =  -2359.33578737     A.U. after    9 cycles
 SCF Done:  E(RB3LYP) =  -2359.33578743     A.U. after    8 cycles
 SCF Done:  E(RB3LYP) =  -2359.33578745     A.U. after    8 cycles
 SCF Done:  E(RB3LYP) =  -2359.33578747     A.U. after    8 cycles
 SCF Done:  E(RB3LYP) =  -2359.33578749     A.U. after    8 cycles
 SCF Done:  E(RB3LYP) =  -2359.33578750     A.U. after    8 cycles
 SCF Done:  E(RB3LYP) =  -2359.33578750     A.U. after    8 cycles
 Optimization completed.
    -- Stationary point found.

                         Standard orientation:
 ---------------------------------------------------------------------
 Center     Atomic      Atomic             Coordinates (Angstroms)
 Number     Number       Type             X           Y           Z
 ---------------------------------------------------------------------
      1          6           0       -3.414198   -2.684380    0.488570
      2          6           0       -2.730679   -1.386201    0.247009
      3          6           0       -3.482173   -0.198081    0.101193
      4          6           0       -4.889022   -0.226627    0.153663
      5          6           0       -5.606162   -1.508280    0.387585
      6          6           0       -1.365713   -1.351562    0.163740
      7          6           0       -2.781862    1.022350   -0.093887
      8          6           0       -1.353414    1.053723   -0.122183
      9          6           0       -0.608607   -0.152816   -0.050328
     10          6           0       -0.716160    2.380949   -0.221460
     11          6           0       -2.911207    3.498800   -0.547876
     12          6           0       -3.557570    2.194874   -0.281689
     13          6           0       -4.944564    2.145302   -0.244161
     14          6           0       -5.616643    0.941539   -0.016248
     15          1           0       -6.697448    0.900166    0.022906
     16          1           0       -5.491175    3.066699   -0.400585
     17          1           0       -0.844291   -2.285487    0.310753
     18          7           0       -1.515945    3.490557   -0.538502
     19          7           0       -4.811505   -2.657835    0.547237
     20          8           0       -2.811005   -3.733600    0.625326
     21          8           0       -6.819735   -1.570250    0.442651
     22          8           0       -3.544076    4.520038   -0.754880
     23          8           0        0.476468    2.564225   -0.034478
     24          6           0       -0.812519    4.767695   -0.722965
     25          1           0       -0.417193    5.124529    0.229861
     26          1           0        0.019728    4.623765   -1.409604
     27          1           0       -1.525737    5.483756   -1.119299
     28          6           0       -5.478498   -3.945854    0.785540
     29          1           0       -5.230761   -4.643193   -0.015219
     30          1           0       -5.133930   -4.368631    1.729395
     31          1           0       -6.548547   -3.767042    0.815825
     32          6           0        0.828021   -0.398062   -0.214862
     33          6           0        1.309277   -1.609060   -0.711797
     34         16           0        2.177084    0.606760    0.288998
     35          6           0        2.703971   -1.730481   -0.674111
     36          1           0        0.664305   -2.370844   -1.121789
     37          6           0        3.348564   -0.624882   -0.114224
     38          8           0        3.442798   -2.779493   -1.124063
     39          6           0        4.761567   -0.450449    0.080594
     40          6           0        2.750865   -3.926522   -1.608142
     41          6           0        5.414576    0.645926    0.636787
     42         16           0        5.952498   -1.665976   -0.373639
     43          1           0        3.520074   -4.646773   -1.880708
     44          1           0        2.107040   -4.354625   -0.833049
     45          1           0        2.152718   -3.682017   -2.492089
     46          6           0        6.829056    0.514391    0.695110
     47          8           0        4.685776    1.706396    1.063778
     48          6           0        7.252303   -0.682011    0.185787
     49          1           0        7.498291    1.262797    1.093466
     50          6           0        5.377006    2.836397    1.587823
     51          1           0        8.266777   -1.042249    0.108434
     52          1           0        6.049070    3.268385    0.839494
     53          1           0        4.607162    3.560926    1.846124
     54          1           0        5.943653    2.569652    2.485732
 ---------------------------------------------------------------------

 The electronic state is 1-A.
 Alpha  occ. eigenvalues --  -88.88429 -88.88211 -19.17123 -19.17056 -19.12317
 Alpha  occ. eigenvalues --  -19.12314 -19.11916 -19.11489 -14.38494 -14.37973
 Alpha  occ. eigenvalues --  -10.30902 -10.30784 -10.30353 -10.30074 -10.24895
 Alpha  occ. eigenvalues --  -10.24579 -10.23963 -10.23819 -10.23817 -10.22676
 Alpha  occ. eigenvalues --  -10.22362 -10.22350 -10.22206 -10.22041 -10.21999
 Alpha  occ. eigenvalues --  -10.21972 -10.21729 -10.21724 -10.21253 -10.21113
 Alpha  occ. eigenvalues --  -10.20959 -10.20789 -10.20729 -10.20617 -10.19073
 Alpha  occ. eigenvalues --  -10.19015  -7.96983  -7.96658  -5.93291  -5.92977
 Alpha  occ. eigenvalues --   -5.92903  -5.92566  -5.92553  -5.92218  -1.08754
 Alpha  occ. eigenvalues --   -1.08610  -1.08566  -1.08188  -1.06757  -1.06193
 Alpha  occ. eigenvalues --   -0.96124  -0.95634  -0.92196  -0.90270  -0.88749
 Alpha  occ. eigenvalues --   -0.86467  -0.84043  -0.80475  -0.78213  -0.77546
 Alpha  occ. eigenvalues --   -0.76514  -0.75400  -0.75059  -0.73302  -0.72412
 Alpha  occ. eigenvalues --   -0.71474  -0.70525  -0.68803  -0.66967  -0.65785
 Alpha  occ. eigenvalues --   -0.65395  -0.64759  -0.60904  -0.59926  -0.58606
 Alpha  occ. eigenvalues --   -0.57366  -0.56708  -0.56325  -0.55215  -0.54745
 Alpha  occ. eigenvalues --   -0.53637  -0.51486  -0.50092  -0.50004  -0.49500
 Alpha  occ. eigenvalues --   -0.49391  -0.48825  -0.48681  -0.48553  -0.48359
 Alpha  occ. eigenvalues --   -0.48113  -0.47133  -0.46623  -0.46191  -0.45989
 Alpha  occ. eigenvalues --   -0.45571  -0.45034  -0.44372  -0.44057  -0.43549
 Alpha  occ. eigenvalues --   -0.42945  -0.42501  -0.42166  -0.41870  -0.41693
 Alpha  occ. eigenvalues --   -0.41666  -0.41317  -0.41069  -0.40511  -0.39715
 Alpha  occ. eigenvalues --   -0.39427  -0.39135  -0.38927  -0.37634  -0.37164
 Alpha  occ. eigenvalues --   -0.36307  -0.35857  -0.34335  -0.34063  -0.33613
 Alpha  occ. eigenvalues --   -0.33104  -0.31972  -0.30814  -0.30102  -0.29826
 Alpha  occ. eigenvalues --   -0.29268  -0.28723  -0.28642  -0.27901  -0.27348
 Alpha  occ. eigenvalues --   -0.26002  -0.24802  -0.24419  -0.19522
 Alpha virt. eigenvalues --   -0.12769  -0.07441  -0.06376  -0.04391  -0.03738
 Alpha virt. eigenvalues --   -0.00767  -0.00531  -0.00379   0.00070   0.00475
 Alpha virt. eigenvalues --    0.00907   0.01152   0.01419   0.01755   0.01997

 Mulliken charges:
               1
     1  C    0.349757
     2  C    0.003049
     3  C    0.123358
     4  C    0.203071
     5  C    0.305636
     6  C   -0.296649
     7  C    0.134154
     8  C    0.307264
     9  C    0.288213
    10  C   -0.068191
    11  C    0.131306
    12  C    0.248812
    13  C   -0.473820
    14  C   -0.608980
    15  H    0.158075
    16  H    0.160588
    17  H    0.171960
    18  N   -0.145355
    19  N   -0.141976
    20  O   -0.284498
    21  O   -0.270204
    22  O   -0.281001
    23  O   -0.231241
    24  C   -0.217017
    25  H    0.175622
    26  H    0.174806
    27  H    0.183700
    28  C   -0.197612
    29  H    0.173180
    30  H    0.173897
    31  H    0.182825
    32  C   -0.233107
    33  C   -0.759809
    34  S   -0.243116
    35  C   -0.177108
    36  H    0.141113
    37  C    0.708174
    38  O   -0.138652
    39  C    0.769087
    40  C   -0.225034
    41  C    0.019629
    42  S   -0.274206
    43  H    0.167390
    44  H    0.152682
    45  H    0.146033
    46  C   -0.600671
    47  O   -0.122649
    48  C   -0.272655
    49  H    0.132090
    50  C   -0.244776
    51  H    0.161426
    52  H    0.146642
    53  H    0.171193
    54  H    0.143595
 Sum of Mulliken charges =  -0.00000

 Dipole moment (field-independent basis, Debye):
    X=              4.7878    Y=             -0.6676    Z=             -0.1115  Tot=              4.8354
 Quadrupole moment (field-independent basis, Debye-Ang):
   XX=           -212.6110   YY=           -216.3231   ZZ=           -219.0373
   XY=             12.4756   XZ=              4.3596   YZ=             11.5669

 Normal termination of Gaussian 16 at Thu Nov 26 07:19:25 2020.
