 Gaussian 16, Revision C.01,
 Gaussian 16:  ES64L-G16RevC.01  3-Jul-2019

 -------------------------------------
 # opt=modredundant b3lyp/6-311+g(d,p)
 -------------------------------------

 -----------
 NDI_-55.pdb
 -----------
 Symbolic Z-matrix:
 Charge =  0 Multiplicity = 1

 SCF Done:  E(RB3LYP) =  -2359.33603319     A.U. after   18 cycles
 SCF Done:  E(RB3LYP) =  -2359.33679807     A.U. after   16 cycles
 SCF Done:  E(RB3LYP) =  -2359.33740629     A.U. after   13 cycles
 SCF Done:  E(RB3LYP) =  -2359.33754212     A.U. after   14 cycles
 SCF Done:  E(RB3LYP) =  -2359.33759040     A.U. after   13 cycles
 SCF Done:  E(RB3LYP) =  -2359.33759839     A.U. after   12 cycles
 SCF Done:  E(RB3LYP) =  -2359.33760252     A.U. after   12 cycles
 SCF Done:  E(RB3LYP) =  -2359.33760485     A.U. after   12 cycles
 SCF Done:  E(RB3LYP) =  -2359.33760722     A.U. after   12 cycles
 SCF Done:  E(RB3LYP) =  -2359.33761047     A.U. after   13 cycles
 SCF Done:  E(RB3LYP) =  -2359.33761747     A.U. after   13 cycles
 SCF Done:  E(RB3LYP) =  -2359.33761966     A.U. after   12 cycles
 SCF Done:  E(RB3LYP) =  -2359.33762015     A.U. after   11 cycles
 SCF Done:  E(RB3LYP) =  -2359.33762041     A.U. after   10 cycles
 SCF Done:  E(RB3LYP) =  -2359.33762053     A.U. after    9 cycles
 SCF Done:  E(RB3LYP) =  -2359.33762062     A.U. after   11 cycles
 SCF Done:  E(RB3LYP) =  -2359.33762068     A.U. after   10 cycles
 SCF Done:  E(RB3LYP) =  -2359.33762072     A.U. after   10 cycles
 SCF Done:  E(RB3LYP) =  -2359.33762075     A.U. after    9 cycles
 SCF Done:  E(RB3LYP) =  -2359.33762076     A.U. after    9 cycles
 Optimization completed.
    -- Stationary point found.

                         Standard orientation:
 ---------------------------------------------------------------------
 Center     Atomic      Atomic             Coordinates (Angstroms)
 Number     Number       Type             X           Y           Z
 ---------------------------------------------------------------------
      1          6           0        2.669598   -2.939722    0.577544
      2          6           0        2.309177   -1.516790    0.338226
      3          6           0        3.315607   -0.554491    0.096605
      4          6           0        4.675070   -0.930235    0.071569
      5          6           0        5.071775   -2.342565    0.319846
      6          6           0        0.990315   -1.140444    0.365046
      7          6           0        2.931806    0.795265   -0.137470
      8          6           0        1.558083    1.178941   -0.094950
      9          6           0        0.569554    0.209564    0.186722
     10          6           0        1.220719    2.594921   -0.407759
     11          6           0        3.634763    3.139974   -0.737630
     12          6           0        3.958506    1.728905   -0.426960
     13          6           0        5.289204    1.339271   -0.447424
     14          6           0        5.654317    0.013032   -0.192698
     15          1           0        6.691663   -0.295596   -0.207466
     16          1           0        6.037441    2.088640   -0.672748
     17          1           0        0.249444   -1.901073    0.573612
     18          7           0        2.276584    3.460973   -0.751692
     19          7           0        4.032542   -3.257971    0.554734
     20          8           0        1.838759   -3.804110    0.785671
     21          8           0        6.235841   -2.696115    0.319110
     22          8           0        4.492756    3.971408   -0.978960
     23          8           0        0.089346    3.045084   -0.397914
     24          6           0        1.892165    4.839714   -1.086657
     25          1           0        1.142864    4.826060   -1.876950
     26          1           0        1.462212    5.332842   -0.213540
     27          1           0        2.786194    5.363758   -1.409243
     28          6           0        4.376531   -4.666144    0.798913
     29          1           0        4.010320   -4.969543    1.779941
     30          1           0        3.904001   -5.296044    0.044961
     31          1           0        5.456758   -4.759161    0.750389
     32          6           0       -0.874893    0.439215    0.292095
     33          6           0       -1.572452    1.322777    1.084052
     34         16           0       -1.968895   -0.691124   -0.481793
     35          6           0       -2.966501    1.116234    1.053590
     36          1           0       -1.089937    2.099093    1.655388
     37          6           0       -3.375920    0.064519    0.235394
     38          8           0       -3.903707    1.834742    1.728043
     39          6           0       -4.718977   -0.355967   -0.053444
     40          6           0       -3.473162    2.995452    2.434266
     41          6           0       -5.122846   -1.427348   -0.842641
     42         16           0       -6.138974    0.470131    0.577582
     43          1           0       -4.376315    3.453361    2.833774
     44          1           0       -2.806515    2.728421    3.260826
     45          1           0       -2.968510    3.698034    1.764010
     46          6           0       -6.533075   -1.581345   -0.939140
     47          8           0       -4.182485   -2.207957   -1.436581
     48          6           0       -7.201417   -0.626987   -0.223442
     49          1           0       -7.028031   -2.356605   -1.505456
     50          6           0       -4.622089   -3.316114   -2.216082
     51          1           0       -8.269043   -0.510813   -0.116836
     52          1           0       -5.226830   -2.984347   -3.066187
     53          1           0       -3.718576   -3.800823   -2.581320
     54          1           0       -5.194322   -4.023549   -1.607446
 ---------------------------------------------------------------------

 The electronic state is 1-A.
 Alpha  occ. eigenvalues --  -88.88321 -88.88284 -19.17087 -19.16738 -19.12393
 Alpha  occ. eigenvalues --  -19.12345 -19.11763 -19.11739 -14.38555 -14.38109
 Alpha  occ. eigenvalues --  -10.30998 -10.30821 -10.30601 -10.30346 -10.24686
 Alpha  occ. eigenvalues --  -10.24433 -10.23845 -10.23755 -10.23477 -10.22896
 Alpha  occ. eigenvalues --  -10.22660 -10.22528 -10.22231 -10.22225 -10.22144
 Alpha  occ. eigenvalues --  -10.21999 -10.21899 -10.21647 -10.21351 -10.21074
 Alpha  occ. eigenvalues --  -10.21017 -10.20993 -10.20893 -10.20688 -10.18880
 Alpha  occ. eigenvalues --  -10.18801  -7.96881  -7.96836  -5.93200  -5.93146
 Alpha  occ. eigenvalues --   -5.92811  -5.92757  -5.92427  -5.92405  -1.08641
 Alpha  occ. eigenvalues --   -1.08632  -1.08290  -1.08235  -1.06829  -1.06336
 Alpha  occ. eigenvalues --   -0.96205  -0.95676  -0.92408  -0.90289  -0.88733
 Alpha  occ. eigenvalues --   -0.86610  -0.84222  -0.80406  -0.78404  -0.77637
 Alpha  occ. eigenvalues --   -0.76362  -0.75251  -0.75134  -0.73128  -0.72417
 Alpha  occ. eigenvalues --   -0.71777  -0.70295  -0.68804  -0.67111  -0.65848
 Alpha  occ. eigenvalues --   -0.65563  -0.64651  -0.61052  -0.59822  -0.58570
 Alpha  occ. eigenvalues --   -0.57363  -0.56715  -0.56297  -0.55304  -0.54731
 Alpha  occ. eigenvalues --   -0.53476  -0.51653  -0.50221  -0.49867  -0.49738
 Alpha  occ. eigenvalues --   -0.49448  -0.48724  -0.48636  -0.48494  -0.48289
 Alpha  occ. eigenvalues --   -0.48089  -0.47034  -0.46559  -0.46262  -0.45840
 Alpha  occ. eigenvalues --   -0.45535  -0.44968  -0.44517  -0.44253  -0.43705
 Alpha  occ. eigenvalues --   -0.42716  -0.42511  -0.42345  -0.42000  -0.41829
 Alpha  occ. eigenvalues --   -0.41547  -0.41272  -0.41118  -0.40505  -0.39689
 Alpha  occ. eigenvalues --   -0.39638  -0.39189  -0.38777  -0.37646  -0.37454
 Alpha  occ. eigenvalues --   -0.36349  -0.35650  -0.34301  -0.33904  -0.33713
 Alpha  occ. eigenvalues --   -0.33392  -0.32124  -0.31000  -0.30322  -0.29808
 Alpha  occ. eigenvalues --   -0.29285  -0.28861  -0.28620  -0.28106  -0.27286
 Alpha  occ. eigenvalues --   -0.26122  -0.24645  -0.24507  -0.19331
 Alpha virt. eigenvalues --   -0.13051  -0.07166  -0.06392  -0.04646  -0.03914
 Alpha virt. eigenvalues --   -0.00891  -0.00394  -0.00298   0.00089   0.00497
 Alpha virt. eigenvalues --    0.00710   0.01096   0.01425   0.01485   0.01787

 Mulliken charges:
               1
     1  C    0.314027
     2  C   -0.009897
     3  C    0.088593
     4  C    0.253350
     5  C    0.213955
     6  C   -0.593071
     7  C    0.217747
     8  C    0.173304
     9  C    0.480478
    10  C   -0.247901
    11  C    0.385987
    12  C    0.106868
    13  C   -0.506002
    14  C   -0.662013
    15  H    0.159517
    16  H    0.161990
    17  H    0.185196
    18  N   -0.157047
    19  N   -0.143941
    20  O   -0.276344
    21  O   -0.268657
    22  O   -0.278757
    23  O   -0.191563
    24  C   -0.203403
    25  H    0.176021
    26  H    0.172723
    27  H    0.183386
    28  C   -0.197299
    29  H    0.174561
    30  H    0.173943
    31  H    0.182764
    32  C    0.098632
    33  C   -0.253982
    34  S   -0.509687
    35  C   -0.413959
    36  H    0.134466
    37  C    0.531843
    38  O   -0.120167
    39  C    0.913256
    40  C   -0.243961
    41  C   -0.044733
    42  S   -0.235925
    43  H    0.164868
    44  H    0.143967
    45  H    0.161362
    46  C   -0.491825
    47  O   -0.130828
    48  C   -0.281681
    49  H    0.131534
    50  C   -0.240453
    51  H    0.160706
    52  H    0.144997
    53  H    0.167189
    54  H    0.145868
 Sum of Mulliken charges =  -0.00000

 Dipole moment (field-independent basis, Debye):
    X=             -3.9784    Y=             -0.5103    Z=              0.0457  Tot=              4.0113
 Quadrupole moment (field-independent basis, Debye-Ang):
   XX=           -218.6536   YY=           -216.3674   ZZ=           -213.8157
   XY=              3.4173   XZ=              6.4552   YZ=             16.2522

 Normal termination of Gaussian 16 at Thu Nov 26 08:59:29 2020.
