 Gaussian 16, Revision C.01,
 Gaussian 16:  ES64L-G16RevC.01  3-Jul-2019

 -------------------------------------
 # opt=modredundant b3lyp/6-311+g(d,p)
 -------------------------------------

 -----------
 NDI_140.pdb
 -----------
 Symbolic Z-matrix:
 Charge =  0 Multiplicity = 1

 SCF Done:  E(RB3LYP) =  -2359.32362582     A.U. after   17 cycles
 SCF Done:  E(RB3LYP) =  -2359.32241945     A.U. after   19 cycles
 SCF Done:  E(RB3LYP) =  -2359.33029968     A.U. after   15 cycles
 SCF Done:  E(RB3LYP) =  -2359.33473004     A.U. after   17 cycles
 SCF Done:  E(RB3LYP) =  -2359.33545092     A.U. after   16 cycles
 SCF Done:  E(RB3LYP) =  -2359.33628712     A.U. after   13 cycles
 SCF Done:  E(RB3LYP) =  -2359.33647575     A.U. after   13 cycles
 SCF Done:  E(RB3LYP) =  -2359.33654720     A.U. after   13 cycles
 SCF Done:  E(RB3LYP) =  -2359.33661593     A.U. after   12 cycles
 SCF Done:  E(RB3LYP) =  -2359.33664752     A.U. after   12 cycles
 SCF Done:  E(RB3LYP) =  -2359.33671618     A.U. after   11 cycles
 SCF Done:  E(RB3LYP) =  -2359.33671693     A.U. after   10 cycles
 SCF Done:  E(RB3LYP) =  -2359.33671747     A.U. after   10 cycles
 SCF Done:  E(RB3LYP) =  -2359.33671808     A.U. after   10 cycles
 SCF Done:  E(RB3LYP) =  -2359.33671846     A.U. after    9 cycles
 SCF Done:  E(RB3LYP) =  -2359.33671879     A.U. after    9 cycles
 SCF Done:  E(RB3LYP) =  -2359.33671903     A.U. after   10 cycles
 SCF Done:  E(RB3LYP) =  -2359.33671913     A.U. after   10 cycles
 SCF Done:  E(RB3LYP) =  -2359.33671918     A.U. after    8 cycles
 SCF Done:  E(RB3LYP) =  -2359.33671919     A.U. after    8 cycles
 Optimization completed.
    -- Stationary point found.

                         Standard orientation:
 ---------------------------------------------------------------------
 Center     Atomic      Atomic             Coordinates (Angstroms)
 Number     Number       Type             X           Y           Z
 ---------------------------------------------------------------------
      1          6           0        3.518747   -2.694656    0.404006
      2          6           0        2.766283   -1.447828    0.107435
      3          6           0        3.425677   -0.196721    0.122136
      4          6           0        4.798580   -0.108309    0.432938
      5          6           0        5.577424   -1.335546    0.749509
      6          6           0        1.416767   -1.510923   -0.141127
      7          6           0        2.683302    0.973866   -0.192963
      8          6           0        1.297579    0.886044   -0.505869
      9          6           0        0.636368   -0.352818   -0.412413
     10          6           0        0.637514    2.098399   -1.064819
     11          6           0        2.641160    3.472627   -0.508697
     12          6           0        3.360926    2.217785   -0.179770
     13          6           0        4.708008    2.284136    0.140528
     14          6           0        5.431431    1.124227    0.445082
     15          1           0        6.484915    1.170802    0.689478
     16          1           0        5.186714    3.255270    0.147825
     17          1           0        0.928199   -2.474901   -0.081643
     18          7           0        1.316002    3.324455   -0.924987
     19          7           0        4.878180   -2.554392    0.707967
     20          8           0        3.001135   -3.796474    0.389146
     21          8           0        6.760887   -1.296798    1.028140
     22          8           0        3.173416    4.566954   -0.446337
     23          8           0       -0.427009    2.076146   -1.651353
     24          6           0        0.598209    4.518998   -1.392080
     25          1           0        0.546492    4.528679   -2.482497
     26          1           0       -0.416890    4.502802   -0.999768
     27          1           0        1.139153    5.391899   -1.039874
     28          6           0        5.609524   -3.794557    1.005131
     29          1           0        5.153861   -4.294391    1.860151
     30          1           0        5.559952   -4.465464    0.147226
     31          1           0        6.639480   -3.530724    1.223002
     32          6           0       -0.808735   -0.568094   -0.498642
     33          6           0       -1.437657   -1.609644   -1.149933
     34         16           0       -1.952121    0.379173    0.411162
     35          6           0       -2.835103   -1.621293   -0.951837
     36          1           0       -0.906784   -2.314196   -1.773932
     37          6           0       -3.298995   -0.614428   -0.107568
     38          8           0       -3.723302   -2.500260   -1.489069
     39          6           0       -4.650507   -0.380513    0.322247
     40          6           0       -3.216027   -3.539753   -2.319563
     41          6           0       -5.111914    0.618733    1.171773
     42         16           0       -6.005922   -1.378370   -0.191968
     43          1           0       -4.081079   -4.122662   -2.630531
     44          1           0       -2.716962   -3.129450   -3.203492
     45          1           0       -2.522568   -4.182953   -1.767906
     46          6           0       -6.514993    0.587574    1.401005
     47          8           0       -4.227648    1.505973    1.699224
     48          6           0       -7.120186   -0.437217    0.728081
     49          1           0       -7.049263    1.284357    2.030110
     50          6           0       -4.735549    2.553710    2.519198
     51          1           0       -8.168628   -0.692945    0.721531
     52          1           0       -5.222333    2.153090    3.414254
     53          1           0       -3.872246    3.148058    2.812924
     54          1           0       -5.439426    3.182329    1.964428
 ---------------------------------------------------------------------

 The electronic state is 1-A.
 Alpha  occ. eigenvalues --  -88.88289 -88.88205 -19.17102 -19.16924 -19.12417
 Alpha  occ. eigenvalues --  -19.12391 -19.11800 -19.11724 -14.38579 -14.38000
 Alpha  occ. eigenvalues --  -10.31021 -10.30867 -10.30456 -10.30381 -10.24679
 Alpha  occ. eigenvalues --  -10.24567 -10.23908 -10.23743 -10.23545 -10.22798
 Alpha  occ. eigenvalues --  -10.22527 -10.22437 -10.22252 -10.22241 -10.22154
 Alpha  occ. eigenvalues --  -10.22034 -10.22022 -10.21651 -10.21515 -10.21123
 Alpha  occ. eigenvalues --  -10.21070 -10.21010 -10.20884 -10.20650 -10.19125
 Alpha  occ. eigenvalues --  -10.18881  -7.96842  -7.96762  -5.93152  -5.93085
 Alpha  occ. eigenvalues --   -5.92763  -5.92692  -5.92411  -5.92300  -1.08655
 Alpha  occ. eigenvalues --   -1.08651  -1.08477  -1.08171  -1.06852  -1.06313
 Alpha  occ. eigenvalues --   -0.96211  -0.95656  -0.92453  -0.90334  -0.88771
 Alpha  occ. eigenvalues --   -0.86668  -0.84236  -0.80493  -0.78412  -0.77610
 Alpha  occ. eigenvalues --   -0.76471  -0.75345  -0.75100  -0.73251  -0.72480
 Alpha  occ. eigenvalues --   -0.71507  -0.70531  -0.68892  -0.67065  -0.65853
 Alpha  occ. eigenvalues --   -0.65484  -0.64787  -0.60956  -0.59932  -0.58602
 Alpha  occ. eigenvalues --   -0.57425  -0.56775  -0.56345  -0.55084  -0.54844
 Alpha  occ. eigenvalues --   -0.53764  -0.51640  -0.50214  -0.49926  -0.49689
 Alpha  occ. eigenvalues --   -0.49426  -0.48789  -0.48684  -0.48497  -0.48449
 Alpha  occ. eigenvalues --   -0.48136  -0.47071  -0.46612  -0.46333  -0.45862
 Alpha  occ. eigenvalues --   -0.45553  -0.44935  -0.44708  -0.44268  -0.43846
 Alpha  occ. eigenvalues --   -0.42850  -0.42436  -0.42256  -0.41977  -0.41819
 Alpha  occ. eigenvalues --   -0.41672  -0.41295  -0.41108  -0.40601  -0.39926
 Alpha  occ. eigenvalues --   -0.39473  -0.39126  -0.38758  -0.37765  -0.37422
 Alpha  occ. eigenvalues --   -0.36478  -0.35933  -0.34231  -0.33944  -0.33668
 Alpha  occ. eigenvalues --   -0.33582  -0.32044  -0.30956  -0.30253  -0.29689
 Alpha  occ. eigenvalues --   -0.29269  -0.28774  -0.28710  -0.27968  -0.27496
 Alpha  occ. eigenvalues --   -0.26066  -0.24870  -0.24376  -0.19330
 Alpha virt. eigenvalues --   -0.13027  -0.07225  -0.06328  -0.04648  -0.03886
 Alpha virt. eigenvalues --   -0.00867  -0.00568  -0.00346  -0.00082   0.00429
 Alpha virt. eigenvalues --    0.00739   0.01082   0.01185   0.01559   0.01865

 Mulliken charges:
               1
     1  C    0.377053
     2  C   -0.112225
     3  C    0.105366
     4  C    0.241035
     5  C    0.234019
     6  C   -0.251667
     7  C    0.136508
     8  C    0.163634
     9  C    0.300803
    10  C   -0.453646
    11  C    0.295304
    12  C    0.090736
    13  C   -0.457990
    14  C   -0.580003
    15  H    0.159600
    16  H    0.161025
    17  H    0.161965
    18  N   -0.033406
    19  N   -0.144199
    20  O   -0.280146
    21  O   -0.270418
    22  O   -0.282340
    23  O   -0.206196
    24  C   -0.176698
    25  H    0.178134
    26  H    0.175907
    27  H    0.182055
    28  C   -0.196421
    29  H    0.174857
    30  H    0.173496
    31  H    0.182423
    32  C    0.330177
    33  C   -0.644666
    34  S   -0.596053
    35  C   -0.068821
    36  H    0.134686
    37  C    0.580496
    38  O   -0.134297
    39  C    0.881653
    40  C   -0.224480
    41  C    0.006420
    42  S   -0.260397
    43  H    0.166928
    44  H    0.148216
    45  H    0.151450
    46  C   -0.611371
    47  O   -0.135460
    48  C   -0.280244
    49  H    0.131275
    50  C   -0.241176
    51  H    0.160488
    52  H    0.144064
    53  H    0.165563
    54  H    0.146983
 Sum of Mulliken charges =  -0.00000

 Dipole moment (field-independent basis, Debye):
    X=             -3.9228    Y=             -0.5028    Z=              0.5520  Tot=              3.9932
 Quadrupole moment (field-independent basis, Debye-Ang):
   XX=           -214.4318   YY=           -220.0082   ZZ=           -214.4884
   XY=             -9.2844   XZ=            -10.9416   YZ=             14.4494

 Normal termination of Gaussian 16 at Thu Nov 26 14:00:36 2020.
