 Gaussian 16, Revision C.01,
 Gaussian 16:  ES64L-G16RevC.01  3-Jul-2019

 -------------------------------------
 # opt=modredundant b3lyp/6-311+g(d,p)
 -------------------------------------

 ------------
 NDI_-155.pdb
 ------------
 Symbolic Z-matrix:
 Charge =  0 Multiplicity = 1

 SCF Done:  E(RB3LYP) =  -2359.30984611     A.U. after   17 cycles
 SCF Done:  E(RB3LYP) =  -2359.32386378     A.U. after   17 cycles
 SCF Done:  E(RB3LYP) =  -2359.33257772     A.U. after   16 cycles
 SCF Done:  E(RB3LYP) =  -2359.33476794     A.U. after   14 cycles
 SCF Done:  E(RB3LYP) =  -2359.33538095     A.U. after   13 cycles
 SCF Done:  E(RB3LYP) =  -2359.33539011     A.U. after   13 cycles
 SCF Done:  E(RB3LYP) =  -2359.33557113     A.U. after   12 cycles
 SCF Done:  E(RB3LYP) =  -2359.33561267     A.U. after   13 cycles
 SCF Done:  E(RB3LYP) =  -2359.33565279     A.U. after   12 cycles
 SCF Done:  E(RB3LYP) =  -2359.33567313     A.U. after   12 cycles
 SCF Done:  E(RB3LYP) =  -2359.33570568     A.U. after   11 cycles
 SCF Done:  E(RB3LYP) =  -2359.33570787     A.U. after   11 cycles
 SCF Done:  E(RB3LYP) =  -2359.33570934     A.U. after   10 cycles
 SCF Done:  E(RB3LYP) =  -2359.33571083     A.U. after   11 cycles
 SCF Done:  E(RB3LYP) =  -2359.33571183     A.U. after   10 cycles
 SCF Done:  E(RB3LYP) =  -2359.33571309     A.U. after   11 cycles
 SCF Done:  E(RB3LYP) =  -2359.33571367     A.U. after   10 cycles
 SCF Done:  E(RB3LYP) =  -2359.33571395     A.U. after    9 cycles
 SCF Done:  E(RB3LYP) =  -2359.33571407     A.U. after    9 cycles
 SCF Done:  E(RB3LYP) =  -2359.33571410     A.U. after    9 cycles
 Optimization completed.
    -- Stationary point found.

                         Standard orientation:
 ---------------------------------------------------------------------
 Center     Atomic      Atomic             Coordinates (Angstroms)
 Number     Number       Type             X           Y           Z
 ---------------------------------------------------------------------
      1          6           0       -3.421585   -2.688129    0.432344
      2          6           0       -2.736531   -1.387906    0.206363
      3          6           0       -3.484922   -0.194532    0.090410
      4          6           0       -4.890788   -0.219537    0.159295
      5          6           0       -5.609851   -1.503015    0.376270
      6          6           0       -1.372999   -1.357200    0.113214
      7          6           0       -2.780581    1.025805   -0.089806
      8          6           0       -1.351205    1.051832   -0.134483
      9          6           0       -0.609055   -0.159847   -0.089510
     10          6           0       -0.712136    2.377268   -0.236277
     11          6           0       -2.909394    3.511963   -0.487545
     12          6           0       -3.555035    2.204342   -0.242052
     13          6           0       -4.942005    2.159431   -0.187281
     14          6           0       -5.616484    0.954447    0.022921
     15          1           0       -6.696843    0.916286    0.074788
     16          1           0       -5.486014    3.086616   -0.316034
     17          1           0       -0.859599   -2.297042    0.245904
     18          7           0       -1.514612    3.497835   -0.503695
     19          7           0       -4.817873   -2.658433    0.504953
     20          8           0       -2.820275   -3.741462    0.545000
     21          8           0       -6.822964   -1.561973    0.443692
     22          8           0       -3.542025    4.540003   -0.659426
     23          8           0        0.488304    2.553246   -0.094700
     24          6           0       -0.808132    4.774301   -0.681238
     25          1           0       -0.360462    5.093444    0.261547
     26          1           0       -0.013577    4.648029   -1.414729
     27          1           0       -1.533561    5.509231   -1.015935
     28          6           0       -5.487017   -3.948387    0.725884
     29          1           0       -5.243083   -4.633812   -0.086173
     30          1           0       -5.140765   -4.386431    1.662209
     31          1           0       -6.556542   -3.767615    0.762462
     32          6           0        0.827996   -0.409618   -0.240829
     33          6           0        1.316170   -1.645151   -0.671174
     34         16           0        2.176848    0.617124    0.226107
     35          6           0        2.708982   -1.765384   -0.616206
     36          1           0        0.679027   -2.427316   -1.052969
     37          6           0        3.350132   -0.632950   -0.107559
     38          8           0        3.450393   -2.836368   -1.005805
     39          6           0        4.761518   -0.449578    0.087046
     40          6           0        2.761842   -4.002182   -1.448330
     41          6           0        5.412232    0.673165    0.591980
     42         16           0        5.954505   -1.686845   -0.298897
     43          1           0        3.532733   -4.735268   -1.678591
     44          1           0        2.106680   -4.394524   -0.663886
     45          1           0        2.176139   -3.795382   -2.350030
     46          6           0        6.826116    0.543918    0.665177
     47          8           0        4.682127    1.753563    0.961503
     48          6           0        7.251324   -0.676663    0.218535
     49          1           0        7.493636    1.310842    1.029722
     50          6           0        5.371014    2.907846    1.433440
     51          1           0        8.266038   -1.040646    0.165357
     52          1           0        6.047957    3.301965    0.668815
     53          1           0        4.600027    3.644455    1.650820
     54          1           0        5.931851    2.685397    2.346902
 ---------------------------------------------------------------------

 The electronic state is 1-A.
 Alpha  occ. eigenvalues --  -88.88491 -88.88229 -19.17185 -19.17094 -19.12293
 Alpha  occ. eigenvalues --  -19.12284 -19.11847 -19.11424 -14.38469 -14.37932
 Alpha  occ. eigenvalues --  -10.30870 -10.30757 -10.30301 -10.30008 -10.24981
 Alpha  occ. eigenvalues --  -10.24616 -10.23998 -10.23861 -10.23839 -10.22635
 Alpha  occ. eigenvalues --  -10.22449 -10.22299 -10.22142 -10.22093 -10.21943
 Alpha  occ. eigenvalues --  -10.21916 -10.21792 -10.21652 -10.21220 -10.21191
 Alpha  occ. eigenvalues --  -10.20940 -10.20717 -10.20656 -10.20570 -10.19110
 Alpha  occ. eigenvalues --  -10.19076  -7.97044  -7.96669  -5.93353  -5.92989
 Alpha  occ. eigenvalues --   -5.92964  -5.92614  -5.92576  -5.92228  -1.08822
 Alpha  occ. eigenvalues --   -1.08652  -1.08539  -1.08142  -1.06728  -1.06135
 Alpha  occ. eigenvalues --   -0.96098  -0.95579  -0.92141  -0.90301  -0.88776
 Alpha  occ. eigenvalues --   -0.86434  -0.83988  -0.80472  -0.78168  -0.77574
 Alpha  occ. eigenvalues --   -0.76547  -0.75447  -0.75025  -0.73331  -0.72380
 Alpha  occ. eigenvalues --   -0.71467  -0.70565  -0.68813  -0.66936  -0.65754
 Alpha  occ. eigenvalues --   -0.65376  -0.64738  -0.60917  -0.59965  -0.58592
 Alpha  occ. eigenvalues --   -0.57357  -0.56716  -0.56362  -0.55252  -0.54730
 Alpha  occ. eigenvalues --   -0.53618  -0.51454  -0.50094  -0.49990  -0.49458
 Alpha  occ. eigenvalues --   -0.49347  -0.48865  -0.48682  -0.48591  -0.48333
 Alpha  occ. eigenvalues --   -0.48131  -0.47170  -0.46595  -0.46165  -0.45964
 Alpha  occ. eigenvalues --   -0.45593  -0.45018  -0.44334  -0.44036  -0.43499
 Alpha  occ. eigenvalues --   -0.42980  -0.42504  -0.42165  -0.41867  -0.41691
 Alpha  occ. eigenvalues --   -0.41647  -0.41294  -0.41045  -0.40481  -0.39676
 Alpha  occ. eigenvalues --   -0.39415  -0.39144  -0.38961  -0.37592  -0.37148
 Alpha  occ. eigenvalues --   -0.36322  -0.35925  -0.34367  -0.34102  -0.33634
 Alpha  occ. eigenvalues --   -0.33099  -0.31925  -0.30766  -0.30155  -0.29762
 Alpha  occ. eigenvalues --   -0.29252  -0.28692  -0.28627  -0.27822  -0.27308
 Alpha  occ. eigenvalues --   -0.25984  -0.24835  -0.24473  -0.19564
 Alpha virt. eigenvalues --   -0.12728  -0.07521  -0.06346  -0.04342  -0.03715
 Alpha virt. eigenvalues --   -0.00770  -0.00511  -0.00384   0.00044   0.00463
 Alpha virt. eigenvalues --    0.00924   0.01177   0.01431   0.01828   0.02001

 Mulliken charges:
               1
     1  C    0.343721
     2  C   -0.020475
     3  C    0.122139
     4  C    0.190106
     5  C    0.296988
     6  C   -0.299062
     7  C    0.128109
     8  C    0.300499
     9  C    0.344561
    10  C   -0.007172
    11  C    0.138371
    12  C    0.244283
    13  C   -0.492720
    14  C   -0.618179
    15  H    0.157825
    16  H    0.160524
    17  H    0.168788
    18  N   -0.159843
    19  N   -0.141835
    20  O   -0.286170
    21  O   -0.269631
    22  O   -0.281058
    23  O   -0.227121
    24  C   -0.217443
    25  H    0.175561
    26  H    0.174937
    27  H    0.184248
    28  C   -0.197105
    29  H    0.173048
    30  H    0.173735
    31  H    0.182877
    32  C   -0.242030
    33  C   -0.726903
    34  S   -0.258380
    35  C   -0.202154
    36  H    0.139401
    37  C    0.693337
    38  O   -0.138177
    39  C    0.780823
    40  C   -0.225237
    41  C    0.009724
    42  S   -0.270518
    43  H    0.167687
    44  H    0.152631
    45  H    0.146457
    46  C   -0.583338
    47  O   -0.120729
    48  C   -0.275780
    49  H    0.132279
    50  C   -0.245467
    51  H    0.161749
    52  H    0.146874
    53  H    0.171497
    54  H    0.143747
 Sum of Mulliken charges =  -0.00000

 Dipole moment (field-independent basis, Debye):
    X=              4.9824    Y=             -0.7079    Z=             -0.0721  Tot=              5.0330
 Quadrupole moment (field-independent basis, Debye-Ang):
   XX=           -212.2869   YY=           -215.6609   ZZ=           -219.7145
   XY=             12.7830   XZ=              4.3842   YZ=             10.6271

 Normal termination of Gaussian 16 at Thu Nov 26 05:54:04 2020.
