 Gaussian 16, Revision C.01,
 Gaussian 16:  ES64L-G16RevC.01  3-Jul-2019

 -------------------------------------
 # opt=modredundant b3lyp/6-311+g(d,p)
 -------------------------------------

 -----------
 NDI_-40.pdb
 -----------
 Symbolic Z-matrix:
 Charge =  0 Multiplicity = 1

 SCF Done:  E(RB3LYP) =  -2359.33787817     A.U. after   17 cycles
 SCF Done:  E(RB3LYP) =  -2359.33815463     A.U. after   13 cycles
 SCF Done:  E(RB3LYP) =  -2359.33814751     A.U. after   13 cycles
 SCF Done:  E(RB3LYP) =  -2359.33828851     A.U. after   13 cycles
 SCF Done:  E(RB3LYP) =  -2359.33829846     A.U. after   12 cycles
 SCF Done:  E(RB3LYP) =  -2359.33830641     A.U. after   12 cycles
 SCF Done:  E(RB3LYP) =  -2359.33830955     A.U. after   13 cycles
 SCF Done:  E(RB3LYP) =  -2359.33831096     A.U. after   12 cycles
 SCF Done:  E(RB3LYP) =  -2359.33831181     A.U. after   11 cycles
 SCF Done:  E(RB3LYP) =  -2359.33831215     A.U. after   10 cycles
 SCF Done:  E(RB3LYP) =  -2359.33831220     A.U. after   10 cycles
 SCF Done:  E(RB3LYP) =  -2359.33831230     A.U. after   10 cycles
 SCF Done:  E(RB3LYP) =  -2359.33831243     A.U. after   10 cycles
 SCF Done:  E(RB3LYP) =  -2359.33831248     A.U. after   10 cycles
 SCF Done:  E(RB3LYP) =  -2359.33831255     A.U. after   10 cycles
 SCF Done:  E(RB3LYP) =  -2359.33831262     A.U. after    9 cycles
 SCF Done:  E(RB3LYP) =  -2359.33831268     A.U. after    9 cycles
 SCF Done:  E(RB3LYP) =  -2359.33831272     A.U. after    8 cycles
 Optimization completed.
    -- Stationary point found.

                         Standard orientation:
 ---------------------------------------------------------------------
 Center     Atomic      Atomic             Coordinates (Angstroms)
 Number     Number       Type             X           Y           Z
 ---------------------------------------------------------------------
      1          6           0        2.630916   -2.984273    0.417264
      2          6           0        2.290235   -1.549625    0.224612
      3          6           0        3.312288   -0.582856    0.083595
      4          6           0        4.668821   -0.964085    0.128005
      5          6           0        5.045563   -2.388689    0.332573
      6          6           0        0.975059   -1.165640    0.213321
      7          6           0        2.944342    0.776683   -0.118255
      8          6           0        1.570304    1.164611   -0.151997
      9          6           0        0.563347    0.192325    0.064953
     10          6           0        1.262004    2.572813   -0.522503
     11          6           0        3.693312    3.145253   -0.539285
     12          6           0        3.990954    1.718027   -0.286476
     13          6           0        5.320222    1.324297   -0.232116
     14          6           0        5.666266   -0.014049   -0.023304
     15          1           0        6.701693   -0.326699    0.016012
     16          1           0        6.082342    2.082346   -0.361347
     17          1           0        0.227819   -1.932713    0.369982
     18          7           0        2.341303    3.465670   -0.670782
     19          7           0        3.991448   -3.308965    0.459751
     20          8           0        1.786299   -3.852736    0.535108
     21          8           0        6.206357   -2.749014    0.385578
     22          8           0        4.566457    3.989203   -0.647209
     23          8           0        0.138280    2.998943   -0.723626
     24          6           0        1.985196    4.849982   -1.013404
     25          1           0        1.441790    4.868374   -1.958092
     26          1           0        1.341842    5.269991   -0.239819
     27          1           0        2.906304    5.418857   -1.090135
     28          6           0        4.316503   -4.729085    0.655292
     29          1           0        3.889260   -5.078216    1.595580
     30          1           0        3.890601   -5.318989   -0.156631
     31          1           0        5.397467   -4.825226    0.669367
     32          6           0       -0.871397    0.431802    0.196143
     33          6           0       -1.549440    1.441729    0.845135
     34         16           0       -1.999689   -0.772091   -0.406611
     35          6           0       -2.944409    1.261047    0.854915
     36          1           0       -1.052394    2.285293    1.294048
     37          6           0       -3.382056    0.106933    0.201882
     38          8           0       -3.862443    2.086747    1.422302
     39          6           0       -4.734597   -0.329294    0.000315
     40          6           0       -3.403976    3.325429    1.959287
     41          6           0       -5.166800   -1.493156   -0.628185
     42         16           0       -6.132091    0.594480    0.540365
     43          1           0       -4.295440    3.853647    2.292595
     44          1           0       -2.739059    3.161102    2.813477
     45          1           0       -2.887935    3.915998    1.196225
     46          6           0       -6.580037   -1.639164   -0.675379
     47          8           0       -4.248033   -2.358883   -1.127440
     48          6           0       -7.222114   -0.586868   -0.083272
     49          1           0       -7.095544   -2.476834   -1.121721
     50          6           0       -4.714260   -3.555638   -1.744836
     51          1           0       -8.286039   -0.441960    0.025584
     52          1           0       -5.331339   -3.331504   -2.620726
     53          1           0       -3.822845   -4.096029   -2.057588
     54          1           0       -5.282122   -4.167736   -1.037039
 ---------------------------------------------------------------------

 The electronic state is 1-A.
 Alpha  occ. eigenvalues --  -88.88533 -88.88519 -19.17337 -19.16989 -19.12274
 Alpha  occ. eigenvalues --  -19.12235 -19.11599 -19.11531 -14.38443 -14.37960
 Alpha  occ. eigenvalues --  -10.30871 -10.30708 -10.30450 -10.30173 -10.24990
 Alpha  occ. eigenvalues --  -10.24714 -10.24003 -10.23707 -10.23644 -10.22730
 Alpha  occ. eigenvalues --  -10.22525 -10.22403 -10.22318 -10.22062 -10.22054
 Alpha  occ. eigenvalues --  -10.22047 -10.21904 -10.21770 -10.21265 -10.21169
 Alpha  occ. eigenvalues --  -10.20907 -10.20862 -10.20788 -10.20610 -10.19114
 Alpha  occ. eigenvalues --  -10.18959  -7.97085  -7.97082  -5.93399  -5.93395
 Alpha  occ. eigenvalues --   -5.93011  -5.93006  -5.92653  -5.92630  -1.08893
 Alpha  occ. eigenvalues --   -1.08554  -1.08525  -1.08066  -1.06710  -1.06157
 Alpha  occ. eigenvalues --   -0.96086  -0.95511  -0.92247  -0.90488  -0.88908
 Alpha  occ. eigenvalues --   -0.86525  -0.84052  -0.80434  -0.78282  -0.77764
 Alpha  occ. eigenvalues --   -0.76525  -0.75477  -0.75018  -0.73312  -0.72334
 Alpha  occ. eigenvalues --   -0.71770  -0.70448  -0.68858  -0.67008  -0.65705
 Alpha  occ. eigenvalues --   -0.65510  -0.64544  -0.61168  -0.59963  -0.58538
 Alpha  occ. eigenvalues --   -0.57292  -0.56762  -0.56516  -0.55208  -0.54956
 Alpha  occ. eigenvalues --   -0.53413  -0.51557  -0.50270  -0.49864  -0.49616
 Alpha  occ. eigenvalues --   -0.49307  -0.48924  -0.48637  -0.48485  -0.48407
 Alpha  occ. eigenvalues --   -0.48174  -0.46947  -0.46493  -0.46246  -0.45838
 Alpha  occ. eigenvalues --   -0.45688  -0.44842  -0.44410  -0.44097  -0.43580
 Alpha  occ. eigenvalues --   -0.42830  -0.42574  -0.42362  -0.41979  -0.41790
 Alpha  occ. eigenvalues --   -0.41743  -0.41107  -0.41046  -0.40409  -0.39846
 Alpha  occ. eigenvalues --   -0.39491  -0.39120  -0.38984  -0.37766  -0.37439
 Alpha  occ. eigenvalues --   -0.36542  -0.35871  -0.34452  -0.34127  -0.33784
 Alpha  occ. eigenvalues --   -0.33557  -0.31972  -0.30896  -0.30355  -0.29665
 Alpha  occ. eigenvalues --   -0.29210  -0.28774  -0.28578  -0.27935  -0.27242
 Alpha  occ. eigenvalues --   -0.26012  -0.24808  -0.24673  -0.19501
 Alpha virt. eigenvalues --   -0.12943  -0.07409  -0.06345  -0.04468  -0.03757
 Alpha virt. eigenvalues --   -0.00861  -0.00464  -0.00323  -0.00000   0.00410
 Alpha virt. eigenvalues --    0.00805   0.01183   0.01470   0.01616   0.01842

 Mulliken charges:
               1
     1  C    0.290496
     2  C   -0.094861
     3  C    0.157486
     4  C    0.205106
     5  C    0.228073
     6  C   -0.332665
     7  C    0.215307
     8  C    0.374284
     9  C    0.445399
    10  C   -0.446932
    11  C    0.211711
    12  C    0.149684
    13  C   -0.475758
    14  C   -0.584701
    15  H    0.158483
    16  H    0.160667
    17  H    0.179087
    18  N   -0.123893
    19  N   -0.142474
    20  O   -0.281041
    21  O   -0.268672
    22  O   -0.277393
    23  O   -0.212310
    24  C   -0.193519
    25  H    0.176491
    26  H    0.168608
    27  H    0.182514
    28  C   -0.198030
    29  H    0.174154
    30  H    0.173576
    31  H    0.182078
    32  C    0.092388
    33  C   -0.508426
    34  S   -0.582699
    35  C   -0.185374
    36  H    0.135719
    37  C    0.711876
    38  O   -0.129939
    39  C    0.813978
    40  C   -0.240929
    41  C   -0.037389
    42  S   -0.260273
    43  H    0.165239
    44  H    0.144734
    45  H    0.162209
    46  C   -0.598735
    47  O   -0.129073
    48  C   -0.269194
    49  H    0.132551
    50  C   -0.240543
    51  H    0.161611
    52  H    0.145528
    53  H    0.169149
    54  H    0.146638
 Sum of Mulliken charges =  -0.00000

 Dipole moment (field-independent basis, Debye):
    X=             -4.7384    Y=             -0.5834    Z=              0.2412  Tot=              4.7802
 Quadrupole moment (field-independent basis, Debye-Ang):
   XX=           -216.9590   YY=           -213.2375   ZZ=           -217.4987
   XY=              4.0793   XZ=              3.7057   YZ=             14.2470

 Normal termination of Gaussian 16 at Thu Nov 26 08:14:57 2020.
