 Gaussian 16, Revision C.01,
 Gaussian 16:  ES64L-G16RevC.01  3-Jul-2019

 -------------------------------------
 # opt=modredundant b3lyp/6-311+g(d,p)
 -------------------------------------

 -----------
 NDI_170.pdb
 -----------
 Symbolic Z-matrix:
 Charge =  0 Multiplicity = 1

 SCF Done:  E(RB3LYP) =  -2359.29398177     A.U. after   18 cycles
 SCF Done:  E(RB3LYP) =  -2359.32189220     A.U. after   17 cycles
 SCF Done:  E(RB3LYP) =  -2359.33096006     A.U. after   16 cycles
 SCF Done:  E(RB3LYP) =  -2359.33341472     A.U. after   15 cycles
 SCF Done:  E(RB3LYP) =  -2359.33405807     A.U. after   13 cycles
 SCF Done:  E(RB3LYP) =  -2359.33415260     A.U. after   15 cycles
 SCF Done:  E(RB3LYP) =  -2359.33439686     A.U. after   13 cycles
 SCF Done:  E(RB3LYP) =  -2359.33443335     A.U. after   13 cycles
 SCF Done:  E(RB3LYP) =  -2359.33446451     A.U. after   12 cycles
 SCF Done:  E(RB3LYP) =  -2359.33449173     A.U. after   12 cycles
 SCF Done:  E(RB3LYP) =  -2359.33463768     A.U. after   14 cycles
 SCF Done:  E(RB3LYP) =  -2359.33470589     A.U. after   16 cycles
 SCF Done:  E(RB3LYP) =  -2359.33471350     A.U. after   11 cycles
 SCF Done:  E(RB3LYP) =  -2359.33471768     A.U. after   12 cycles
 SCF Done:  E(RB3LYP) =  -2359.33471854     A.U. after   11 cycles
 SCF Done:  E(RB3LYP) =  -2359.33471850     A.U. after   12 cycles
 SCF Done:  E(RB3LYP) =  -2359.33471906     A.U. after   12 cycles
 SCF Done:  E(RB3LYP) =  -2359.33471987     A.U. after   12 cycles
 SCF Done:  E(RB3LYP) =  -2359.33471939     A.U. after   12 cycles
 SCF Done:  E(RB3LYP) =  -2359.33472005     A.U. after   12 cycles
 Optimization completed.
    -- Stationary point found.

                         Standard orientation:
 ---------------------------------------------------------------------
 Center     Atomic      Atomic             Coordinates (Angstroms)
 Number     Number       Type             X           Y           Z
 ---------------------------------------------------------------------
      1          6           0       -3.519072   -2.681744   -0.141519
      2          6           0       -2.776675   -1.407332    0.043194
      3          6           0       -3.440856   -0.166545   -0.088650
      4          6           0       -4.811206   -0.115271   -0.408539
      5          6           0       -5.583690   -1.370432   -0.606096
      6          6           0       -1.432871   -1.445926    0.298111
      7          6           0       -2.691806    1.023666    0.114243
      8          6           0       -1.300825    0.968879    0.433126
      9          6           0       -0.625245   -0.278934    0.474857
     10          6           0       -0.657833    2.239807    0.844007
     11          6           0       -2.678281    3.542290    0.192064
     12          6           0       -3.379284    2.256541   -0.020144
     13          6           0       -4.727759    2.288596   -0.348383
     14          6           0       -5.450508    1.108065   -0.541993
     15          1           0       -6.503385    1.128617   -0.791742
     16          1           0       -5.205023    3.255381   -0.447271
     17          1           0       -0.976208   -2.423646    0.314972
     18          7           0       -1.355234    3.440901    0.624089
     19          7           0       -4.879047   -2.578181   -0.450783
     20          8           0       -2.992524   -3.775031   -0.032993
     21          8           0       -6.767454   -1.365337   -0.886121
     22          8           0       -3.218732    4.622784    0.027777
     23          8           0        0.434617    2.297721    1.382564
     24          6           0       -0.640401    4.675722    0.975914
     25          1           0       -0.476605    4.720729    2.053603
     26          1           0        0.329841    4.687851    0.481121
     27          1           0       -1.249678    5.513879    0.652501
     28          6           0       -5.605034   -3.843486   -0.630698
     29          1           0       -5.164541   -4.408104   -1.452981
     30          1           0       -5.529888   -4.441910    0.277333
     31          1           0       -6.641762   -3.605655   -0.846429
     32          6           0        0.812464   -0.543538    0.553336
     33          6           0        1.365324   -1.802312    0.788729
     34         16           0        2.067794    0.556126    0.028599
     35          6           0        2.744410   -1.874560    0.554158
     36          1           0        0.792625   -2.643095    1.147363
     37          6           0        3.300763   -0.680875    0.088375
     38          8           0        3.547468   -2.957190    0.735569
     39          6           0        4.671937   -0.432879   -0.252054
     40          6           0        2.946665   -4.168316    1.184165
     41          6           0        5.233695    0.754435   -0.715867
     42         16           0        5.927122   -1.663109   -0.134890
     43          1           0        3.754662   -4.894083    1.255207
     44          1           0        2.486373   -4.038380    2.169063
     45          1           0        2.197664   -4.525193    0.469788
     46          6           0        6.630678    0.678354   -0.966304
     47          8           0        4.442444    1.841200   -0.889685
     48          6           0        7.130971   -0.565593   -0.696522
     49          1           0        7.234431    1.497797   -1.327593
     50          6           0        5.050716    3.058687   -1.312418
     51          1           0        8.152199   -0.899722   -0.798576
     52          1           0        5.508509    2.947460   -2.300481
     53          1           0        4.246343    3.789715   -1.365639
     54          1           0        5.801541    3.394086   -0.590194
 ---------------------------------------------------------------------

 The electronic state is 1-A.
 Alpha  occ. eigenvalues --  -88.88760 -88.88357 -19.17536 -19.17202 -19.12221
 Alpha  occ. eigenvalues --  -19.12202 -19.11420 -19.11399 -14.38391 -14.37765
 Alpha  occ. eigenvalues --  -10.30788 -10.30680 -10.30143 -10.29963 -10.25303
 Alpha  occ. eigenvalues --  -10.24799 -10.24176 -10.23940 -10.23804 -10.22656
 Alpha  occ. eigenvalues --  -10.22491 -10.22465 -10.22113 -10.22041 -10.22036
 Alpha  occ. eigenvalues --  -10.21855 -10.21848 -10.21547 -10.21460 -10.21229
 Alpha  occ. eigenvalues --  -10.20873 -10.20644 -10.20574 -10.20477 -10.19479
 Alpha  occ. eigenvalues --  -10.19334  -7.97312  -7.96877  -5.93621  -5.93232
 Alpha  occ. eigenvalues --   -5.93199  -5.92880  -5.92790  -5.92427  -1.09142
 Alpha  occ. eigenvalues --   -1.08767  -1.08457  -1.07909  -1.06646  -1.05982
 Alpha  occ. eigenvalues --   -0.96013  -0.95390  -0.92087  -0.90593  -0.89030
 Alpha  occ. eigenvalues --   -0.86428  -0.83881  -0.80519  -0.78094  -0.77792
 Alpha  occ. eigenvalues --   -0.76724  -0.75692  -0.74906  -0.73520  -0.72303
 Alpha  occ. eigenvalues --   -0.71410  -0.70822  -0.68947  -0.66867  -0.65656
 Alpha  occ. eigenvalues --   -0.65316  -0.64651  -0.61059  -0.60162  -0.58558
 Alpha  occ. eigenvalues --   -0.57375  -0.56804  -0.56586  -0.55373  -0.54746
 Alpha  occ. eigenvalues --   -0.53664  -0.51390  -0.50155  -0.49890  -0.49425
 Alpha  occ. eigenvalues --   -0.49265  -0.49116  -0.48750  -0.48723  -0.48324
 Alpha  occ. eigenvalues --   -0.48177  -0.47025  -0.46569  -0.46125  -0.45968
 Alpha  occ. eigenvalues --   -0.45625  -0.44822  -0.44425  -0.44071  -0.43550
 Alpha  occ. eigenvalues --   -0.43100  -0.42413  -0.42321  -0.41981  -0.41812
 Alpha  occ. eigenvalues --   -0.41609  -0.41159  -0.40982  -0.40472  -0.39886
 Alpha  occ. eigenvalues --   -0.39512  -0.39184  -0.38817  -0.37693  -0.37199
 Alpha  occ. eigenvalues --   -0.36658  -0.36292  -0.34568  -0.34294  -0.33732
 Alpha  occ. eigenvalues --   -0.33485  -0.31702  -0.30734  -0.30407  -0.29619
 Alpha  occ. eigenvalues --   -0.29189  -0.28597  -0.28481  -0.27793  -0.27288
 Alpha  occ. eigenvalues --   -0.25899  -0.25082  -0.24482  -0.19649
 Alpha virt. eigenvalues --   -0.12774  -0.07781  -0.06172  -0.04298  -0.03710
 Alpha virt. eigenvalues --   -0.00912  -0.00509  -0.00348  -0.00118   0.00352
 Alpha virt. eigenvalues --    0.00892   0.01084   0.01432   0.01861   0.01917

 Mulliken charges:
               1
     1  C    0.339090
     2  C   -0.052888
     3  C    0.180957
     4  C    0.193792
     5  C    0.237356
     6  C    0.165219
     7  C    0.086658
     8  C    0.309251
     9  C    0.368626
    10  C   -0.521713
    11  C    0.279169
    12  C    0.074389
    13  C   -0.456829
    14  C   -0.587631
    15  H    0.157692
    16  H    0.160324
    17  H    0.154308
    18  N   -0.058356
    19  N   -0.147213
    20  O   -0.286680
    21  O   -0.266890
    22  O   -0.282281
    23  O   -0.221641
    24  C   -0.173326
    25  H    0.177721
    26  H    0.170704
    27  H    0.182206
    28  C   -0.195551
    29  H    0.173532
    30  H    0.172883
    31  H    0.181990
    32  C   -0.060596
    33  C   -0.488241
    34  S   -0.673135
    35  C   -0.423246
    36  H    0.130902
    37  C    0.698160
    38  O   -0.134352
    39  C    0.896928
    40  C   -0.226507
    41  C   -0.035307
    42  S   -0.244657
    43  H    0.168497
    44  H    0.148882
    45  H    0.151089
    46  C   -0.534084
    47  O   -0.119309
    48  C   -0.284867
    49  H    0.132904
    50  C   -0.242704
    51  H    0.162680
    52  H    0.145086
    53  H    0.167957
    54  H    0.149051
 Sum of Mulliken charges =  -0.00000

 Dipole moment (field-independent basis, Debye):
    X=              5.3567    Y=             -0.8171    Z=             -0.5919  Tot=              5.4509
 Quadrupole moment (field-independent basis, Debye-Ang):
   XX=           -210.3883   YY=           -214.0442   ZZ=           -222.2984
   XY=             11.8210   XZ=            -10.2569   YZ=             -8.0603

 Normal termination of Gaussian 16 at Fri Nov 27 01:48:46 2020.
