 Gaussian 16, Revision C.01,
 Gaussian 16:  ES64L-G16RevC.01  3-Jul-2019

 -------------------------------------
 # opt=modredundant b3lyp/6-311+g(d,p)
 -------------------------------------

 -----------
 NDI_-30.pdb
 -----------
 Symbolic Z-matrix:
 Charge =  0 Multiplicity = 1

 SCF Done:  E(RB3LYP) =  -2359.33706223     A.U. after   17 cycles
 SCF Done:  E(RB3LYP) =  -2359.33509895     A.U. after   16 cycles
 SCF Done:  E(RB3LYP) =  -2359.33773196     A.U. after   13 cycles
 SCF Done:  E(RB3LYP) =  -2359.33783138     A.U. after   14 cycles
 SCF Done:  E(RB3LYP) =  -2359.33804881     A.U. after   13 cycles
 SCF Done:  E(RB3LYP) =  -2359.33808446     A.U. after   13 cycles
 SCF Done:  E(RB3LYP) =  -2359.33811110     A.U. after   13 cycles
 SCF Done:  E(RB3LYP) =  -2359.33811999     A.U. after   13 cycles
 SCF Done:  E(RB3LYP) =  -2359.33812480     A.U. after   12 cycles
 SCF Done:  E(RB3LYP) =  -2359.33812611     A.U. after   10 cycles
 SCF Done:  E(RB3LYP) =  -2359.33812673     A.U. after   10 cycles
 SCF Done:  E(RB3LYP) =  -2359.33812804     A.U. after   11 cycles
 SCF Done:  E(RB3LYP) =  -2359.33812906     A.U. after   11 cycles
 SCF Done:  E(RB3LYP) =  -2359.33812987     A.U. after   10 cycles
 SCF Done:  E(RB3LYP) =  -2359.33813066     A.U. after   10 cycles
 SCF Done:  E(RB3LYP) =  -2359.33813109     A.U. after    9 cycles
 SCF Done:  E(RB3LYP) =  -2359.33813132     A.U. after   10 cycles
 SCF Done:  E(RB3LYP) =  -2359.33813136     A.U. after   10 cycles
 Optimization completed.
    -- Stationary point found.

                         Standard orientation:
 ---------------------------------------------------------------------
 Center     Atomic      Atomic             Coordinates (Angstroms)
 Number     Number       Type             X           Y           Z
 ---------------------------------------------------------------------
      1          6           0        2.591641   -3.007426    0.308182
      2          6           0        2.270120   -1.564124    0.152091
      3          6           0        3.304661   -0.603173    0.074710
      4          6           0        4.655079   -0.997948    0.154441
      5          6           0        5.012535   -2.431953    0.323992
      6          6           0        0.960310   -1.166795    0.121056
      7          6           0        2.953106    0.764502   -0.098231
      8          6           0        1.583666    1.165822   -0.170256
      9          6           0        0.559491    0.198357   -0.001348
     10          6           0        1.307942    2.577120   -0.551262
     11          6           0        3.736241    3.139273   -0.403557
     12          6           0        4.012842    1.701642   -0.192934
     13          6           0        5.336561    1.295037   -0.100418
     14          6           0        5.665216   -0.052173    0.073007
     15          1           0        6.696046   -0.375038    0.139890
     16          1           0        6.108006    2.051350   -0.171342
     17          1           0        0.207331   -1.935096    0.240127
     18          7           0        2.394323    3.472469   -0.593725
     19          7           0        3.946996   -3.346246    0.384629
     20          8           0        1.736050   -3.871271    0.369253
     21          8           0        6.167706   -2.805186    0.404168
     22          8           0        4.617380    3.981412   -0.434848
     23          8           0        0.206057    3.005529   -0.849085
     24          6           0        2.065268    4.865912   -0.925590
     25          1           0        1.628398    4.917332   -1.923255
     26          1           0        1.337408    5.253223   -0.212674
     27          1           0        2.984343    5.441603   -0.882025
     28          6           0        4.253611   -4.774969    0.543165
     29          1           0        3.791036   -5.151465    1.455767
     30          1           0        3.851634   -5.333476   -0.302488
     31          1           0        5.332622   -4.881417    0.591340
     32          6           0       -0.870324    0.445195    0.143832
     33          6           0       -1.547699    1.518877    0.686018
     34         16           0       -2.010160   -0.801711   -0.349890
     35          6           0       -2.941940    1.346532    0.713188
     36          1           0       -1.051168    2.400892    1.051677
     37          6           0       -3.386028    0.136505    0.173244
     38          8           0       -3.855960    2.226693    1.197654
     39          6           0       -4.740096   -0.313402    0.023903
     40          6           0       -3.389303    3.501938    1.633218
     41          6           0       -5.178829   -1.527644   -0.496680
     42         16           0       -6.132060    0.655009    0.496426
     43          1           0       -4.277966    4.063292    1.915820
     44          1           0       -2.730611    3.402708    2.502064
     45          1           0       -2.863676    4.022644    0.827136
     46          6           0       -6.592279   -1.675992   -0.515689
     47          8           0       -4.265599   -2.433579   -0.928037
     48          6           0       -7.227848   -0.575501   -0.010295
     49          1           0       -7.112583   -2.548637   -0.882261
     50          6           0       -4.737249   -3.677975   -1.438649
     51          1           0       -8.290659   -0.420496    0.095720
     52          1           0       -5.361870   -3.527482   -2.324801
     53          1           0       -3.848454   -4.243147   -1.712455
     54          1           0       -5.298774   -4.227718   -0.676788
 ---------------------------------------------------------------------

 The electronic state is 1-A.
 Alpha  occ. eigenvalues --  -88.88682 -88.88624 -19.17481 -19.17126 -19.12209
 Alpha  occ. eigenvalues --  -19.12177 -19.11513 -19.11467 -14.38383 -14.37889
 Alpha  occ. eigenvalues --  -10.30803 -10.30648 -10.30386 -10.30078 -10.25170
 Alpha  occ. eigenvalues --  -10.24865 -10.24093 -10.23723 -10.23720 -10.22742
 Alpha  occ. eigenvalues --  -10.22639 -10.22275 -10.22195 -10.22175 -10.22054
 Alpha  occ. eigenvalues --  -10.21965 -10.21945 -10.21647 -10.21333 -10.21229
 Alpha  occ. eigenvalues --  -10.20861 -10.20748 -10.20662 -10.20593 -10.19252
 Alpha  occ. eigenvalues --  -10.19024  -7.97233  -7.97189  -5.93543  -5.93505
 Alpha  occ. eigenvalues --   -5.93153  -5.93116  -5.92801  -5.92737  -1.09045
 Alpha  occ. eigenvalues --   -1.08698  -1.08460  -1.07995  -1.06645  -1.06075
 Alpha  occ. eigenvalues --   -0.96023  -0.95445  -0.92166  -0.90600  -0.89010
 Alpha  occ. eigenvalues --   -0.86474  -0.83964  -0.80458  -0.78239  -0.77822
 Alpha  occ. eigenvalues --   -0.76615  -0.75597  -0.74961  -0.73422  -0.72296
 Alpha  occ. eigenvalues --   -0.71775  -0.70531  -0.68885  -0.66961  -0.65637
 Alpha  occ. eigenvalues --   -0.65489  -0.64483  -0.61239  -0.60046  -0.58527
 Alpha  occ. eigenvalues --   -0.57280  -0.56780  -0.56631  -0.55210  -0.55043
 Alpha  occ. eigenvalues --   -0.53386  -0.51509  -0.50327  -0.49830  -0.49560
 Alpha  occ. eigenvalues --   -0.49252  -0.49040  -0.48672  -0.48570  -0.48389
 Alpha  occ. eigenvalues --   -0.48188  -0.46932  -0.46501  -0.46218  -0.45871
 Alpha  occ. eigenvalues --   -0.45720  -0.44770  -0.44373  -0.44015  -0.43482
 Alpha  occ. eigenvalues --   -0.42922  -0.42628  -0.42400  -0.41947  -0.41917
 Alpha  occ. eigenvalues --   -0.41683  -0.41035  -0.41001  -0.40380  -0.39939
 Alpha  occ. eigenvalues --   -0.39421  -0.39152  -0.39016  -0.37835  -0.37419
 Alpha  occ. eigenvalues --   -0.36630  -0.36032  -0.34544  -0.34245  -0.33783
 Alpha  occ. eigenvalues --   -0.33638  -0.31898  -0.30848  -0.30379  -0.29613
 Alpha  occ. eigenvalues --   -0.29178  -0.28715  -0.28544  -0.27863  -0.27228
 Alpha  occ. eigenvalues --   -0.25977  -0.24898  -0.24768  -0.19604
 Alpha virt. eigenvalues --   -0.12879  -0.07596  -0.06299  -0.04369  -0.03691
 Alpha virt. eigenvalues --   -0.00858  -0.00488  -0.00332  -0.00048   0.00378
 Alpha virt. eigenvalues --    0.00827   0.01225   0.01443   0.01705   0.01895

 Mulliken charges:
               1
     1  C    0.281072
     2  C   -0.089539
     3  C    0.178733
     4  C    0.203540
     5  C    0.226666
     6  C   -0.130637
     7  C    0.222526
     8  C    0.478506
     9  C    0.326194
    10  C   -0.617682
    11  C    0.223705
    12  C    0.133355
    13  C   -0.479358
    14  C   -0.586033
    15  H    0.158113
    16  H    0.160541
    17  H    0.173538
    18  N   -0.096283
    19  N   -0.141372
    20  O   -0.283751
    21  O   -0.268555
    22  O   -0.278849
    23  O   -0.228761
    24  C   -0.177502
    25  H    0.177145
    26  H    0.166683
    27  H    0.182769
    28  C   -0.198660
    29  H    0.173900
    30  H    0.173374
    31  H    0.181853
    32  C    0.050378
    33  C   -0.492892
    34  S   -0.636237
    35  C   -0.211602
    36  H    0.138848
    37  C    0.715430
    38  O   -0.127874
    39  C    0.854321
    40  C   -0.241075
    41  C   -0.014117
    42  S   -0.252643
    43  H    0.165918
    44  H    0.145312
    45  H    0.163433
    46  C   -0.616672
    47  O   -0.128361
    48  C   -0.275300
    49  H    0.133163
    50  C   -0.240795
    51  H    0.162400
    52  H    0.145646
    53  H    0.170449
    54  H    0.147038
 Sum of Mulliken charges =  -0.00000

 Dipole moment (field-independent basis, Debye):
    X=             -5.1756    Y=             -0.6265    Z=              0.3314  Tot=              5.2239
 Quadrupole moment (field-independent basis, Debye-Ang):
   XX=           -215.9430   YY=           -211.3774   ZZ=           -219.7206
   XY=              4.4483   XZ=              1.9434   YZ=             12.3213

 Normal termination of Gaussian 16 at Thu Nov 26 08:42:56 2020.
