 Gaussian 16, Revision C.01,
 Gaussian 16:  ES64L-G16RevC.01  3-Jul-2019

 -------------------------------------
 # opt=modredundant b3lyp/6-311+g(d,p)
 -------------------------------------

 ------------
 NDI_-130.pdb
 ------------
 Symbolic Z-matrix:
 Charge =  0 Multiplicity = 1

 SCF Done:  E(RB3LYP) =  -2359.32673119     A.U. after   17 cycles
 SCF Done:  E(RB3LYP) =  -2359.32717219     A.U. after   18 cycles
 SCF Done:  E(RB3LYP) =  -2359.33320401     A.U. after   17 cycles
 SCF Done:  E(RB3LYP) =  -2359.33397543     A.U. after   14 cycles
 SCF Done:  E(RB3LYP) =  -2359.33485104     A.U. after   15 cycles
 SCF Done:  E(RB3LYP) =  -2359.33544697     A.U. after   16 cycles
 SCF Done:  E(RB3LYP) =  -2359.33545012     A.U. after   18 cycles
 SCF Done:  E(RB3LYP) =  -2359.33600803     A.U. after   16 cycles
 SCF Done:  E(RB3LYP) =  -2359.33604463     A.U. after   14 cycles
 SCF Done:  E(RB3LYP) =  -2359.33629754     A.U. after   13 cycles
 SCF Done:  E(RB3LYP) =  -2359.33648133     A.U. after   11 cycles
 SCF Done:  E(RB3LYP) =  -2359.33648757     A.U. after   11 cycles
 SCF Done:  E(RB3LYP) =  -2359.33649031     A.U. after   10 cycles
 SCF Done:  E(RB3LYP) =  -2359.33649157     A.U. after   10 cycles
 SCF Done:  E(RB3LYP) =  -2359.33649181     A.U. after   10 cycles
 SCF Done:  E(RB3LYP) =  -2359.33649188     A.U. after    8 cycles
 SCF Done:  E(RB3LYP) =  -2359.33649193     A.U. after    8 cycles
 SCF Done:  E(RB3LYP) =  -2359.33649197     A.U. after    9 cycles
 SCF Done:  E(RB3LYP) =  -2359.33649201     A.U. after    8 cycles
 SCF Done:  E(RB3LYP) =  -2359.33649202     A.U. after    8 cycles
 Optimization completed.
    -- Stationary point found.

                         Standard orientation:
 ---------------------------------------------------------------------
 Center     Atomic      Atomic             Coordinates (Angstroms)
 Number     Number       Type             X           Y           Z
 ---------------------------------------------------------------------
      1          6           0       -3.525429   -2.696322    0.444138
      2          6           0       -2.769906   -1.453626    0.137695
      3          6           0       -3.430331   -0.203486    0.124299
      4          6           0       -4.807967   -0.111719    0.415948
      5          6           0       -5.589904   -1.334697    0.742173
      6          6           0       -1.416897   -1.518833   -0.097949
      7          6           0       -2.687003    0.964217   -0.199258
      8          6           0       -1.298000    0.873188   -0.494086
      9          6           0       -0.639854   -0.362637   -0.377942
     10          6           0       -0.622389    2.082068   -1.045179
     11          6           0       -2.640632    3.458746   -0.549215
     12          6           0       -3.365125    2.207647   -0.213376
     13          6           0       -4.716097    2.276824    0.087106
     14          6           0       -5.441706    1.119700    0.399897
     15          1           0       -6.498453    1.168536    0.629538
     16          1           0       -5.196728    3.246933    0.073366
     17          1           0       -0.924247   -2.480275   -0.027162
     18          7           0       -1.306484    3.307943   -0.935181
     19          7           0       -4.888969   -2.552730    0.729175
     20          8           0       -3.006935   -3.797494    0.452746
     21          8           0       -6.776912   -1.292230    1.004682
     22          8           0       -3.176541    4.552241   -0.514240
     23          8           0        0.458768    2.055428   -1.598984
     24          6           0       -0.578783    4.499045   -1.396252
     25          1           0        0.425830    4.488672   -0.977672
     26          1           0       -0.499149    4.497239   -2.485010
     27          1           0       -1.129916    5.374629   -1.067359
     28          6           0       -5.622544   -3.789065    1.037010
     29          1           0       -5.561585   -4.473429    0.190561
     30          1           0       -5.176810   -4.274567    1.905400
     31          1           0       -6.655418   -3.523216    1.237954
     32          6           0        0.808664   -0.570838   -0.477243
     33          6           0        1.451784   -1.501172   -1.261701
     34         16           0        1.934808    0.288668    0.533815
     35          6           0        2.854073   -1.499110   -1.077098
     36          1           0        0.930029   -2.132909   -1.966264
     37          6           0        3.302364   -0.592927   -0.120465
     38          8           0        3.756835   -2.282645   -1.726649
     39          6           0        4.652458   -0.380707    0.328480
     40          6           0        3.265597   -3.222480   -2.676511
     41          6           0        5.097995    0.520567    1.287699
     42         16           0        6.025306   -1.279410   -0.306846
     43          1           0        4.140781   -3.741122   -3.063761
     44          1           0        2.592698   -3.946117   -2.204713
     45          1           0        2.748470   -2.717767   -3.499097
     46          6           0        6.503286    0.494194    1.505524
     47          8           0        4.197913    1.319841    1.921124
     48          6           0        7.126283   -0.429367    0.713179
     49          1           0        7.026494    1.123649    2.210393
     50          6           0        4.689408    2.272108    2.858390
     51          1           0        8.180016   -0.658363    0.670726
     52          1           0        5.376657    2.977716    2.380470
     53          1           0        3.816124    2.808729    3.224995
     54          1           0        5.190456    1.777982    3.697169
 ---------------------------------------------------------------------

 The electronic state is 1-A.
 Alpha  occ. eigenvalues --  -88.88084 -88.88076 -19.16894 -19.16769 -19.12509
 Alpha  occ. eigenvalues --  -19.12471 -19.11956 -19.11888 -14.38663 -14.38135
 Alpha  occ. eigenvalues --  -10.31118 -10.30949 -10.30603 -10.30542 -10.24422
 Alpha  occ. eigenvalues --  -10.24394 -10.23764 -10.23630 -10.23572 -10.22939
 Alpha  occ. eigenvalues --  -10.22699 -10.22651 -10.22391 -10.22381 -10.22219
 Alpha  occ. eigenvalues --  -10.21874 -10.21863 -10.21591 -10.21439 -10.21298
 Alpha  occ. eigenvalues --  -10.21245 -10.21074 -10.20732 -10.20651 -10.18942
 Alpha  occ. eigenvalues --  -10.18685  -7.96637  -7.96632  -5.92956  -5.92947
 Alpha  occ. eigenvalues --   -5.92564  -5.92558  -5.92206  -5.92169  -1.08744
 Alpha  occ. eigenvalues --   -1.08435  -1.08322  -1.08309  -1.06942  -1.06472
 Alpha  occ. eigenvalues --   -0.96302  -0.95793  -0.92585  -0.90180  -0.88627
 Alpha  occ. eigenvalues --   -0.86733  -0.84372  -0.80470  -0.78536  -0.77509
 Alpha  occ. eigenvalues --   -0.76335  -0.75238  -0.75119  -0.73107  -0.72558
 Alpha  occ. eigenvalues --   -0.71564  -0.70380  -0.68834  -0.67162  -0.65961
 Alpha  occ. eigenvalues --   -0.65550  -0.64853  -0.60899  -0.59826  -0.58609
 Alpha  occ. eigenvalues --   -0.57491  -0.56752  -0.56172  -0.55151  -0.54689
 Alpha  occ. eigenvalues --   -0.53804  -0.51741  -0.50272  -0.49925  -0.49757
 Alpha  occ. eigenvalues --   -0.49479  -0.48721  -0.48624  -0.48551  -0.48342
 Alpha  occ. eigenvalues --   -0.48023  -0.47187  -0.46661  -0.46410  -0.45803
 Alpha  occ. eigenvalues --   -0.45434  -0.44995  -0.44797  -0.44347  -0.43941
 Alpha  occ. eigenvalues --   -0.42834  -0.42434  -0.42293  -0.41962  -0.41843
 Alpha  occ. eigenvalues --   -0.41529  -0.41344  -0.41183  -0.40654  -0.39981
 Alpha  occ. eigenvalues --   -0.39539  -0.39052  -0.38649  -0.37765  -0.37384
 Alpha  occ. eigenvalues --   -0.36313  -0.35810  -0.34103  -0.33765  -0.33547
 Alpha  occ. eigenvalues --   -0.33498  -0.32190  -0.31051  -0.30267  -0.29732
 Alpha  occ. eigenvalues --   -0.29273  -0.28882  -0.28760  -0.28097  -0.27517
 Alpha  occ. eigenvalues --   -0.26187  -0.24725  -0.24276  -0.19180
 Alpha virt. eigenvalues --   -0.13130  -0.07111  -0.06314  -0.04769  -0.04014
 Alpha virt. eigenvalues --   -0.00889  -0.00525  -0.00310   0.00003   0.00515
 Alpha virt. eigenvalues --    0.00720   0.01023   0.01134   0.01444   0.01865

 Mulliken charges:
               1
     1  C    0.385435
     2  C   -0.116895
     3  C    0.109805
     4  C    0.225544
     5  C    0.242279
     6  C   -0.351013
     7  C    0.144780
     8  C    0.126833
     9  C    0.316140
    10  C   -0.437811
    11  C    0.282718
    12  C    0.103523
    13  C   -0.440370
    14  C   -0.595102
    15  H    0.160200
    16  H    0.161460
    17  H    0.161913
    18  N   -0.044564
    19  N   -0.143205
    20  O   -0.277338
    21  O   -0.271044
    22  O   -0.280740
    23  O   -0.192881
    24  C   -0.174529
    25  H    0.177165
    26  H    0.178286
    27  H    0.182277
    28  C   -0.197908
    29  H    0.173829
    30  H    0.175205
    31  H    0.182621
    32  C    0.431962
    33  C   -0.583932
    34  S   -0.509424
    35  C   -0.110845
    36  H    0.129694
    37  C    0.469243
    38  O   -0.131336
    39  C    0.866893
    40  C   -0.224050
    41  C    0.015312
    42  S   -0.268347
    43  H    0.166382
    44  H    0.150227
    45  H    0.148547
    46  C   -0.594427
    47  O   -0.138476
    48  C   -0.288694
    49  H    0.130571
    50  C   -0.239811
    51  H    0.159496
    52  H    0.146103
    53  H    0.164780
    54  H    0.143524
 Sum of Mulliken charges =  -0.00000

 Dipole moment (field-independent basis, Debye):
    X=              3.3511    Y=             -0.3675    Z=              0.4334  Tot=              3.3989
 Quadrupole moment (field-independent basis, Debye-Ang):
   XX=           -215.8940   YY=           -222.8599   ZZ=           -210.9404
   XY=              8.5593   XZ=             10.7021   YZ=             14.9523

 Normal termination of Gaussian 16 at Thu Nov 26 05:54:39 2020.
