 Gaussian 16, Revision C.01,
 Gaussian 16:  ES64L-G16RevC.01  3-Jul-2019

 -------------------------------------
 # opt=modredundant b3lyp/6-311+g(d,p)
 -------------------------------------

 ----------
 NDI_55.pdb
 ----------
 Symbolic Z-matrix:
 Charge =  0 Multiplicity = 1

 SCF Done:  E(RB3LYP) =  -2359.33262186     A.U. after   17 cycles
 SCF Done:  E(RB3LYP) =  -2359.33640473     A.U. after   16 cycles
 SCF Done:  E(RB3LYP) =  -2359.33703730     A.U. after   16 cycles
 SCF Done:  E(RB3LYP) =  -2359.33715172     A.U. after   13 cycles
 SCF Done:  E(RB3LYP) =  -2359.33739658     A.U. after   12 cycles
 SCF Done:  E(RB3LYP) =  -2359.33745165     A.U. after   12 cycles
 SCF Done:  E(RB3LYP) =  -2359.33755850     A.U. after   13 cycles
 SCF Done:  E(RB3LYP) =  -2359.33757559     A.U. after   12 cycles
 SCF Done:  E(RB3LYP) =  -2359.33759631     A.U. after   12 cycles
 SCF Done:  E(RB3LYP) =  -2359.33761707     A.U. after   14 cycles
 SCF Done:  E(RB3LYP) =  -2359.33762231     A.U. after   11 cycles
 SCF Done:  E(RB3LYP) =  -2359.33762278     A.U. after   11 cycles
 SCF Done:  E(RB3LYP) =  -2359.33762289     A.U. after    9 cycles
 SCF Done:  E(RB3LYP) =  -2359.33762293     A.U. after    9 cycles
 SCF Done:  E(RB3LYP) =  -2359.33762297     A.U. after    9 cycles
 SCF Done:  E(RB3LYP) =  -2359.33762301     A.U. after   10 cycles
 SCF Done:  E(RB3LYP) =  -2359.33762304     A.U. after   10 cycles
 SCF Done:  E(RB3LYP) =  -2359.33762305     A.U. after   11 cycles
 SCF Done:  E(RB3LYP) =  -2359.33762307     A.U. after   10 cycles
 SCF Done:  E(RB3LYP) =  -2359.33762309     A.U. after   10 cycles
 Optimization completed.
    -- Stationary point found.

                         Standard orientation:
 ---------------------------------------------------------------------
 Center     Atomic      Atomic             Coordinates (Angstroms)
 Number     Number       Type             X           Y           Z
 ---------------------------------------------------------------------
      1          6           0       -2.669427   -2.939800    0.577439
      2          6           0       -2.309086   -1.516837    0.338138
      3          6           0       -3.315570   -0.554569    0.096602
      4          6           0       -4.675011   -0.930385    0.071571
      5          6           0       -5.071656   -2.342732    0.319891
      6          6           0       -0.990251   -1.140417    0.364954
      7          6           0       -2.931858    0.795231   -0.137385
      8          6           0       -1.558145    1.178963   -0.094955
      9          6           0       -0.569563    0.209616    0.186576
     10          6           0       -1.220842    2.594933   -0.407916
     11          6           0       -3.635009    3.139990   -0.737248
     12          6           0       -3.958616    1.728832   -0.426769
     13          6           0       -5.289291    1.339101   -0.447315
     14          6           0       -5.654322    0.012834   -0.192643
     15          1           0       -6.691649   -0.295860   -0.207391
     16          1           0       -6.037568    2.088433   -0.672625
     17          1           0       -0.249321   -1.900973    0.573560
     18          7           0       -2.276867    3.461214   -0.750765
     19          7           0       -4.032331   -3.258186    0.554233
     20          8           0       -1.838553   -3.804089    0.785806
     21          8           0       -6.235711   -2.696288    0.319464
     22          8           0       -4.493096    3.971259   -0.978777
     23          8           0       -0.089408    3.044937   -0.399068
     24          6           0       -1.892383    4.840036   -1.085331
     25          1           0       -1.457219    5.330842   -0.213540
     26          1           0       -1.147201    4.827034   -1.879586
     27          1           0       -2.787380    5.365713   -1.402516
     28          6           0       -4.376237   -4.666424    0.798178
     29          1           0       -3.900184   -5.296391    0.046551
     30          1           0       -4.013767   -4.968947    1.780899
     31          1           0       -5.456205   -4.760252    0.745613
     32          6           0        0.874887    0.439354    0.291929
     33          6           0        1.572463    1.323193    1.083558
     34         16           0        1.968869   -0.691240   -0.481599
     35          6           0        2.966512    1.116618    1.053135
     36          1           0        1.089951    2.099645    1.654714
     37          6           0        3.375896    0.064614    0.235284
     38          8           0        3.903703    1.835276    1.727434
     39          6           0        4.718973   -0.355942   -0.053411
     40          6           0        3.473455    2.997412    2.431535
     41          6           0        5.122828   -1.427631   -0.842202
     42         16           0        6.138969    0.470468    0.577173
     43          1           0        4.376723    3.455767    2.830274
     44          1           0        2.969017    3.698887    1.759973
     45          1           0        2.806712    2.732063    3.258560
     46          6           0        6.533055   -1.581649   -0.938687
     47          8           0        4.182462   -2.208413   -1.435905
     48          6           0        7.201402   -0.626952   -0.223437
     49          1           0        7.028015   -2.357136   -1.504688
     50          6           0        4.622023   -3.317928   -2.213517
     51          1           0        8.269029   -0.510718   -0.116913
     52          1           0        5.193906   -4.024517   -1.603576
     53          1           0        3.718495   -3.802984   -2.578255
     54          1           0        5.227084   -2.987664   -3.063980
 ---------------------------------------------------------------------

 The electronic state is 1-A.
 Alpha  occ. eigenvalues --  -88.88321 -88.88284 -19.17087 -19.16738 -19.12393
 Alpha  occ. eigenvalues --  -19.12345 -19.11763 -19.11739 -14.38555 -14.38109
 Alpha  occ. eigenvalues --  -10.30998 -10.30821 -10.30600 -10.30347 -10.24687
 Alpha  occ. eigenvalues --  -10.24433 -10.23845 -10.23755 -10.23477 -10.22896
 Alpha  occ. eigenvalues --  -10.22659 -10.22528 -10.22231 -10.22225 -10.22144
 Alpha  occ. eigenvalues --  -10.21999 -10.21900 -10.21648 -10.21351 -10.21074
 Alpha  occ. eigenvalues --  -10.21017 -10.20993 -10.20893 -10.20688 -10.18880
 Alpha  occ. eigenvalues --  -10.18801  -7.96881  -7.96837  -5.93200  -5.93146
 Alpha  occ. eigenvalues --   -5.92811  -5.92757  -5.92427  -5.92405  -1.08642
 Alpha  occ. eigenvalues --   -1.08632  -1.08289  -1.08235  -1.06830  -1.06337
 Alpha  occ. eigenvalues --   -0.96205  -0.95676  -0.92408  -0.90289  -0.88733
 Alpha  occ. eigenvalues --   -0.86610  -0.84221  -0.80406  -0.78404  -0.77637
 Alpha  occ. eigenvalues --   -0.76362  -0.75251  -0.75134  -0.73128  -0.72417
 Alpha  occ. eigenvalues --   -0.71776  -0.70295  -0.68804  -0.67111  -0.65847
 Alpha  occ. eigenvalues --   -0.65563  -0.64651  -0.61052  -0.59822  -0.58570
 Alpha  occ. eigenvalues --   -0.57363  -0.56715  -0.56297  -0.55304  -0.54731
 Alpha  occ. eigenvalues --   -0.53476  -0.51653  -0.50221  -0.49867  -0.49738
 Alpha  occ. eigenvalues --   -0.49447  -0.48725  -0.48636  -0.48494  -0.48289
 Alpha  occ. eigenvalues --   -0.48089  -0.47033  -0.46559  -0.46262  -0.45840
 Alpha  occ. eigenvalues --   -0.45535  -0.44968  -0.44517  -0.44253  -0.43705
 Alpha  occ. eigenvalues --   -0.42716  -0.42511  -0.42345  -0.42000  -0.41829
 Alpha  occ. eigenvalues --   -0.41547  -0.41271  -0.41119  -0.40505  -0.39690
 Alpha  occ. eigenvalues --   -0.39638  -0.39189  -0.38776  -0.37647  -0.37454
 Alpha  occ. eigenvalues --   -0.36349  -0.35650  -0.34303  -0.33905  -0.33713
 Alpha  occ. eigenvalues --   -0.33389  -0.32124  -0.31000  -0.30321  -0.29807
 Alpha  occ. eigenvalues --   -0.29284  -0.28863  -0.28621  -0.28106  -0.27286
 Alpha  occ. eigenvalues --   -0.26122  -0.24645  -0.24507  -0.19331
 Alpha virt. eigenvalues --   -0.13051  -0.07166  -0.06392  -0.04646  -0.03914
 Alpha virt. eigenvalues --   -0.00891  -0.00393  -0.00298   0.00089   0.00497
 Alpha virt. eigenvalues --    0.00711   0.01097   0.01425   0.01485   0.01787

 Mulliken charges:
               1
     1  C    0.314318
     2  C   -0.011230
     3  C    0.088442
     4  C    0.252543
     5  C    0.214199
     6  C   -0.593596
     7  C    0.217565
     8  C    0.173563
     9  C    0.481610
    10  C   -0.247890
    11  C    0.386341
    12  C    0.107354
    13  C   -0.506717
    14  C   -0.661869
    15  H    0.159513
    16  H    0.161982
    17  H    0.185197
    18  N   -0.156935
    19  N   -0.143961
    20  O   -0.276334
    21  O   -0.268645
    22  O   -0.278639
    23  O   -0.191616
    24  C   -0.203048
    25  H    0.172660
    26  H    0.176044
    27  H    0.183424
    28  C   -0.197319
    29  H    0.173902
    30  H    0.174609
    31  H    0.182764
    32  C    0.099350
    33  C   -0.254531
    34  S   -0.509658
    35  C   -0.414501
    36  H    0.134432
    37  C    0.532276
    38  O   -0.120137
    39  C    0.913433
    40  C   -0.244155
    41  C   -0.044449
    42  S   -0.235982
    43  H    0.164857
    44  H    0.161384
    45  H    0.143962
    46  C   -0.491950
    47  O   -0.130788
    48  C   -0.281625
    49  H    0.131534
    50  C   -0.240441
    51  H    0.160707
    52  H    0.145894
    53  H    0.167189
    54  H    0.144967
 Sum of Mulliken charges =  -0.00000

 Dipole moment (field-independent basis, Debye):
    X=              3.9791    Y=             -0.5103    Z=              0.0464  Tot=              4.0119
 Quadrupole moment (field-independent basis, Debye-Ang):
   XX=           -218.6502   YY=           -216.3323   ZZ=           -213.8503
   XY=             -3.4193   XZ=             -6.4472   YZ=             16.2594

 Normal termination of Gaussian 16 at Thu Nov 26 11:37:05 2020.
