 Gaussian 16, Revision C.01,
 Gaussian 16:  ES64L-G16RevC.01  3-Jul-2019

 -------------------------------------
 # opt=modredundant b3lyp/6-311+g(d,p)
 -------------------------------------

 ----------
 NDI_10.pdb
 ----------
 Symbolic Z-matrix:
 Charge =  0 Multiplicity = 1

 SCF Done:  E(RB3LYP) =  -2359.31941688     A.U. after   17 cycles
 SCF Done:  E(RB3LYP) =  -2359.31611863     A.U. after   17 cycles
 SCF Done:  E(RB3LYP) =  -2359.33220479     A.U. after   14 cycles
 SCF Done:  E(RB3LYP) =  -2359.33427540     A.U. after   16 cycles
 SCF Done:  E(RB3LYP) =  -2359.33458185     A.U. after   15 cycles
 SCF Done:  E(RB3LYP) =  -2359.33494006     A.U. after   13 cycles
 SCF Done:  E(RB3LYP) =  -2359.33506894     A.U. after   13 cycles
 SCF Done:  E(RB3LYP) =  -2359.33514519     A.U. after   13 cycles
 SCF Done:  E(RB3LYP) =  -2359.33519430     A.U. after   12 cycles
 SCF Done:  E(RB3LYP) =  -2359.33525554     A.U. after   13 cycles
 SCF Done:  E(RB3LYP) =  -2359.33531816     A.U. after   11 cycles
 SCF Done:  E(RB3LYP) =  -2359.33532161     A.U. after   10 cycles
 SCF Done:  E(RB3LYP) =  -2359.33532366     A.U. after   10 cycles
 SCF Done:  E(RB3LYP) =  -2359.33532524     A.U. after   10 cycles
 SCF Done:  E(RB3LYP) =  -2359.33532679     A.U. after   10 cycles
 SCF Done:  E(RB3LYP) =  -2359.33532787     A.U. after   10 cycles
 SCF Done:  E(RB3LYP) =  -2359.33532853     A.U. after   10 cycles
 SCF Done:  E(RB3LYP) =  -2359.33532876     A.U. after   10 cycles
 SCF Done:  E(RB3LYP) =  -2359.33532880     A.U. after    9 cycles
 SCF Done:  E(RB3LYP) =  -2359.33532881     A.U. after    9 cycles
 Optimization completed.
    -- Stationary point found.

                         Standard orientation:
 ---------------------------------------------------------------------
 Center     Atomic      Atomic             Coordinates (Angstroms)
 Number     Number       Type             X           Y           Z
 ---------------------------------------------------------------------
      1          6           0       -2.372769   -3.004798    0.398333
      2          6           0       -2.154251   -1.538763    0.279763
      3          6           0       -3.237384   -0.668673    0.022716
      4          6           0       -4.534193   -1.181244   -0.170177
      5          6           0       -4.787333   -2.644186   -0.079598
      6          6           0       -0.889835   -1.039141    0.403145
      7          6           0       -2.979897    0.728447   -0.029655
      8          6           0       -1.661441    1.250483    0.185459
      9          6           0       -0.556516    0.353022    0.309075
     10          6           0       -1.562604    2.723761    0.316494
     11          6           0       -3.913369    3.033319   -0.438714
     12          6           0       -4.083259    1.570905   -0.324112
     13          6           0       -5.352555    1.047074   -0.533322
     14          6           0       -5.589604   -0.325702   -0.447626
     15          1           0       -6.578884   -0.737720   -0.598271
     16          1           0       -6.153419    1.737247   -0.766570
     17          1           0       -0.112639   -1.766597    0.594063
     18          7           0       -2.642502    3.510571   -0.120968
     19          7           0       -3.680662   -3.461970    0.208224
     20          8           0       -1.474161   -3.789482    0.642082
     21          8           0       -5.895512   -3.119646   -0.240380
     22          8           0       -4.817830    3.783390   -0.764735
     23          8           0       -0.606857    3.309804    0.803166
     24          6           0       -2.441602    4.966034   -0.083055
     25          1           0       -2.362292    5.311240    0.949042
     26          1           0       -1.518740    5.218411   -0.602973
     27          1           0       -3.296241    5.428497   -0.566867
     28          6           0       -3.887267   -4.912893    0.318516
     29          1           0       -3.269657   -5.429243   -0.416702
     30          1           0       -3.595227   -5.251714    1.312798
     31          1           0       -4.938849   -5.114692    0.141365
     32          6           0        0.880730    0.625629    0.301921
     33          6           0        1.642440    1.785059    0.354473
     34         16           0        1.964201   -0.758774    0.046964
     35          6           0        3.022113    1.572379    0.209215
     36          1           0        1.201440    2.747405    0.530635
     37          6           0        3.391859    0.238665    0.028910
     38          8           0        3.989017    2.525618    0.240625
     39          6           0        4.713234   -0.291751   -0.138866
     40          6           0        3.588190    3.879946    0.444486
     41          6           0        5.080735   -1.626548   -0.292178
     42         16           0        6.154570    0.718643   -0.177582
     43          1           0        4.506557    4.464103    0.441804
     44          1           0        2.933168    4.220616   -0.362954
     45          1           0        3.078680    3.998546    1.405250
     46          6           0        6.479837   -1.831088   -0.434737
     47          8           0        4.120590   -2.582942   -0.296393
     48          6           0        7.174592   -0.653583   -0.391745
     49          1           0        6.948863   -2.795572   -0.562497
     50          6           0        4.521506   -3.945742   -0.420257
     51          1           0        8.242153   -0.517282   -0.473734
     52          1           0        5.172806   -4.239862    0.408632
     53          1           0        3.603619   -4.529244   -0.386111
     54          1           0        5.030333   -4.119846   -1.373515
 ---------------------------------------------------------------------

 The electronic state is 1-A.
 Alpha  occ. eigenvalues --  -88.88895 -88.88586 -19.17657 -19.17104 -19.12173
 Alpha  occ. eigenvalues --  -19.12159 -19.11882 -19.11379 -14.38355 -14.37900
 Alpha  occ. eigenvalues --  -10.30760 -10.30624 -10.30603 -10.29924 -10.25448
 Alpha  occ. eigenvalues --  -10.24810 -10.24193 -10.24184 -10.23591 -10.22956
 Alpha  occ. eigenvalues --  -10.22685 -10.22636 -10.22457 -10.22244 -10.22036
 Alpha  occ. eigenvalues --  -10.21837 -10.21811 -10.21587 -10.21521 -10.21187
 Alpha  occ. eigenvalues --  -10.20855 -10.20653 -10.20590 -10.20505 -10.19449
 Alpha  occ. eigenvalues --  -10.18506  -7.97444  -7.97163  -5.93754  -5.93484
 Alpha  occ. eigenvalues --   -5.93364  -5.93087  -5.93013  -5.92704  -1.09246
 Alpha  occ. eigenvalues --   -1.08662  -1.08433  -1.08179  -1.06615  -1.06123
 Alpha  occ. eigenvalues --   -0.96001  -0.95533  -0.92080  -0.90684  -0.89079
 Alpha  occ. eigenvalues --   -0.86406  -0.83900  -0.80498  -0.78235  -0.77889
 Alpha  occ. eigenvalues --   -0.76693  -0.75576  -0.74967  -0.73509  -0.72294
 Alpha  occ. eigenvalues --   -0.71814  -0.70607  -0.68860  -0.67018  -0.65640
 Alpha  occ. eigenvalues --   -0.65501  -0.64451  -0.61329  -0.60099  -0.58595
 Alpha  occ. eigenvalues --   -0.57313  -0.56855  -0.56693  -0.55400  -0.54979
 Alpha  occ. eigenvalues --   -0.53297  -0.51469  -0.50572  -0.49880  -0.49556
 Alpha  occ. eigenvalues --   -0.49367  -0.49162  -0.48646  -0.48526  -0.48482
 Alpha  occ. eigenvalues --   -0.48206  -0.47190  -0.46422  -0.46201  -0.45969
 Alpha  occ. eigenvalues --   -0.45786  -0.44870  -0.44372  -0.44031  -0.43205
 Alpha  occ. eigenvalues --   -0.43034  -0.42490  -0.42304  -0.42033  -0.41911
 Alpha  occ. eigenvalues --   -0.41640  -0.41212  -0.41043  -0.40443  -0.39743
 Alpha  occ. eigenvalues --   -0.39463  -0.39106  -0.39016  -0.37815  -0.37314
 Alpha  occ. eigenvalues --   -0.36667  -0.36204  -0.34685  -0.34315  -0.33692
 Alpha  occ. eigenvalues --   -0.33380  -0.31850  -0.30800  -0.30456  -0.29779
 Alpha  occ. eigenvalues --   -0.29183  -0.28617  -0.28518  -0.27780  -0.27384
 Alpha  occ. eigenvalues --   -0.26051  -0.25119  -0.24969  -0.19819
 Alpha virt. eigenvalues --   -0.12725  -0.08018  -0.06307  -0.04286  -0.03577
 Alpha virt. eigenvalues --   -0.00832  -0.00501  -0.00287  -0.00104   0.00365
 Alpha virt. eigenvalues --    0.00908   0.01168   0.01325   0.01763   0.01991

 Mulliken charges:
               1
     1  C    0.390110
     2  C   -0.017535
     3  C    0.036521
     4  C    0.317337
     5  C    0.299816
     6  C   -0.101118
     7  C    0.061878
     8  C    0.332567
     9  C    0.167448
    10  C   -0.340423
    11  C    0.219579
    12  C    0.200451
    13  C   -0.459460
    14  C   -0.660728
    15  H    0.158073
    16  H    0.160722
    17  H    0.172126
    18  N   -0.072604
    19  N   -0.139731
    20  O   -0.284155
    21  O   -0.271494
    22  O   -0.287613
    23  O   -0.280201
    24  C   -0.170728
    25  H    0.175374
    26  H    0.168133
    27  H    0.182881
    28  C   -0.196879
    29  H    0.173156
    30  H    0.173579
    31  H    0.182079
    32  C   -0.223796
    33  C   -0.178127
    34  S   -0.782119
    35  C   -0.252956
    36  H    0.196712
    37  C    0.731746
    38  O   -0.139549
    39  C    0.787797
    40  C   -0.229619
    41  C    0.031673
    42  S   -0.226672
    43  H    0.166029
    44  H    0.151196
    45  H    0.156363
    46  C   -0.576169
    47  O   -0.123492
    48  C   -0.299811
    49  H    0.133707
    50  C   -0.242421
    51  H    0.163394
    52  H    0.147597
    53  H    0.173834
    54  H    0.145525
 Sum of Mulliken charges =  -0.00000

 Dipole moment (field-independent basis, Debye):
    X=              5.7116    Y=             -0.7922    Z=             -0.3954  Tot=              5.7798
 Quadrupole moment (field-independent basis, Debye-Ang):
   XX=           -215.0613   YY=           -206.4262   ZZ=           -225.1953
   XY=             -4.9049   XZ=             -6.4914   YZ=              3.8591

 Normal termination of Gaussian 16 at Thu Nov 26 10:24:15 2020.
