 Gaussian 16, Revision C.01,
 Gaussian 16:  ES64L-G16RevC.01  3-Jul-2019

 -------------------------------------
 # opt=modredundant b3lyp/6-311+g(d,p)
 -------------------------------------

 ------------
 NDI_-145.pdb
 ------------
 Symbolic Z-matrix:
 Charge =  0 Multiplicity = 1

 SCF Done:  E(RB3LYP) =  -2359.31875689     A.U. after   17 cycles
 SCF Done:  E(RB3LYP) =  -2359.32337562     A.U. after   17 cycles
 SCF Done:  E(RB3LYP) =  -2359.33091923     A.U. after   14 cycles
 SCF Done:  E(RB3LYP) =  -2359.33478643     A.U. after   14 cycles
 SCF Done:  E(RB3LYP) =  -2359.33513452     A.U. after   13 cycles
 SCF Done:  E(RB3LYP) =  -2359.33530552     A.U. after   13 cycles
 SCF Done:  E(RB3LYP) =  -2359.33538433     A.U. after   12 cycles
 SCF Done:  E(RB3LYP) =  -2359.33543136     A.U. after   12 cycles
 SCF Done:  E(RB3LYP) =  -2359.33546081     A.U. after   12 cycles
 SCF Done:  E(RB3LYP) =  -2359.33548175     A.U. after   12 cycles
 SCF Done:  E(RB3LYP) =  -2359.33666025     A.U. after   10 cycles
 SCF Done:  E(RB3LYP) =  -2359.33666035     A.U. after    9 cycles
 SCF Done:  E(RB3LYP) =  -2359.33666039     A.U. after    9 cycles
 SCF Done:  E(RB3LYP) =  -2359.33666040     A.U. after    8 cycles
 SCF Done:  E(RB3LYP) =  -2359.33666040     A.U. after    8 cycles
 SCF Done:  E(RB3LYP) =  -2359.33666041     A.U. after    8 cycles
 SCF Done:  E(RB3LYP) =  -2359.33666042     A.U. after    8 cycles
 SCF Done:  E(RB3LYP) =  -2359.33666043     A.U. after    7 cycles
 SCF Done:  E(RB3LYP) =  -2359.33666044     A.U. after    8 cycles
 SCF Done:  E(RB3LYP) =  -2359.33666045     A.U. after    8 cycles
 Optimization completed.
    -- Stationary point found.

                         Standard orientation:
 ---------------------------------------------------------------------
 Center     Atomic      Atomic             Coordinates (Angstroms)
 Number     Number       Type             X           Y           Z
 ---------------------------------------------------------------------
      1          6           0       -3.515080   -2.694892    0.372612
      2          6           0       -2.764603   -1.444601    0.085829
      3          6           0       -3.423729   -0.193624    0.119336
      4          6           0       -4.794248   -0.108778    0.439885
      5          6           0       -5.571305   -1.339627    0.746214
      6          6           0       -1.416958   -1.505253   -0.169582
      7          6           0       -2.681773    0.979694   -0.186305
      8          6           0       -1.297613    0.895202   -0.508479
      9          6           0       -0.634558   -0.345498   -0.432912
     10          6           0       -0.644919    2.113106   -1.062345
     11          6           0       -2.642486    3.481934   -0.472957
     12          6           0       -3.359386    2.223427   -0.153737
     13          6           0       -4.704489    2.286497    0.176490
     14          6           0       -5.426786    1.123835    0.471545
     15          1           0       -6.478599    1.167909    0.723383
     16          1           0       -5.182229    3.257883    0.198641
     17          1           0       -0.931194   -2.470919   -0.119458
     18          7           0       -1.321542    3.337866   -0.903418
     19          7           0       -4.872669   -2.558244    0.685464
     20          8           0       -2.997388   -3.796518    0.342530
     21          8           0       -6.753032   -1.304391    1.032609
     22          8           0       -3.173413    4.575863   -0.392422
     23          8           0        0.413340    2.097644   -1.661021
     24          6           0       -0.608162    4.536769   -1.365815
     25          1           0        0.409835    4.518558   -0.981075
     26          1           0       -0.564222    4.555332   -2.456446
     27          1           0       -1.147396    5.406153   -1.002445
     28          6           0       -5.602633   -3.801705    0.971866
     29          1           0       -5.554807   -4.463721    0.107009
     30          1           0       -5.144723   -4.310122    1.820648
     31          1           0       -6.632133   -3.540595    1.195119
     32          6           0        0.809056   -0.565009   -0.514926
     33          6           0        1.429667   -1.653095   -1.098871
     34         16           0        1.962863    0.417525    0.344023
     35          6           0        2.824206   -1.672943   -0.892025
     36          1           0        0.894107   -2.387401   -1.683135
     37          6           0        3.297294   -0.624768   -0.103808
     38          8           0        3.703475   -2.593074   -1.371740
     39          6           0        4.649659   -0.383549    0.317389
     40          6           0        3.186567   -3.672945   -2.142873
     41          6           0        5.120559    0.656685    1.111343
     42         16           0        5.994503   -1.425416   -0.134067
     43          1           0        4.045375   -4.284124   -2.414300
     44          1           0        2.482036   -4.273633   -1.558333
     45          1           0        2.697210   -3.308709   -3.052045
     46          6           0        6.522238    0.621323    1.347604
     47          8           0        4.245843    1.582541    1.584112
     48          6           0        7.116739   -0.447372    0.736100
     49          1           0        7.063051    1.345861    1.938584
     50          6           0        4.763809    2.670389    2.343718
     51          1           0        8.161910   -0.716022    0.748804
     52          1           0        5.476619    3.257238    1.755690
     53          1           0        3.906692    3.290736    2.599175
     54          1           0        5.243107    2.316737    3.262250
 ---------------------------------------------------------------------

 The electronic state is 1-A.
 Alpha  occ. eigenvalues --  -88.88386 -88.88260 -19.17198 -19.16992 -19.12376
 Alpha  occ. eigenvalues --  -19.12356 -19.11728 -19.11651 -14.38541 -14.37940
 Alpha  occ. eigenvalues --  -10.30976 -10.30831 -10.30391 -10.30306 -10.24800
 Alpha  occ. eigenvalues --  -10.24638 -10.23974 -10.23792 -10.23548 -10.22735
 Alpha  occ. eigenvalues --  -10.22444 -10.22344 -10.22286 -10.22188 -10.22172
 Alpha  occ. eigenvalues --  -10.22093 -10.21947 -10.21750 -10.21475 -10.21041
 Alpha  occ. eigenvalues --  -10.20995 -10.20986 -10.20981 -10.20614 -10.19208
 Alpha  occ. eigenvalues --  -10.18973  -7.96939  -7.96816  -5.93249  -5.93139
 Alpha  occ. eigenvalues --   -5.92859  -5.92745  -5.92507  -5.92355  -1.08753
 Alpha  occ. eigenvalues --   -1.08615  -1.08548  -1.08106  -1.06811  -1.06242
 Alpha  occ. eigenvalues --   -0.96170  -0.95596  -0.92391  -0.90403  -0.88838
 Alpha  occ. eigenvalues --   -0.86632  -0.84172  -0.80505  -0.78355  -0.77656
 Alpha  occ. eigenvalues --   -0.76530  -0.75425  -0.75060  -0.73318  -0.72444
 Alpha  occ. eigenvalues --   -0.71481  -0.70600  -0.68916  -0.67022  -0.65806
 Alpha  occ. eigenvalues --   -0.65454  -0.64757  -0.60984  -0.59982  -0.58597
 Alpha  occ. eigenvalues --   -0.57401  -0.56780  -0.56421  -0.55091  -0.54879
 Alpha  occ. eigenvalues --   -0.53748  -0.51592  -0.50195  -0.49931  -0.49649
 Alpha  occ. eigenvalues --   -0.49392  -0.48863  -0.48679  -0.48554  -0.48417
 Alpha  occ. eigenvalues --   -0.48175  -0.47029  -0.46597  -0.46299  -0.45879
 Alpha  occ. eigenvalues --   -0.45606  -0.44901  -0.44666  -0.44232  -0.43798
 Alpha  occ. eigenvalues --   -0.42880  -0.42439  -0.42234  -0.42003  -0.41778
 Alpha  occ. eigenvalues --   -0.41747  -0.41257  -0.41076  -0.40578  -0.39907
 Alpha  occ. eigenvalues --   -0.39464  -0.39153  -0.38794  -0.37772  -0.37412
 Alpha  occ. eigenvalues --   -0.36548  -0.36002  -0.34295  -0.34025  -0.33716
 Alpha  occ. eigenvalues --   -0.33604  -0.31978  -0.30913  -0.30265  -0.29673
 Alpha  occ. eigenvalues --   -0.29263  -0.28731  -0.28680  -0.27918  -0.27472
 Alpha  occ. eigenvalues --   -0.26019  -0.24933  -0.24412  -0.19397
 Alpha virt. eigenvalues --   -0.12981  -0.07308  -0.06315  -0.04588  -0.03836
 Alpha virt. eigenvalues --   -0.00869  -0.00573  -0.00350  -0.00118   0.00390
 Alpha virt. eigenvalues --    0.00752   0.01102   0.01213   0.01608   0.01840

 Mulliken charges:
               1
     1  C    0.371785
     2  C   -0.098366
     3  C    0.108169
     4  C    0.247423
     5  C    0.230075
     6  C   -0.182952
     7  C    0.133765
     8  C    0.186986
     9  C    0.282852
    10  C   -0.470984
    11  C    0.305834
    12  C    0.086323
    13  C   -0.467941
    14  C   -0.578238
    15  H    0.159313
    16  H    0.160850
    17  H    0.161422
    18  N   -0.028324
    19  N   -0.144652
    20  O   -0.281574
    21  O   -0.270100
    22  O   -0.282931
    23  O   -0.210527
    24  C   -0.178608
    25  H    0.175269
    26  H    0.178092
    27  H    0.181966
    28  C   -0.195648
    29  H    0.173338
    30  H    0.174695
    31  H    0.182333
    32  C    0.270365
    33  C   -0.679681
    34  S   -0.626198
    35  C   -0.063203
    36  H    0.136138
    37  C    0.632966
    38  O   -0.135676
    39  C    0.889322
    40  C   -0.224600
    41  C   -0.002459
    42  S   -0.256006
    43  H    0.167205
    44  H    0.151919
    45  H    0.148012
    46  C   -0.615237
    47  O   -0.133650
    48  C   -0.277317
    49  H    0.131606
    50  C   -0.241742
    51  H    0.160970
    52  H    0.147408
    53  H    0.165878
    54  H    0.144337
 Sum of Mulliken charges =  -0.00000

 Dipole moment (field-independent basis, Debye):
    X=              4.1904    Y=             -0.5646    Z=              0.5993  Tot=              4.2706
 Quadrupole moment (field-independent basis, Debye-Ang):
   XX=           -213.7104   YY=           -218.7379   ZZ=           -216.1116
   XY=              9.6372   XZ=             11.0500   YZ=             13.8749

 Normal termination of Gaussian 16 at Thu Nov 26 10:20:24 2020.
