 Gaussian 16, Revision C.01,
 Gaussian 16:  ES64L-G16RevC.01  3-Jul-2019

 -------------------------------------
 # opt=modredundant b3lyp/6-311+g(d,p)
 -------------------------------------

 ------------
 NDI_-105.pdb
 ------------
 Symbolic Z-matrix:
 Charge =  0 Multiplicity = 1

 SCF Done:  E(RB3LYP) =  -2359.32924589     A.U. after   19 cycles
 SCF Done:  E(RB3LYP) =  -2359.33376024     A.U. after   15 cycles
 SCF Done:  E(RB3LYP) =  -2359.33426817     A.U. after   15 cycles
 SCF Done:  E(RB3LYP) =  -2359.33448960     A.U. after   16 cycles
 SCF Done:  E(RB3LYP) =  -2359.33469852     A.U. after   14 cycles
 SCF Done:  E(RB3LYP) =  -2359.33474474     A.U. after   14 cycles
 SCF Done:  E(RB3LYP) =  -2359.33478701     A.U. after   13 cycles
 SCF Done:  E(RB3LYP) =  -2359.33479636     A.U. after   13 cycles
 SCF Done:  E(RB3LYP) =  -2359.33480376     A.U. after   13 cycles
 SCF Done:  E(RB3LYP) =  -2359.33480897     A.U. after   12 cycles
 SCF Done:  E(RB3LYP) =  -2359.33477504     A.U. after   10 cycles
 SCF Done:  E(RB3LYP) =  -2359.33477581     A.U. after   11 cycles
 SCF Done:  E(RB3LYP) =  -2359.33477623     A.U. after   10 cycles
 SCF Done:  E(RB3LYP) =  -2359.33477636     A.U. after    8 cycles
 SCF Done:  E(RB3LYP) =  -2359.33477649     A.U. after   10 cycles
 SCF Done:  E(RB3LYP) =  -2359.33483381     A.U. after   12 cycles
 SCF Done:  E(RB3LYP) =  -2359.33483389     A.U. after   12 cycles
 SCF Done:  E(RB3LYP) =  -2359.33483405     A.U. after   10 cycles
 SCF Done:  E(RB3LYP) =  -2359.33483411     A.U. after   10 cycles
 SCF Done:  E(RB3LYP) =  -2359.33483412     A.U. after    9 cycles
 Optimization completed.
    -- Stationary point found.

                         Standard orientation:
 ---------------------------------------------------------------------
 Center     Atomic      Atomic             Coordinates (Angstroms)
 Number     Number       Type             X           Y           Z
 ---------------------------------------------------------------------
      1          6           0        3.427611   -2.781595   -0.231887
      2          6           0        2.718692   -1.488896   -0.038329
      3          6           0        3.430280   -0.270819   -0.098039
      4          6           0        4.820464   -0.259189   -0.351739
      5          6           0        5.558470   -1.535112   -0.559140
      6          6           0        1.359792   -1.480035    0.184702
      7          6           0        2.731130    0.949910    0.106385
      8          6           0        1.332011    0.939198    0.364334
      9          6           0        0.635078   -0.275310    0.368287
     10          6           0        0.658757    2.234209    0.684636
     11          6           0        2.782148    3.467638    0.242896
     12          6           0        3.461398    2.161927    0.041545
     13          6           0        4.821894    2.150491   -0.213585
     14          6           0        5.505205    0.941150   -0.409113
     15          1           0        6.569686    0.928186   -0.606076
     16          1           0        5.345156    3.097245   -0.259278
     17          1           0        0.826011   -2.421794    0.201786
     18          7           0        1.418666    3.410308    0.540693
     19          7           0        4.804356   -2.717188   -0.483115
     20          8           0        2.860970   -3.856601   -0.178636
     21          8           0        6.753963   -1.559917   -0.781791
     22          8           0        3.376850    4.527160    0.163683
     23          8           0       -0.489167    2.317078    1.069635
     24          6           0        0.708949    4.670195    0.808531
     25          1           0       -0.205019    4.702720    0.217336
     26          1           0        0.438863    4.731452    1.863840
     27          1           0        1.371318    5.488106    0.543362
     28          6           0        5.490520   -4.003109   -0.677296
     29          1           0        5.379895   -4.617833    0.216257
     30          1           0        5.044270   -4.533949   -1.518331
     31          1           0        6.538502   -3.796693   -0.869613
     32          6           0       -0.826243   -0.411368    0.550342
     33          6           0       -1.489884   -0.842157    1.667275
     34         16           0       -1.923479   -0.050155   -0.749238
     35          6           0       -2.899440   -0.864772    1.488451
     36          1           0       -0.985671   -1.100886    2.587181
     37          6           0       -3.322527   -0.470305    0.228161
     38          8           0       -3.822061   -1.237023    2.418669
     39          6           0       -4.670565   -0.418268   -0.280571
     40          6           0       -3.356448   -1.620051    3.707216
     41          6           0       -5.089291   -0.025596   -1.543605
     42         16           0       -6.072159   -0.865867    0.682884
     43          1           0       -4.245325   -1.868224    4.284754
     44          1           0       -2.705213   -2.498655    3.648259
     45          1           0       -2.823708   -0.797356    4.195538
     46          6           0       -6.498409   -0.079327   -1.735913
     47          8           0       -4.162598    0.361087   -2.465352
     48          6           0       -7.151638   -0.514633   -0.617160
     49          1           0       -7.002650    0.189647   -2.652633
     50          6           0       -4.626639    0.794289   -3.738253
     51          1           0       -8.213821   -0.648408   -0.482027
     52          1           0       -5.278900    1.669002   -3.645158
     53          1           0       -3.737374    1.065232   -4.304999
     54          1           0       -5.158506   -0.008341   -4.259996
 ---------------------------------------------------------------------

 The electronic state is 1-A.
 Alpha  occ. eigenvalues --  -88.87676 -88.87478 -19.16260 -19.16238 -19.12822
 Alpha  occ. eigenvalues --  -19.12762 -19.12433 -19.12376 -14.38956 -14.38586
 Alpha  occ. eigenvalues --  -10.31446 -10.31239 -10.31069 -10.31034 -10.23823
 Alpha  occ. eigenvalues --  -10.23779 -10.23672 -10.23411 -10.23345 -10.23310
 Alpha  occ. eigenvalues --  -10.23258 -10.23200 -10.22849 -10.22776 -10.22775
 Alpha  occ. eigenvalues --  -10.21831 -10.21807 -10.21749 -10.21429 -10.21302
 Alpha  occ. eigenvalues --  -10.21003 -10.20997 -10.20804 -10.19968 -10.18368
 Alpha  occ. eigenvalues --  -10.18104  -7.96222  -7.96033  -5.92548  -5.92342
 Alpha  occ. eigenvalues --   -5.92157  -5.91954  -5.91759  -5.91602  -1.09057
 Alpha  occ. eigenvalues --   -1.08812  -1.07802  -1.07727  -1.07258  -1.06980
 Alpha  occ. eigenvalues --   -0.96622  -0.96225  -0.93001  -0.89732  -0.88245
 Alpha  occ. eigenvalues --   -0.86842  -0.84789  -0.80477  -0.78930  -0.77179
 Alpha  occ. eigenvalues --   -0.75894  -0.75531  -0.74562  -0.72942  -0.72595
 Alpha  occ. eigenvalues --   -0.71721  -0.69920  -0.68648  -0.67483  -0.66327
 Alpha  occ. eigenvalues --   -0.65810  -0.65032  -0.60805  -0.59519  -0.58581
 Alpha  occ. eigenvalues --   -0.57768  -0.56606  -0.55637  -0.55460  -0.54152
 Alpha  occ. eigenvalues --   -0.53925  -0.52051  -0.50554  -0.50177  -0.50014
 Alpha  occ. eigenvalues --   -0.49230  -0.48958  -0.48824  -0.48144  -0.47891
 Alpha  occ. eigenvalues --   -0.47599  -0.47596  -0.46939  -0.46610  -0.45565
 Alpha  occ. eigenvalues --   -0.45330  -0.45077  -0.44887  -0.44597  -0.44114
 Alpha  occ. eigenvalues --   -0.43024  -0.42740  -0.42361  -0.42049  -0.41772
 Alpha  occ. eigenvalues --   -0.41502  -0.41300  -0.41017  -0.40719  -0.40210
 Alpha  occ. eigenvalues --   -0.39895  -0.38865  -0.38219  -0.37839  -0.36995
 Alpha  occ. eigenvalues --   -0.35863  -0.35592  -0.33690  -0.33255  -0.33135
 Alpha  occ. eigenvalues --   -0.33065  -0.32646  -0.31355  -0.30475  -0.29969
 Alpha  occ. eigenvalues --   -0.29438  -0.29245  -0.28825  -0.28597  -0.27311
 Alpha  occ. eigenvalues --   -0.26664  -0.24241  -0.23858  -0.18693
 Alpha virt. eigenvalues --   -0.13487  -0.07219  -0.06157  -0.05055  -0.04331
 Alpha virt. eigenvalues --   -0.01081  -0.00194  -0.00085   0.00221   0.00605
 Alpha virt. eigenvalues --    0.00636   0.00841   0.01051   0.01153   0.01748

 Mulliken charges:
               1
     1  C    0.402224
     2  C    0.005325
     3  C    0.141370
     4  C    0.243741
     5  C    0.252363
     6  C   -0.695234
     7  C    0.161282
     8  C    0.019800
     9  C    0.480015
    10  C   -0.260991
    11  C    0.286622
    12  C    0.222850
    13  C   -0.529934
    14  C   -0.651647
    15  H    0.161986
    16  H    0.163291
    17  H    0.162665
    18  N   -0.120595
    19  N   -0.144376
    20  O   -0.268836
    21  O   -0.270458
    22  O   -0.272696
    23  O   -0.126525
    24  C   -0.199384
    25  H    0.179364
    26  H    0.178048
    27  H    0.183284
    28  C   -0.201050
    29  H    0.175260
    30  H    0.176000
    31  H    0.182981
    32  C    0.524812
    33  C   -0.832387
    34  S   -0.232564
    35  C   -0.282457
    36  H    0.114739
    37  C    0.321182
    38  O   -0.120766
    39  C    0.966051
    40  C   -0.242983
    41  C    0.021271
    42  S   -0.259983
    43  H    0.165422
    44  H    0.146649
    45  H    0.149114
    46  C   -0.518813
    47  O   -0.147035
    48  C   -0.307144
    49  H    0.128601
    50  C   -0.236077
    51  H    0.157042
    52  H    0.144105
    53  H    0.162307
    54  H    0.142166
 Sum of Mulliken charges =  -0.00000

 Dipole moment (field-independent basis, Debye):
    X=             -1.5954    Y=              0.0285    Z=             -0.1015  Tot=              1.5989
 Quadrupole moment (field-independent basis, Debye-Ang):
   XX=           -220.1612   YY=           -232.6013   ZZ=           -199.0098
   XY=             -5.4923   XZ=             10.3461   YZ=             -8.0446

 Normal termination of Gaussian 16 at Thu Nov 26 08:10:09 2020.
