 Gaussian 16, Revision C.01,
 Gaussian 16:  ES64L-G16RevC.01  3-Jul-2019

 -------------------------------------
 # opt=modredundant b3lyp/6-311+g(d,p)
 -------------------------------------

 ----------
 NDI_30.pdb
 ----------
 Symbolic Z-matrix:
 Charge =  0 Multiplicity = 1

 SCF Done:  E(RB3LYP) =  -2359.32999439     A.U. after   17 cycles
 SCF Done:  E(RB3LYP) =  -2359.31880249     A.U. after   18 cycles
 SCF Done:  E(RB3LYP) =  -2359.33072334     A.U. after   15 cycles
 SCF Done:  E(RB3LYP) =  -2359.33570007     A.U. after   16 cycles
 SCF Done:  E(RB3LYP) =  -2359.33629103     A.U. after   14 cycles
 SCF Done:  E(RB3LYP) =  -2359.33702542     A.U. after   13 cycles
 SCF Done:  E(RB3LYP) =  -2359.33739245     A.U. after   16 cycles
 SCF Done:  E(RB3LYP) =  -2359.33761142     A.U. after   14 cycles
 SCF Done:  E(RB3LYP) =  -2359.33780602     A.U. after   14 cycles
 SCF Done:  E(RB3LYP) =  -2359.33798900     A.U. after   13 cycles
 SCF Done:  E(RB3LYP) =  -2359.33811281     A.U. after   13 cycles
 SCF Done:  E(RB3LYP) =  -2359.33811576     A.U. after   11 cycles
 SCF Done:  E(RB3LYP) =  -2359.33812301     A.U. after   12 cycles
 SCF Done:  E(RB3LYP) =  -2359.33812757     A.U. after   13 cycles
 SCF Done:  E(RB3LYP) =  -2359.33812932     A.U. after   10 cycles
 SCF Done:  E(RB3LYP) =  -2359.33813041     A.U. after   10 cycles
 SCF Done:  E(RB3LYP) =  -2359.33813077     A.U. after   11 cycles
 SCF Done:  E(RB3LYP) =  -2359.33813089     A.U. after    9 cycles
 SCF Done:  E(RB3LYP) =  -2359.33813095     A.U. after    9 cycles
 SCF Done:  E(RB3LYP) =  -2359.33813099     A.U. after   10 cycles
 Optimization completed.
    -- Stationary point found.

                         Standard orientation:
 ---------------------------------------------------------------------
 Center     Atomic      Atomic             Coordinates (Angstroms)
 Number     Number       Type             X           Y           Z
 ---------------------------------------------------------------------
      1          6           0       -2.591380   -3.007414    0.308479
      2          6           0       -2.270010   -1.564091    0.152220
      3          6           0       -3.304632   -0.603234    0.074761
      4          6           0       -4.655019   -0.998135    0.154416
      5          6           0       -5.012328   -2.432189    0.323906
      6          6           0       -0.960237   -1.166614    0.121309
      7          6           0       -2.953159    0.764462   -0.098099
      8          6           0       -1.583762    1.165918   -0.170118
      9          6           0       -0.559470    0.198544   -0.001221
     10          6           0       -1.308194    2.577213   -0.551131
     11          6           0       -3.736506    3.139210   -0.403219
     12          6           0       -4.012979    1.701528   -0.192718
     13          6           0       -5.336660    1.294810   -0.100223
     14          6           0       -5.665230   -0.052439    0.073092
     15          1           0       -6.696044   -0.375357    0.139950
     16          1           0       -6.108155    2.051081   -0.171064
     17          1           0       -0.207250   -1.934879    0.240595
     18          7           0       -2.394699    3.472378   -0.594101
     19          7           0       -3.946736   -3.346481    0.383659
     20          8           0       -1.735675   -3.871067    0.370563
     21          8           0       -6.167442   -2.805469    0.404606
     22          8           0       -4.617655    3.981347   -0.433941
     23          8           0       -0.206298    3.005781   -0.848745
     24          6           0       -2.065734    4.865796   -0.926162
     25          1           0       -1.338409    5.253529   -0.212927
     26          1           0       -1.628259    4.916962   -1.923566
     27          1           0       -2.984970    5.441292   -0.883306
     28          6           0       -4.253255   -4.775274    0.541778
     29          1           0       -3.842173   -5.334407   -0.298970
     30          1           0       -3.799421   -5.150016    1.459566
     31          1           0       -5.332555   -4.882862    0.579898
     32          6           0        0.870334    0.445352    0.143998
     33          6           0        1.547801    1.519059    0.686092
     34         16           0        2.010080   -0.801624   -0.349666
     35          6           0        2.942009    1.346632    0.713194
     36          1           0        1.051361    2.401168    1.051625
     37          6           0        3.386025    0.136547    0.173312
     38          8           0        3.856083    2.226696    1.197756
     39          6           0        4.740056   -0.313412    0.023881
     40          6           0        3.389802    3.502785    1.631293
     41          6           0        5.178769   -1.527496   -0.497074
     42         16           0        6.132033    0.654706    0.496996
     43          1           0        4.278636    4.064318    1.913003
     44          1           0        2.864310    4.022348    0.824397
     45          1           0        2.731105    3.405114    2.500313
     46          6           0        6.592205   -1.675974   -0.515883
     47          8           0        4.265548   -2.433161   -0.929004
     48          6           0        7.227788   -0.575736   -0.009951
     49          1           0        7.112490   -2.548510   -0.882738
     50          6           0        4.737089   -3.678092   -1.438385
     51          1           0        8.290595   -0.420821    0.096227
     52          1           0        5.298120   -4.227362   -0.675821
     53          1           0        3.848269   -4.243247   -1.712151
     54          1           0        5.362142   -3.528505   -2.324387
 ---------------------------------------------------------------------

 The electronic state is 1-A.
 Alpha  occ. eigenvalues --  -88.88682 -88.88624 -19.17481 -19.17125 -19.12209
 Alpha  occ. eigenvalues --  -19.12177 -19.11513 -19.11466 -14.38383 -14.37888
 Alpha  occ. eigenvalues --  -10.30803 -10.30648 -10.30386 -10.30077 -10.25170
 Alpha  occ. eigenvalues --  -10.24865 -10.24093 -10.23722 -10.23721 -10.22743
 Alpha  occ. eigenvalues --  -10.22639 -10.22275 -10.22195 -10.22176 -10.22054
 Alpha  occ. eigenvalues --  -10.21965 -10.21945 -10.21646 -10.21333 -10.21228
 Alpha  occ. eigenvalues --  -10.20861 -10.20748 -10.20662 -10.20593 -10.19252
 Alpha  occ. eigenvalues --  -10.19024  -7.97233  -7.97189  -5.93543  -5.93506
 Alpha  occ. eigenvalues --   -5.93153  -5.93116  -5.92801  -5.92737  -1.09046
 Alpha  occ. eigenvalues --   -1.08697  -1.08461  -1.07994  -1.06645  -1.06074
 Alpha  occ. eigenvalues --   -0.96023  -0.95445  -0.92165  -0.90600  -0.89010
 Alpha  occ. eigenvalues --   -0.86474  -0.83964  -0.80458  -0.78239  -0.77822
 Alpha  occ. eigenvalues --   -0.76615  -0.75597  -0.74961  -0.73422  -0.72296
 Alpha  occ. eigenvalues --   -0.71775  -0.70531  -0.68885  -0.66961  -0.65637
 Alpha  occ. eigenvalues --   -0.65489  -0.64483  -0.61239  -0.60046  -0.58527
 Alpha  occ. eigenvalues --   -0.57280  -0.56780  -0.56631  -0.55210  -0.55043
 Alpha  occ. eigenvalues --   -0.53385  -0.51509  -0.50327  -0.49830  -0.49560
 Alpha  occ. eigenvalues --   -0.49252  -0.49040  -0.48672  -0.48569  -0.48389
 Alpha  occ. eigenvalues --   -0.48188  -0.46932  -0.46501  -0.46218  -0.45871
 Alpha  occ. eigenvalues --   -0.45720  -0.44770  -0.44373  -0.44014  -0.43482
 Alpha  occ. eigenvalues --   -0.42922  -0.42627  -0.42400  -0.41947  -0.41917
 Alpha  occ. eigenvalues --   -0.41683  -0.41038  -0.40998  -0.40380  -0.39939
 Alpha  occ. eigenvalues --   -0.39421  -0.39151  -0.39017  -0.37835  -0.37419
 Alpha  occ. eigenvalues --   -0.36630  -0.36032  -0.34545  -0.34246  -0.33783
 Alpha  occ. eigenvalues --   -0.33635  -0.31898  -0.30849  -0.30377  -0.29616
 Alpha  occ. eigenvalues --   -0.29177  -0.28714  -0.28544  -0.27863  -0.27228
 Alpha  occ. eigenvalues --   -0.25977  -0.24898  -0.24769  -0.19605
 Alpha virt. eigenvalues --   -0.12879  -0.07597  -0.06299  -0.04369  -0.03691
 Alpha virt. eigenvalues --   -0.00858  -0.00487  -0.00333  -0.00048   0.00377
 Alpha virt. eigenvalues --    0.00828   0.01224   0.01444   0.01705   0.01895

 Mulliken charges:
               1
     1  C    0.281512
     2  C   -0.089341
     3  C    0.178507
     4  C    0.203535
     5  C    0.227311
     6  C   -0.131123
     7  C    0.222175
     8  C    0.477881
     9  C    0.326257
    10  C   -0.617049
    11  C    0.223848
    12  C    0.132880
    13  C   -0.479373
    14  C   -0.585883
    15  H    0.158114
    16  H    0.160540
    17  H    0.173550
    18  N   -0.096488
    19  N   -0.141366
    20  O   -0.283754
    21  O   -0.268565
    22  O   -0.278881
    23  O   -0.228792
    24  C   -0.177562
    25  H    0.166703
    26  H    0.177148
    27  H    0.182767
    28  C   -0.198716
    29  H    0.173268
    30  H    0.174006
    31  H    0.181856
    32  C    0.050469
    33  C   -0.492104
    34  S   -0.636503
    35  C   -0.211068
    36  H    0.138837
    37  C    0.714919
    38  O   -0.127871
    39  C    0.854050
    40  C   -0.241159
    41  C   -0.014054
    42  S   -0.252714
    43  H    0.165902
    44  H    0.163460
    45  H    0.145312
    46  C   -0.616712
    47  O   -0.128359
    48  C   -0.275275
    49  H    0.133163
    50  C   -0.240785
    51  H    0.162400
    52  H    0.147066
    53  H    0.170443
    54  H    0.145618
 Sum of Mulliken charges =  -0.00000

 Dipole moment (field-independent basis, Debye):
    X=              5.1760    Y=             -0.6270    Z=              0.3251  Tot=              5.2240
 Quadrupole moment (field-independent basis, Debye-Ang):
   XX=           -215.9385   YY=           -211.3666   ZZ=           -219.7325
   XY=             -4.4429   XZ=             -1.9286   YZ=             12.3210

 Normal termination of Gaussian 16 at Thu Nov 26 10:45:14 2020.
