 Gaussian 16, Revision C.01,
 Gaussian 16:  ES64L-G16RevC.01  3-Jul-2019

 -------------------------------------
 # opt=modredundant b3lyp/6-311+g(d,p)
 -------------------------------------

 ------------
 NDI_-165.pdb
 ------------
 Symbolic Z-matrix:
 Charge =  0 Multiplicity = 1

 SCF Done:  E(RB3LYP) =  -2359.29987139     A.U. after   17 cycles
 SCF Done:  E(RB3LYP) =  -2359.32331466     A.U. after   18 cycles
 SCF Done:  E(RB3LYP) =  -2359.33242174     A.U. after   16 cycles
 SCF Done:  E(RB3LYP) =  -2359.33422721     A.U. after   14 cycles
 SCF Done:  E(RB3LYP) =  -2359.33474192     A.U. after   13 cycles
 SCF Done:  E(RB3LYP) =  -2359.33480005     A.U. after   13 cycles
 SCF Done:  E(RB3LYP) =  -2359.33486751     A.U. after   13 cycles
 SCF Done:  E(RB3LYP) =  -2359.33491979     A.U. after   12 cycles
 SCF Done:  E(RB3LYP) =  -2359.33496242     A.U. after   13 cycles
 SCF Done:  E(RB3LYP) =  -2359.33498867     A.U. after   13 cycles
 SCF Done:  E(RB3LYP) =  -2359.33525786     A.U. after    9 cycles
 SCF Done:  E(RB3LYP) =  -2359.33525843     A.U. after   10 cycles
 SCF Done:  E(RB3LYP) =  -2359.33525881     A.U. after   10 cycles
 SCF Done:  E(RB3LYP) =  -2359.33525901     A.U. after   10 cycles
 SCF Done:  E(RB3LYP) =  -2359.33525908     A.U. after    8 cycles
 SCF Done:  E(RB3LYP) =  -2359.33525915     A.U. after    8 cycles
 SCF Done:  E(RB3LYP) =  -2359.33525923     A.U. after    9 cycles
 SCF Done:  E(RB3LYP) =  -2359.33525935     A.U. after    9 cycles
 SCF Done:  E(RB3LYP) =  -2359.33525941     A.U. after    9 cycles
 SCF Done:  E(RB3LYP) =  -2359.33525942     A.U. after    8 cycles
 Optimization completed.
    -- Stationary point found.

                         Standard orientation:
 ---------------------------------------------------------------------
 Center     Atomic      Atomic             Coordinates (Angstroms)
 Number     Number       Type             X           Y           Z
 ---------------------------------------------------------------------
      1          6           0       -3.514788   -2.687374    0.198800
      2          6           0       -2.770231   -1.419459   -0.018052
      3          6           0       -3.429866   -0.174300    0.097968
      4          6           0       -4.796502   -0.112340    0.433622
      5          6           0       -5.570087   -1.361170    0.664954
      6          6           0       -1.427618   -1.465292   -0.284847
      7          6           0       -2.683299    1.011777   -0.137252
      8          6           0       -1.298348    0.947663   -0.472755
      9          6           0       -0.627820   -0.299876   -0.490121
     10          6           0       -0.658901    2.204099   -0.938350
     11          6           0       -2.658132    3.527984   -0.262853
     12          6           0       -3.364109    2.249544   -0.018191
     13          6           0       -4.707666    2.291376    0.326469
     14          6           0       -5.430186    1.115295    0.551193
     15          1           0       -6.479861    1.143356    0.813542
     16          1           0       -5.182212    3.260607    0.414038
     17          1           0       -0.963088   -2.440488   -0.286232
     18          7           0       -1.342514    3.413468   -0.715257
     19          7           0       -4.870582   -2.573460    0.524023
     20          8           0       -2.993602   -3.784192    0.102616
     21          8           0       -6.750322   -1.346942    0.959226
     22          8           0       -3.190575    4.613656   -0.107985
     23          8           0        0.409819    2.239652   -1.522006
     24          6           0       -0.632758    4.638829   -1.108011
     25          1           0        0.366128    4.632830   -0.674608
     26          1           0       -0.535706    4.687047   -2.193916
     27          1           0       -1.207956    5.485395   -0.746177
     28          6           0       -5.597701   -3.833090    0.736645
     29          1           0       -5.543584   -4.444939   -0.163981
     30          1           0       -5.142467   -4.387518    1.557735
     31          1           0       -6.628963   -3.587930    0.969661
     32          6           0        0.811104   -0.550798   -0.567733
     33          6           0        1.383365   -1.780932   -0.877126
     34         16           0        2.033914    0.533134    0.048794
     35          6           0        2.764947   -1.839891   -0.639761
     36          1           0        0.822005   -2.604101   -1.292157
     37          6           0        3.295345   -0.668936   -0.094297
     38          8           0        3.590295   -2.892972   -0.884134
     39          6           0        4.658511   -0.416963    0.275863
     40          6           0        3.015365   -4.084839   -1.411179
     41          6           0        5.190823    0.746504    0.825322
     42         16           0        5.940411   -1.609186    0.084316
     43          1           0        3.837726   -4.789028   -1.522968
     44          1           0        2.270342   -4.500314   -0.724843
     45          1           0        2.557098   -3.902122   -2.388605
     46          6           0        6.587584    0.683254    1.081128
     47          8           0        4.374135    1.801706    1.068280
     48          6           0        7.116870   -0.527859    0.729947
     49          1           0        7.170864    1.488357    1.503206
     50          6           0        4.953590    2.999566    1.578166
     51          1           0        8.144372   -0.846606    0.816783
     52          1           0        5.700705    3.400299    0.885969
     53          1           0        4.133433    3.708049    1.677001
     54          1           0        5.408684    2.829968    2.559171
 ---------------------------------------------------------------------

 The electronic state is 1-A.
 Alpha  occ. eigenvalues --  -88.88706 -88.88369 -19.17499 -19.17178 -19.12242
 Alpha  occ. eigenvalues --  -19.12232 -19.11470 -19.11438 -14.38415 -14.37780
 Alpha  occ. eigenvalues --  -10.30822 -10.30705 -10.30182 -10.30036 -10.25223
 Alpha  occ. eigenvalues --  -10.24798 -10.24165 -10.23927 -10.23703 -10.22650
 Alpha  occ. eigenvalues --  -10.22528 -10.22371 -10.22121 -10.22071 -10.22067
 Alpha  occ. eigenvalues --  -10.21926 -10.21914 -10.21629 -10.21383 -10.21289
 Alpha  occ. eigenvalues --  -10.20889 -10.20729 -10.20662 -10.20502 -10.19459
 Alpha  occ. eigenvalues --  -10.19281  -7.97258  -7.96908  -5.93568  -5.93229
 Alpha  occ. eigenvalues --   -5.93178  -5.92827  -5.92825  -5.92454  -1.09089
 Alpha  occ. eigenvalues --   -1.08742  -1.08482  -1.07927  -1.06674  -1.06023
 Alpha  occ. eigenvalues --   -0.96038  -0.95417  -0.92154  -0.90589  -0.89024
 Alpha  occ. eigenvalues --   -0.86476  -0.83939  -0.80528  -0.78146  -0.77785
 Alpha  occ. eigenvalues --   -0.76703  -0.75666  -0.74927  -0.73506  -0.72326
 Alpha  occ. eigenvalues --   -0.71413  -0.70804  -0.68960  -0.66891  -0.65673
 Alpha  occ. eigenvalues --   -0.65342  -0.64663  -0.61061  -0.60140  -0.58568
 Alpha  occ. eigenvalues --   -0.57369  -0.56797  -0.56596  -0.55319  -0.54785
 Alpha  occ. eigenvalues --   -0.53687  -0.51427  -0.50162  -0.49903  -0.49479
 Alpha  occ. eigenvalues --   -0.49282  -0.49091  -0.48730  -0.48715  -0.48336
 Alpha  occ. eigenvalues --   -0.48194  -0.46988  -0.46572  -0.46166  -0.45948
 Alpha  occ. eigenvalues --   -0.45655  -0.44804  -0.44492  -0.44106  -0.43609
 Alpha  occ. eigenvalues --   -0.43058  -0.42416  -0.42295  -0.41980  -0.41878
 Alpha  occ. eigenvalues --   -0.41632  -0.41155  -0.40995  -0.40499  -0.39889
 Alpha  occ. eigenvalues --   -0.39521  -0.39185  -0.38817  -0.37744  -0.37258
 Alpha  occ. eigenvalues --   -0.36686  -0.36261  -0.34529  -0.34262  -0.33760
 Alpha  occ. eigenvalues --   -0.33563  -0.31749  -0.30768  -0.30385  -0.29626
 Alpha  occ. eigenvalues --   -0.29207  -0.28617  -0.28531  -0.27806  -0.27331
 Alpha  occ. eigenvalues --   -0.25912  -0.25085  -0.24466  -0.19608
 Alpha virt. eigenvalues --   -0.12822  -0.07693  -0.06198  -0.04358  -0.03721
 Alpha virt. eigenvalues --   -0.00912  -0.00530  -0.00344  -0.00139   0.00328
 Alpha virt. eigenvalues --    0.00848   0.01103   0.01388   0.01815   0.01831

 Mulliken charges:
               1
     1  C    0.344684
     2  C   -0.051080
     3  C    0.170042
     4  C    0.219541
     5  C    0.226415
     6  C    0.142454
     7  C    0.103391
     8  C    0.326914
     9  C    0.308770
    10  C   -0.577826
    11  C    0.305048
    12  C    0.077942
    13  C   -0.467107
    14  C   -0.587979
    15  H    0.158074
    16  H    0.160348
    17  H    0.154727
    18  N   -0.031865
    19  N   -0.146488
    20  O   -0.286152
    21  O   -0.267936
    22  O   -0.282828
    23  O   -0.219962
    24  C   -0.178020
    25  H    0.171817
    26  H    0.177850
    27  H    0.181993
    28  C   -0.194314
    29  H    0.172967
    30  H    0.173708
    31  H    0.181993
    32  C   -0.001065
    33  C   -0.619125
    34  S   -0.664747
    35  C   -0.352748
    36  H    0.132754
    37  C    0.731081
    38  O   -0.134643
    39  C    0.914766
    40  C   -0.226480
    41  C   -0.026234
    42  S   -0.242021
    43  H    0.168289
    44  H    0.151580
    45  H    0.148366
    46  C   -0.557596
    47  O   -0.123724
    48  C   -0.279239
    49  H    0.132720
    50  C   -0.242834
    51  H    0.162444
    52  H    0.148895
    53  H    0.167201
    54  H    0.145237
 Sum of Mulliken charges =  -0.00000

 Dipole moment (field-independent basis, Debye):
    X=              5.1378    Y=             -0.7743    Z=              0.6601  Tot=              5.2376
 Quadrupole moment (field-independent basis, Debye-Ang):
   XX=           -211.0089   YY=           -214.7929   ZZ=           -221.3178
   XY=             11.1957   XZ=             10.8594   YZ=              9.7646

 Normal termination of Gaussian 16 at Thu Nov 26 12:50:50 2020.
