 Gaussian 16, Revision C.01,
 Gaussian 16:  ES64L-G16RevC.01  3-Jul-2019

 -------------------------------------
 # opt=modredundant b3lyp/6-311+g(d,p)
 -------------------------------------

 ----------
 NDI_85.pdb
 ----------
 Symbolic Z-matrix:
 Charge =  0 Multiplicity = 1

 SCF Done:  E(RB3LYP) =  -2359.32944830     A.U. after   20 cycles
 SCF Done:  E(RB3LYP) =  -2359.33302400     A.U. after   15 cycles
 SCF Done:  E(RB3LYP) =  -2359.33394337     A.U. after   15 cycles
 SCF Done:  E(RB3LYP) =  -2359.33416123     A.U. after   15 cycles
 SCF Done:  E(RB3LYP) =  -2359.33430908     A.U. after   14 cycles
 SCF Done:  E(RB3LYP) =  -2359.33436591     A.U. after   13 cycles
 SCF Done:  E(RB3LYP) =  -2359.33439834     A.U. after   13 cycles
 SCF Done:  E(RB3LYP) =  -2359.33441163     A.U. after   12 cycles
 SCF Done:  E(RB3LYP) =  -2359.33442121     A.U. after   11 cycles
 SCF Done:  E(RB3LYP) =  -2359.33443441     A.U. after   11 cycles
 SCF Done:  E(RB3LYP) =  -2359.33444207     A.U. after   11 cycles
 SCF Done:  E(RB3LYP) =  -2359.33444764     A.U. after   11 cycles
 SCF Done:  E(RB3LYP) =  -2359.33445367     A.U. after   11 cycles
 SCF Done:  E(RB3LYP) =  -2359.33445774     A.U. after   10 cycles
 SCF Done:  E(RB3LYP) =  -2359.33445894     A.U. after   10 cycles
 SCF Done:  E(RB3LYP) =  -2359.33445911     A.U. after   10 cycles
 SCF Done:  E(RB3LYP) =  -2359.33445922     A.U. after    9 cycles
 SCF Done:  E(RB3LYP) =  -2359.33445926     A.U. after    9 cycles
 Optimization completed.
    -- Stationary point found.

                         Standard orientation:
 ---------------------------------------------------------------------
 Center     Atomic      Atomic             Coordinates (Angstroms)
 Number     Number       Type             X           Y           Z
 ---------------------------------------------------------------------
      1          6           0       -3.104612   -2.863778    0.459305
      2          6           0       -2.542793   -1.495197    0.305886
      3          6           0       -3.391811   -0.405451    0.014567
      4          6           0       -4.783576   -0.597204   -0.139591
      5          6           0       -5.378110   -1.953978    0.008459
      6          6           0       -1.189208   -1.290969    0.454439
      7          6           0       -2.828678    0.891861   -0.129134
      8          6           0       -1.427644    1.085747    0.028858
      9          6           0       -0.605745   -0.003572    0.340559
     10          6           0       -0.871132    2.459814   -0.164363
     11          6           0       -3.162526    3.344879   -0.611393
     12          6           0       -3.695261    1.969726   -0.435122
     13          6           0       -5.055557    1.759501   -0.581585
     14          6           0       -5.603606    0.476923   -0.433114
     15          1           0       -6.666888    0.308471   -0.547714
     16          1           0       -5.685377    2.608540   -0.815356
     17          1           0       -0.554412   -2.138067    0.681702
     18          7           0       -1.779741    3.489014   -0.474740
     19          7           0       -4.489412   -3.001683    0.297014
     20          8           0       -2.415063   -3.832540    0.713963
     21          8           0       -6.572035   -2.151358   -0.113799
     22          8           0       -3.884074    4.292121   -0.865111
     23          8           0        0.309633    2.726130   -0.075505
     24          6           0       -1.193580    4.824885   -0.661496
     25          1           0       -0.690313    5.138866    0.253218
     26          1           0       -0.457703    4.793773   -1.464820
     27          1           0       -1.999008    5.509820   -0.906304
     28          6           0       -5.029684   -4.360605    0.450836
     29          1           0       -4.560541   -5.025986   -0.273965
     30          1           0       -4.811256   -4.732498    1.452136
     31          1           0       -6.101698   -4.314170    0.288105
     32          6           0        0.857967    0.076585    0.551880
     33          6           0        1.524564    0.393036    1.703394
     34         16           0        1.948587   -0.456700   -0.693930
     35          6           0        2.932286    0.242530    1.578398
     36          1           0        1.023901    0.735215    2.597508
     37          6           0        3.351937   -0.208514    0.337144
     38          8           0        3.855568    0.487964    2.549998
     39          6           0        4.700722   -0.438500   -0.117781
     40          6           0        3.410431    1.099127    3.755255
     41          6           0        5.112891   -0.915710   -1.353290
     42         16           0        6.111823   -0.119506    0.882089
     43          1           0        4.303565    1.260063    4.356775
     44          1           0        2.926358    2.060531    3.554759
     45          1           0        2.721628    0.445110    4.300676
     46          6           0        6.524790   -1.022259   -1.498108
     47          8           0        4.178121   -1.232029   -2.293843
     48          6           0        7.186661   -0.625803   -0.370084
     49          1           0        7.024680   -1.374670   -2.388580
     50          6           0        4.632810   -1.718036   -3.550884
     51          1           0        8.252228   -0.607183   -0.201003
     52          1           0        5.193048   -2.651883   -3.435239
     53          1           0        3.737442   -1.905147   -4.141392
     54          1           0        5.255431   -0.975329   -4.060802
 ---------------------------------------------------------------------

 The electronic state is 1-A.
 Alpha  occ. eigenvalues --  -88.87716 -88.87399 -19.16171 -19.16117 -19.12866
 Alpha  occ. eigenvalues --  -19.12794 -19.12538 -19.12460 -14.38995 -14.38705
 Alpha  occ. eigenvalues --  -10.31492 -10.31273 -10.31188 -10.31141 -10.23912
 Alpha  occ. eigenvalues --  -10.23660 -10.23580 -10.23502 -10.23456 -10.23275
 Alpha  occ. eigenvalues --  -10.23227 -10.23171 -10.22922 -10.22859 -10.22840
 Alpha  occ. eigenvalues --  -10.21902 -10.21846 -10.21824 -10.21392 -10.21328
 Alpha  occ. eigenvalues --  -10.21093 -10.20884 -10.20725 -10.19885 -10.18245
 Alpha  occ. eigenvalues --  -10.18029  -7.96257  -7.95954  -5.92583  -5.92263
 Alpha  occ. eigenvalues --   -5.92191  -5.91875  -5.91798  -5.91522  -1.09103
 Alpha  occ. eigenvalues --   -1.08918  -1.07695  -1.07616  -1.07303  -1.07086
 Alpha  occ. eigenvalues --   -0.96670  -0.96316  -0.93072  -0.89703  -0.88212
 Alpha  occ. eigenvalues --   -0.86847  -0.84859  -0.80492  -0.78999  -0.77141
 Alpha  occ. eigenvalues --   -0.75828  -0.75589  -0.74486  -0.73003  -0.72491
 Alpha  occ. eigenvalues --   -0.71829  -0.69811  -0.68636  -0.67549  -0.66396
 Alpha  occ. eigenvalues --   -0.65895  -0.65027  -0.60843  -0.59470  -0.58578
 Alpha  occ. eigenvalues --   -0.57816  -0.56517  -0.55696  -0.55523  -0.54050
 Alpha  occ. eigenvalues --   -0.53880  -0.52104  -0.50612  -0.50236  -0.50094
 Alpha  occ. eigenvalues --   -0.49169  -0.49022  -0.48855  -0.48076  -0.47844
 Alpha  occ. eigenvalues --   -0.47681  -0.47468  -0.46988  -0.46635  -0.45572
 Alpha  occ. eigenvalues --   -0.45356  -0.45053  -0.44894  -0.44626  -0.44088
 Alpha  occ. eigenvalues --   -0.43027  -0.42849  -0.42460  -0.42031  -0.41851
 Alpha  occ. eigenvalues --   -0.41538  -0.41218  -0.40997  -0.40713  -0.40232
 Alpha  occ. eigenvalues --   -0.39987  -0.38891  -0.38242  -0.37830  -0.36891
 Alpha  occ. eigenvalues --   -0.35817  -0.35518  -0.33699  -0.33272  -0.33115
 Alpha  occ. eigenvalues --   -0.32800  -0.32734  -0.31413  -0.30537  -0.30034
 Alpha  occ. eigenvalues --   -0.29515  -0.29375  -0.28921  -0.28684  -0.27163
 Alpha  occ. eigenvalues --   -0.26751  -0.24156  -0.23839  -0.18625
 Alpha virt. eigenvalues --   -0.13547  -0.07273  -0.06160  -0.05101  -0.04392
 Alpha virt. eigenvalues --   -0.01125  -0.00046  -0.00009   0.00187   0.00490
 Alpha virt. eigenvalues --    0.00735   0.00804   0.01044   0.01152   0.01734

 Mulliken charges:
               1
     1  C    0.399343
     2  C    0.007867
     3  C    0.212105
     4  C    0.201184
     5  C    0.254867
     6  C   -0.581196
     7  C    0.195409
     8  C    0.051491
     9  C    0.561588
    10  C   -0.443306
    11  C    0.179364
    12  C    0.189349
    13  C   -0.488798
    14  C   -0.621610
    15  H    0.161962
    16  H    0.162782
    17  H    0.170281
    18  N   -0.168272
    19  N   -0.147671
    20  O   -0.267757
    21  O   -0.268385
    22  O   -0.269143
    23  O   -0.087934
    24  C   -0.215789
    25  H    0.175153
    26  H    0.178485
    27  H    0.183791
    28  C   -0.200376
    29  H    0.175516
    30  H    0.175902
    31  H    0.182422
    32  C    0.118926
    33  C   -0.445632
    34  S   -0.176569
    35  C   -0.083016
    36  H    0.111210
    37  C    0.325042
    38  O   -0.142151
    39  C    0.774240
    40  C   -0.232908
    41  C    0.030990
    42  S   -0.286365
    43  H    0.164076
    44  H    0.153614
    45  H    0.140921
    46  C   -0.546128
    47  O   -0.146250
    48  C   -0.316398
    49  H    0.128445
    50  C   -0.236000
    51  H    0.156567
    52  H    0.142036
    53  H    0.162521
    54  H    0.144205
 Sum of Mulliken charges =  -0.00000

 Dipole moment (field-independent basis, Debye):
    X=              1.3070    Y=              0.0878    Z=             -0.0271  Tot=              1.3102
 Quadrupole moment (field-independent basis, Debye-Ang):
   XX=           -221.8585   YY=           -229.9155   ZZ=           -200.0530
   XY=              0.4154   XZ=             -9.3731   YZ=             11.7391

 Normal termination of Gaussian 16 at Thu Nov 26 11:15:20 2020.
