 Gaussian 16, Revision C.01,
 Gaussian 16:  ES64L-G16RevC.01  3-Jul-2019

 -------------------------------------
 # opt=modredundant b3lyp/6-311+g(d,p)
 -------------------------------------

 -----------
 NDI_-60.pdb
 -----------
 Symbolic Z-matrix:
 Charge =  0 Multiplicity = 1

 SCF Done:  E(RB3LYP) =  -2359.33505216     A.U. after   19 cycles
 SCF Done:  E(RB3LYP) =  -2359.33641731     A.U. after   17 cycles
 SCF Done:  E(RB3LYP) =  -2359.33696534     A.U. after   14 cycles
 SCF Done:  E(RB3LYP) =  -2359.33703207     A.U. after   14 cycles
 SCF Done:  E(RB3LYP) =  -2359.33708561     A.U. after   13 cycles
 SCF Done:  E(RB3LYP) =  -2359.33709286     A.U. after   13 cycles
 SCF Done:  E(RB3LYP) =  -2359.33709867     A.U. after   12 cycles
 SCF Done:  E(RB3LYP) =  -2359.33710327     A.U. after   12 cycles
 SCF Done:  E(RB3LYP) =  -2359.33710695     A.U. after   12 cycles
 SCF Done:  E(RB3LYP) =  -2359.33711152     A.U. after   12 cycles
 SCF Done:  E(RB3LYP) =  -2359.33712429     A.U. after   14 cycles
 SCF Done:  E(RB3LYP) =  -2359.33712876     A.U. after   12 cycles
 SCF Done:  E(RB3LYP) =  -2359.33712992     A.U. after   12 cycles
 SCF Done:  E(RB3LYP) =  -2359.33713109     A.U. after   12 cycles
 SCF Done:  E(RB3LYP) =  -2359.33713195     A.U. after   10 cycles
 SCF Done:  E(RB3LYP) =  -2359.33713251     A.U. after   12 cycles
 SCF Done:  E(RB3LYP) =  -2359.33713284     A.U. after   11 cycles
 SCF Done:  E(RB3LYP) =  -2359.33713302     A.U. after   10 cycles
 SCF Done:  E(RB3LYP) =  -2359.33713312     A.U. after   10 cycles
 SCF Done:  E(RB3LYP) =  -2359.33713311     A.U. after    9 cycles
 Optimization completed.
    -- Stationary point found.

                         Standard orientation:
 ---------------------------------------------------------------------
 Center     Atomic      Atomic             Coordinates (Angstroms)
 Number     Number       Type             X           Y           Z
 ---------------------------------------------------------------------
      1          6           0        2.690627   -2.922524    0.625911
      2          6           0        2.319421   -1.504350    0.374962
      3          6           0        3.316970   -0.542169    0.099670
      4          6           0        4.677160   -0.913629    0.047791
      5          6           0        5.084579   -2.321160    0.306136
      6          6           0        0.998885   -1.132858    0.418197
      7          6           0        2.924523    0.803652   -0.141377
      8          6           0        1.551549    1.183270   -0.071071
      9          6           0        0.572042    0.213541    0.232153
     10          6           0        1.203707    2.601527   -0.362158
     11          6           0        3.601562    3.142100   -0.794137
     12          6           0        3.939657    1.736868   -0.470056
     13          6           0        5.270363    1.350882   -0.518808
     14          6           0        5.645848    0.029157   -0.253337
     15          1           0        6.683663   -0.276289   -0.288930
     16          1           0        6.010502    2.098426   -0.774873
     17          1           0        0.262532   -1.893034    0.643735
     18          7           0        2.243003    3.461315   -0.766346
     19          7           0        4.054127   -3.236392    0.577080
     20          8           0        1.868009   -3.786708    0.864618
     21          8           0        6.249624   -2.670669    0.283747
     22          8           0        4.448888    3.970885   -1.077807
     23          8           0        0.077192    3.055992   -0.283220
     24          6           0        1.846827    4.838362   -1.094572
     25          1           0        1.038858    4.817766   -1.824225
     26          1           0        1.490354    5.351964   -0.200156
     27          1           0        2.718107    5.347924   -1.493652
     28          6           0        4.408512   -4.639924    0.833139
     29          1           0        4.067630   -4.930055    1.827235
     30          1           0        3.919449   -5.281985    0.100323
     31          1           0        5.487503   -4.730609    0.759357
     32          6           0       -0.875947    0.438011    0.331580
     33          6           0       -1.582063    1.271174    1.167672
     34         16           0       -1.955716   -0.661120   -0.502252
     35          6           0       -2.975554    1.055941    1.119712
     36          1           0       -1.106616    2.020008    1.780635
     37          6           0       -3.372885    0.045629    0.246875
     38          8           0       -3.920862    1.732498    1.826221
     39          6           0       -4.711598   -0.368187   -0.072827
     40          6           0       -3.502443    2.861205    2.588982
     41          6           0       -5.103282   -1.400987   -0.917014
     42         16           0       -6.140922    0.417069    0.588219
     43          1           0       -4.410615    3.291528    3.007396
     44          1           0       -2.835748    2.560520    3.403899
     45          1           0       -3.002176    3.599930    1.955236
     46          6           0       -6.511960   -1.558204   -1.031513
     47          8           0       -4.153847   -2.145981   -1.542575
     48          6           0       -7.191360   -0.644732   -0.274218
     49          1           0       -6.998042   -2.307250   -1.639304
     50          6           0       -4.581877   -3.216706   -2.378373
     51          1           0       -8.260369   -0.540371   -0.169431
     52          1           0       -5.183224   -2.847123   -3.215239
     53          1           0       -3.673285   -3.677899   -2.761153
     54          1           0       -5.153824   -3.956584   -1.809246
 ---------------------------------------------------------------------

 The electronic state is 1-A.
 Alpha  occ. eigenvalues --  -88.88253 -88.88190 -19.16992 -19.16651 -19.12441
 Alpha  occ. eigenvalues --  -19.12389 -19.11843 -19.11840 -14.38599 -14.38173
 Alpha  occ. eigenvalues --  -10.31048 -10.30866 -10.30668 -10.30425 -10.24570
 Alpha  occ. eigenvalues --  -10.24335 -10.23784 -10.23773 -10.23421 -10.22956
 Alpha  occ. eigenvalues --  -10.22751 -10.22609 -10.22304 -10.22291 -10.22094
 Alpha  occ. eigenvalues --  -10.22002 -10.21844 -10.21550 -10.21397 -10.21164
 Alpha  occ. eigenvalues --  -10.21110 -10.21025 -10.20787 -10.20739 -10.18791
 Alpha  occ. eigenvalues --  -10.18743  -7.96812  -7.96742  -5.93132  -5.93052
 Alpha  occ. eigenvalues --   -5.92742  -5.92663  -5.92357  -5.92311  -1.08687
 Alpha  occ. eigenvalues --   -1.08532  -1.08316  -1.08194  -1.06877  -1.06419
 Alpha  occ. eigenvalues --   -0.96250  -0.95754  -0.92478  -0.90217  -0.88670
 Alpha  occ. eigenvalues --   -0.86645  -0.84293  -0.80403  -0.78463  -0.77586
 Alpha  occ. eigenvalues --   -0.76301  -0.75205  -0.75147  -0.73068  -0.72453
 Alpha  occ. eigenvalues --   -0.71784  -0.70237  -0.68786  -0.67156  -0.65908
 Alpha  occ. eigenvalues --   -0.65592  -0.64692  -0.61013  -0.59773  -0.58582
 Alpha  occ. eigenvalues --   -0.57405  -0.56694  -0.56215  -0.55353  -0.54647
 Alpha  occ. eigenvalues --   -0.53510  -0.51696  -0.50237  -0.49848  -0.49789
 Alpha  occ. eigenvalues --   -0.49496  -0.48675  -0.48631  -0.48533  -0.48223
 Alpha  occ. eigenvalues --   -0.48043  -0.47084  -0.46603  -0.46291  -0.45817
 Alpha  occ. eigenvalues --   -0.45473  -0.45010  -0.44581  -0.44308  -0.43755
 Alpha  occ. eigenvalues --   -0.42700  -0.42508  -0.42340  -0.42011  -0.41841
 Alpha  occ. eigenvalues --   -0.41462  -0.41331  -0.41151  -0.40555  -0.39708
 Alpha  occ. eigenvalues --   -0.39661  -0.39193  -0.38708  -0.37624  -0.37440
 Alpha  occ. eigenvalues --   -0.36273  -0.35598  -0.34245  -0.33825  -0.33671
 Alpha  occ. eigenvalues --   -0.33321  -0.32190  -0.31048  -0.30319  -0.29859
 Alpha  occ. eigenvalues --   -0.29317  -0.28906  -0.28636  -0.28179  -0.27309
 Alpha  occ. eigenvalues --   -0.26173  -0.24582  -0.24450  -0.19267
 Alpha virt. eigenvalues --   -0.13095  -0.07111  -0.06389  -0.04715  -0.03990
 Alpha virt. eigenvalues --   -0.00907  -0.00359  -0.00288   0.00120   0.00536
 Alpha virt. eigenvalues --    0.00668   0.01060   0.01346   0.01458   0.01786

 Mulliken charges:
               1
     1  C    0.335123
     2  C   -0.002246
     3  C    0.086722
     4  C    0.258367
     5  C    0.220747
     6  C   -0.641912
     7  C    0.213988
     8  C    0.155792
     9  C    0.520035
    10  C   -0.259645
    11  C    0.352827
    12  C    0.113155
    13  C   -0.495473
    14  C   -0.665197
    15  H    0.159822
    16  H    0.162055
    17  H    0.185231
    18  N   -0.159085
    19  N   -0.144044
    20  O   -0.275168
    21  O   -0.269138
    22  O   -0.279488
    23  O   -0.185396
    24  C   -0.208454
    25  H    0.175919
    26  H    0.173627
    27  H    0.183150
    28  C   -0.197408
    29  H    0.174786
    30  H    0.174063
    31  H    0.182820
    32  C    0.092326
    33  C   -0.285859
    34  S   -0.493174
    35  C   -0.369982
    36  H    0.133572
    37  C    0.548980
    38  O   -0.122185
    39  C    0.904579
    40  C   -0.244161
    41  C   -0.039069
    42  S   -0.238252
    43  H    0.164692
    44  H    0.143564
    45  H    0.160784
    46  C   -0.495659
    47  O   -0.131908
    48  C   -0.282198
    49  H    0.131192
    50  C   -0.239940
    51  H    0.160315
    52  H    0.144795
    53  H    0.166517
    54  H    0.145499
 Sum of Mulliken charges =  -0.00000

 Dipole moment (field-independent basis, Debye):
    X=             -3.6865    Y=             -0.4690    Z=             -0.0228  Tot=              3.7162
 Quadrupole moment (field-independent basis, Debye-Ang):
   XX=           -219.1615   YY=           -217.5061   ZZ=           -212.5681
   XY=              3.1400   XZ=              7.2799   YZ=             16.6527

 Normal termination of Gaussian 16 at Thu Nov 26 08:54:24 2020.
