 Gaussian 16, Revision C.01,
 Gaussian 16:  ES64L-G16RevC.01  3-Jul-2019

 -------------------------------------
 # opt=modredundant b3lyp/6-311+g(d,p)
 -------------------------------------

 -----------
 NDI_115.pdb
 -----------
 Symbolic Z-matrix:
 Charge =  0 Multiplicity = 1

 SCF Done:  E(RB3LYP) =  -2359.33187110     A.U. after   19 cycles
 SCF Done:  E(RB3LYP) =  -2359.33481916     A.U. after   16 cycles
 SCF Done:  E(RB3LYP) =  -2359.33479546     A.U. after   14 cycles
 SCF Done:  E(RB3LYP) =  -2359.33541536     A.U. after   13 cycles
 SCF Done:  E(RB3LYP) =  -2359.33545152     A.U. after   13 cycles
 SCF Done:  E(RB3LYP) =  -2359.33547661     A.U. after   12 cycles
 SCF Done:  E(RB3LYP) =  -2359.33548999     A.U. after   12 cycles
 SCF Done:  E(RB3LYP) =  -2359.33550002     A.U. after   12 cycles
 SCF Done:  E(RB3LYP) =  -2359.33551014     A.U. after   12 cycles
 SCF Done:  E(RB3LYP) =  -2359.33557836     A.U. after   14 cycles
 SCF Done:  E(RB3LYP) =  -2359.33559154     A.U. after   13 cycles
 SCF Done:  E(RB3LYP) =  -2359.33559402     A.U. after   12 cycles
 SCF Done:  E(RB3LYP) =  -2359.33559488     A.U. after   11 cycles
 SCF Done:  E(RB3LYP) =  -2359.33559543     A.U. after   11 cycles
 SCF Done:  E(RB3LYP) =  -2359.33559595     A.U. after   11 cycles
 SCF Done:  E(RB3LYP) =  -2359.33559653     A.U. after   11 cycles
 SCF Done:  E(RB3LYP) =  -2359.33559698     A.U. after   11 cycles
 SCF Done:  E(RB3LYP) =  -2359.33559727     A.U. after   10 cycles
 SCF Done:  E(RB3LYP) =  -2359.33559751     A.U. after   11 cycles
 SCF Done:  E(RB3LYP) =  -2359.33559760     A.U. after   11 cycles
 Optimization completed.
    -- Stationary point found.

                         Standard orientation:
 ---------------------------------------------------------------------
 Center     Atomic      Atomic             Coordinates (Angstroms)
 Number     Number       Type             X           Y           Z
 ---------------------------------------------------------------------
      1          6           0        3.501832   -2.726402    0.401570
      2          6           0        2.758043   -1.469791    0.122858
      3          6           0        3.433847   -0.229042    0.116454
      4          6           0        4.818422   -0.159810    0.386528
      5          6           0        5.589729   -1.397702    0.682117
      6          6           0        1.401117   -1.514218   -0.104058
      7          6           0        2.702467    0.954499   -0.175203
      8          6           0        1.308194    0.886096   -0.449159
      9          6           0        0.641258   -0.343855   -0.360618
     10          6           0        0.619863    2.125150   -0.916954
     11          6           0        2.681716    3.457096   -0.476221
     12          6           0        3.396074    2.189420   -0.179173
     13          6           0        4.752444    2.235339    0.096466
     14          6           0        5.467466    1.062471    0.377652
     15          1           0        6.528681    1.093739    0.589384
     16          1           0        5.246672    3.198650    0.089750
     17          1           0        0.894630   -2.469933   -0.055897
     18          7           0        1.331812    3.335347   -0.814456
     19          7           0        4.871946   -2.605041    0.666679
     20          8           0        2.968504   -3.819985    0.404562
     21          8           0        6.781750   -1.373626    0.923098
     22          8           0        3.238380    4.539813   -0.444138
     23          8           0       -0.497170    2.134690   -1.392755
     24          6           0        0.600676    4.549065   -1.207154
     25          1           0        0.434813    4.557689   -2.285870
     26          1           0       -0.367666    4.561247   -0.709963
     27          1           0        1.198654    5.407060   -0.916366
     28          6           0        5.593023   -3.855389    0.946880
     29          1           0        5.149666   -4.349001    1.811799
     30          1           0        5.514993   -4.525213    0.090227
     31          1           0        6.631208   -3.605799    1.141144
     32          6           0       -0.814371   -0.527963   -0.498622
     33          6           0       -1.474219   -1.214812   -1.485423
     34         16           0       -1.918951    0.108819    0.684724
     35          6           0       -2.881338   -1.210148   -1.305948
     36          1           0       -0.965752   -1.672405   -2.321897
     37          6           0       -3.310217   -0.541651   -0.166580
     38          8           0       -3.800150   -1.791523   -2.124929
     39          6           0       -4.658090   -0.396645    0.320262
     40          6           0       -3.328804   -2.476978   -3.279545
     41          6           0       -5.083618    0.271088    1.460596
     42         16           0       -6.052184   -1.078652   -0.507811
     43          1           0       -4.215026   -2.861421   -3.781439
     44          1           0       -2.796374   -1.796770   -3.952434
     45          1           0       -2.675666   -3.312036   -3.004985
     46          6           0       -6.491307    0.240197    1.665214
     47          8           0       -4.164076    0.874403    2.263832
     48          6           0       -7.136488   -0.453522    0.679941
     49          1           0       -7.000365    0.705947    2.496396
     50          6           0       -4.634972    1.590672    3.399577
     51          1           0       -8.196368   -0.631926    0.583522
     52          1           0       -5.155885    0.926969    4.097586
     53          1           0       -3.749755    1.999849    3.883517
     54          1           0       -5.298980    2.409369    3.103266
 ---------------------------------------------------------------------

 The electronic state is 1-A.
 Alpha  occ. eigenvalues --  -88.87840 -88.87734 -19.16530 -19.16471 -19.12680
 Alpha  occ. eigenvalues --  -19.12627 -19.12226 -19.12171 -14.38823 -14.38387
 Alpha  occ. eigenvalues --  -10.31298 -10.31106 -10.30865 -10.30821 -10.24052
 Alpha  occ. eigenvalues --  -10.23988 -10.23690 -10.23507 -10.23417 -10.23199
 Alpha  occ. eigenvalues --  -10.23044 -10.22986 -10.22649 -10.22603 -10.22537
 Alpha  occ. eigenvalues --  -10.21713 -10.21616 -10.21602 -10.21535 -10.21359
 Alpha  occ. eigenvalues --  -10.21198 -10.21074 -10.20882 -10.20257 -10.18612
 Alpha  occ. eigenvalues --  -10.18350  -7.96391  -7.96288  -5.92716  -5.92598
 Alpha  occ. eigenvalues --   -5.92325  -5.92209  -5.91928  -5.91857  -1.08915
 Alpha  occ. eigenvalues --   -1.08597  -1.08068  -1.07987  -1.07114  -1.06759
 Alpha  occ. eigenvalues --   -0.96477  -0.96038  -0.92818  -0.89911  -0.88391
 Alpha  occ. eigenvalues --   -0.86814  -0.84608  -0.80456  -0.78756  -0.77323
 Alpha  occ. eigenvalues --   -0.76082  -0.75396  -0.74808  -0.72913  -0.72654
 Alpha  occ. eigenvalues --   -0.71662  -0.70114  -0.68725  -0.67343  -0.66164
 Alpha  occ. eigenvalues --   -0.65684  -0.64961  -0.60824  -0.59645  -0.58603
 Alpha  occ. eigenvalues --   -0.57639  -0.56678  -0.55860  -0.55322  -0.54377
 Alpha  occ. eigenvalues --   -0.53877  -0.51917  -0.50419  -0.50041  -0.49875
 Alpha  occ. eigenvalues --   -0.49399  -0.48832  -0.48716  -0.48342  -0.48081
 Alpha  occ. eigenvalues --   -0.47785  -0.47422  -0.46800  -0.46533  -0.45657
 Alpha  occ. eigenvalues --   -0.45309  -0.45035  -0.44910  -0.44497  -0.44068
 Alpha  occ. eigenvalues --   -0.42920  -0.42583  -0.42199  -0.42139  -0.41701
 Alpha  occ. eigenvalues --   -0.41530  -0.41315  -0.41139  -0.40735  -0.40103
 Alpha  occ. eigenvalues --   -0.39727  -0.38922  -0.38414  -0.37799  -0.37186
 Alpha  occ. eigenvalues --   -0.36018  -0.35683  -0.33875  -0.33447  -0.33328
 Alpha  occ. eigenvalues --   -0.33267  -0.32454  -0.31221  -0.30370  -0.29847
 Alpha  occ. eigenvalues --   -0.29322  -0.29088  -0.28806  -0.28365  -0.27444
 Alpha  occ. eigenvalues --   -0.26443  -0.24453  -0.24050  -0.18905
 Alpha virt. eigenvalues --   -0.13327  -0.07116  -0.06199  -0.04949  -0.04234
 Alpha virt. eigenvalues --   -0.00991  -0.00363  -0.00197   0.00130   0.00597
 Alpha virt. eigenvalues --    0.00704   0.00925   0.01045   0.01250   0.01804

 Mulliken charges:
               1
     1  C    0.399979
     2  C   -0.097587
     3  C    0.117672
     4  C    0.261648
     5  C    0.263003
     6  C   -0.586043
     7  C    0.137823
     8  C    0.099879
     9  C    0.417924
    10  C   -0.294726
    11  C    0.300948
    12  C    0.201205
    13  C   -0.493309
    14  C   -0.664019
    15  H    0.161407
    16  H    0.162696
    17  H    0.163112
    18  N   -0.079128
    19  N   -0.142496
    20  O   -0.272314
    21  O   -0.271427
    22  O   -0.277126
    23  O   -0.158721
    24  C   -0.181582
    25  H    0.178718
    26  H    0.178855
    27  H    0.182686
    28  C   -0.200580
    29  H    0.175610
    30  H    0.174848
    31  H    0.182873
    32  C    0.554576
    33  C   -0.835341
    34  S   -0.348113
    35  C   -0.275748
    36  H    0.120687
    37  C    0.372940
    38  O   -0.116393
    39  C    0.991714
    40  C   -0.247829
    41  C   -0.008394
    42  S   -0.251644
    43  H    0.165998
    44  H    0.148759
    45  H    0.148480
    46  C   -0.525236
    47  O   -0.142618
    48  C   -0.294362
    49  H    0.129483
    50  C   -0.237691
    51  H    0.158110
    52  H    0.142732
    53  H    0.163278
    54  H    0.144783
 Sum of Mulliken charges =  -0.00000

 Dipole moment (field-independent basis, Debye):
    X=             -2.3551    Y=             -0.1310    Z=              0.2280  Tot=              2.3698
 Quadrupole moment (field-independent basis, Debye-Ang):
   XX=           -218.3392   YY=           -228.4651   ZZ=           -204.1395
   XY=             -7.1002   XZ=            -10.4001   YZ=             13.0636

 Normal termination of Gaussian 16 at Thu Nov 26 12:37:39 2020.
