 Gaussian 16, Revision C.01,
 Gaussian 16:  ES64L-G16RevC.01  3-Jul-2019

 -------------------------------------
 # opt=modredundant b3lyp/6-311+g(d,p)
 -------------------------------------

 -----------
 NDI_125.pdb
 -----------
 Symbolic Z-matrix:
 Charge =  0 Multiplicity = 1

 SCF Done:  E(RB3LYP) =  -2359.33083270     A.U. after   19 cycles
 SCF Done:  E(RB3LYP) =  -2359.33266078     A.U. after   17 cycles
 SCF Done:  E(RB3LYP) =  -2359.33553321     A.U. after   16 cycles
 SCF Done:  E(RB3LYP) =  -2359.33559300     A.U. after   14 cycles
 SCF Done:  E(RB3LYP) =  -2359.33606557     A.U. after   13 cycles
 SCF Done:  E(RB3LYP) =  -2359.33611071     A.U. after   12 cycles
 SCF Done:  E(RB3LYP) =  -2359.33615252     A.U. after   12 cycles
 SCF Done:  E(RB3LYP) =  -2359.33616969     A.U. after   12 cycles
 SCF Done:  E(RB3LYP) =  -2359.33618327     A.U. after   11 cycles
 SCF Done:  E(RB3LYP) =  -2359.33619227     A.U. after   11 cycles
 SCF Done:  E(RB3LYP) =  -2359.33623131     A.U. after   11 cycles
 SCF Done:  E(RB3LYP) =  -2359.33623283     A.U. after   11 cycles
 SCF Done:  E(RB3LYP) =  -2359.33623375     A.U. after   10 cycles
 SCF Done:  E(RB3LYP) =  -2359.33623448     A.U. after   10 cycles
 SCF Done:  E(RB3LYP) =  -2359.33623468     A.U. after    9 cycles
 SCF Done:  E(RB3LYP) =  -2359.33623520     A.U. after    9 cycles
 SCF Done:  E(RB3LYP) =  -2359.33623582     A.U. after   10 cycles
 SCF Done:  E(RB3LYP) =  -2359.33623610     A.U. after    9 cycles
 SCF Done:  E(RB3LYP) =  -2359.33623624     A.U. after    9 cycles
 SCF Done:  E(RB3LYP) =  -2359.33623628     A.U. after   10 cycles
 Optimization completed.
    -- Stationary point found.

                         Standard orientation:
 ---------------------------------------------------------------------
 Center     Atomic      Atomic             Coordinates (Angstroms)
 Number     Number       Type             X           Y           Z
 ---------------------------------------------------------------------
      1          6           0        3.525248   -2.700793    0.447826
      2          6           0        2.769998   -1.457404    0.143148
      3          6           0        3.432339   -0.208695    0.123343
      4          6           0        4.812244   -0.118839    0.406670
      5          6           0        5.594014   -1.342572    0.731011
      6          6           0        1.415498   -1.520686   -0.087812
      7          6           0        2.689907    0.960299   -0.197537
      8          6           0        1.299255    0.871227   -0.484308
      9          6           0        0.641257   -0.363294   -0.366714
     10          6           0        0.616620    2.083874   -1.020042
     11          6           0        2.644945    3.454983   -0.549053
     12          6           0        3.369842    2.202615   -0.217376
     13          6           0        4.722633    2.269595    0.073975
     14          6           0        5.447865    1.111137    0.384186
     15          1           0        6.506124    1.158395    0.607214
     16          1           0        5.205322    3.238602    0.055638
     17          1           0        0.920369   -2.480948   -0.017476
     18          7           0        1.305991    3.307500   -0.919338
     19          7           0        4.890676   -2.559022    0.725415
     20          8           0        3.004896   -3.800872    0.461601
     21          8           0        6.782663   -1.301367    0.986121
     22          8           0        3.184495    4.546770   -0.521996
     23          8           0       -0.474959    2.061530   -1.552534
     24          6           0        0.574304    4.501093   -1.367823
     25          1           0        0.473675    4.497939   -2.454793
     26          1           0       -0.422055    4.495492   -0.929796
     27          1           0        1.135213    5.374807   -1.050790
     28          6           0        5.623559   -3.796101    1.032140
     29          1           0        5.178809   -4.280740    1.901465
     30          1           0        5.560356   -4.480715    0.186028
     31          1           0        6.657127   -3.531324    1.230915
     32          6           0       -0.809366   -0.566709   -0.475678
     33          6           0       -1.458821   -1.428852   -1.326931
     34         16           0       -1.927655    0.234886    0.589683
     35          6           0       -2.863044   -1.422236   -1.146152
     36          1           0       -0.941833   -2.013745   -2.074147
     37          6           0       -3.304190   -0.580011   -0.130925
     38          8           0       -3.772022   -2.148330   -1.851803
     39          6           0       -4.653559   -0.383643    0.329233
     40          6           0       -3.288227   -3.021369   -2.866727
     41          6           0       -5.091802    0.454936    1.346316
     42         16           0       -6.034303   -1.221307   -0.368837
     43          1           0       -4.167729   -3.501664   -3.291874
     44          1           0       -2.764380   -2.463519   -3.649821
     45          1           0       -2.623568   -3.784296   -2.448070
     46          6           0       -6.498045    0.429564    1.559104
     47          8           0       -4.184549    1.199745    2.034695
     48          6           0       -7.129189   -0.430594    0.704420
     49          1           0       -7.016127    1.015419    2.304223
     50          6           0       -4.668440    2.088882    3.035423
     51          1           0       -8.185259   -0.644175    0.643960
     52          1           0       -5.176248    1.542547    3.836992
     53          1           0       -3.790690    2.589843    3.439977
     54          1           0       -5.347703    2.833208    2.607289
 ---------------------------------------------------------------------

 The electronic state is 1-A.
 Alpha  occ. eigenvalues --  -88.88001 -88.87973 -19.16779 -19.16678 -19.12561
 Alpha  occ. eigenvalues --  -19.12518 -19.12040 -19.11979 -14.38711 -14.38213
 Alpha  occ. eigenvalues --  -10.31173 -10.30996 -10.30684 -10.30629 -10.24291
 Alpha  occ. eigenvalues --  -10.24284 -10.23684 -10.23600 -10.23564 -10.23019
 Alpha  occ. eigenvalues --  -10.22790 -10.22771 -10.22471 -10.22451 -10.22319
 Alpha  occ. eigenvalues --  -10.21793 -10.21703 -10.21630 -10.21394 -10.21338
 Alpha  occ. eigenvalues --  -10.21323 -10.21111 -10.20778 -10.20526 -10.18840
 Alpha  occ. eigenvalues --  -10.18579  -7.96556  -7.96526  -5.92881  -5.92836
 Alpha  occ. eigenvalues --   -5.92489  -5.92447  -5.92095  -5.92093  -1.08796
 Alpha  occ. eigenvalues --   -1.08406  -1.08317  -1.08212  -1.06994  -1.06561
 Alpha  occ. eigenvalues --   -0.96355  -0.95869  -0.92657  -0.90094  -0.88549
 Alpha  occ. eigenvalues --   -0.86763  -0.84446  -0.80461  -0.78604  -0.77451
 Alpha  occ. eigenvalues --   -0.76257  -0.75277  -0.75031  -0.73032  -0.72598
 Alpha  occ. eigenvalues --   -0.71596  -0.70296  -0.68800  -0.67218  -0.66023
 Alpha  occ. eigenvalues --   -0.65589  -0.64888  -0.60871  -0.59768  -0.58610
 Alpha  occ. eigenvalues --   -0.57533  -0.56732  -0.56074  -0.55202  -0.54592
 Alpha  occ. eigenvalues --   -0.53827  -0.51796  -0.50314  -0.49946  -0.49787
 Alpha  occ. eigenvalues --   -0.49481  -0.48748  -0.48607  -0.48532  -0.48261
 Alpha  occ. eigenvalues --   -0.47952  -0.47258  -0.46698  -0.46451  -0.45760
 Alpha  occ. eigenvalues --   -0.45377  -0.45018  -0.44842  -0.44393  -0.43987
 Alpha  occ. eigenvalues --   -0.42850  -0.42466  -0.42272  -0.42018  -0.41788
 Alpha  occ. eigenvalues --   -0.41513  -0.41310  -0.41224  -0.40683  -0.40016
 Alpha  occ. eigenvalues --   -0.39591  -0.39007  -0.38579  -0.37773  -0.37335
 Alpha  occ. eigenvalues --   -0.36219  -0.35760  -0.34033  -0.33663  -0.33481
 Alpha  occ. eigenvalues --   -0.33434  -0.32272  -0.31104  -0.30292  -0.29761
 Alpha  occ. eigenvalues --   -0.29278  -0.28945  -0.28780  -0.28176  -0.27509
 Alpha  occ. eigenvalues --   -0.26262  -0.24642  -0.24211  -0.19096
 Alpha virt. eigenvalues --   -0.13190  -0.07088  -0.06284  -0.04831  -0.04086
 Alpha virt. eigenvalues --   -0.00912  -0.00483  -0.00278   0.00052   0.00556
 Alpha virt. eigenvalues --    0.00715   0.00990   0.01106   0.01381   0.01848

 Mulliken charges:
               1
     1  C    0.387611
     2  C   -0.106036
     3  C    0.116087
     4  C    0.217908
     5  C    0.246135
     6  C   -0.387468
     7  C    0.150514
     8  C    0.104124
     9  C    0.312964
    10  C   -0.427628
    11  C    0.281502
    12  C    0.112464
    13  C   -0.437475
    14  C   -0.605066
    15  H    0.160514
    16  H    0.161721
    17  H    0.161777
    18  N   -0.052902
    19  N   -0.142816
    20  O   -0.275921
    21  O   -0.271297
    22  O   -0.279759
    23  O   -0.183589
    24  C   -0.175094
    25  H    0.178391
    26  H    0.177783
    27  H    0.182398
    28  C   -0.198502
    29  H    0.175328
    30  H    0.174082
    31  H    0.182730
    32  C    0.468405
    33  C   -0.556451
    34  S   -0.459860
    35  C   -0.138869
    36  H    0.126623
    37  C    0.418167
    38  O   -0.130250
    39  C    0.860726
    40  C   -0.223733
    41  C    0.016487
    42  S   -0.271987
    43  H    0.166114
    44  H    0.148735
    45  H    0.149432
    46  C   -0.584262
    47  O   -0.139760
    48  C   -0.293362
    49  H    0.130195
    50  C   -0.239031
    51  H    0.158977
    52  H    0.143282
    53  H    0.164313
    54  H    0.145630
 Sum of Mulliken charges =  -0.00000

 Dipole moment (field-independent basis, Debye):
    X=             -3.0392    Y=             -0.2930    Z=              0.3676  Tot=              3.0753
 Quadrupole moment (field-independent basis, Debye-Ang):
   XX=           -216.6688   YY=           -224.5479   ZZ=           -208.8832
   XY=             -8.1403   XZ=            -10.5830   YZ=             14.7856

 Normal termination of Gaussian 16 at Thu Nov 26 13:58:24 2020.
