 Gaussian 16, Revision C.01,
 Gaussian 16:  ES64L-G16RevC.01  3-Jul-2019

 -------------------------------------
 # opt=modredundant b3lyp/6-311+g(d,p)
 -------------------------------------

 -----------
 NDI_-85.pdb
 -----------
 Symbolic Z-matrix:
 Charge =  0 Multiplicity = 1

 SCF Done:  E(RB3LYP) =  -2359.33030895     A.U. after   18 cycles
 SCF Done:  E(RB3LYP) =  -2359.33395167     A.U. after   15 cycles
 SCF Done:  E(RB3LYP) =  -2359.33435362     A.U. after   13 cycles
 SCF Done:  E(RB3LYP) =  -2359.33435685     A.U. after   13 cycles
 SCF Done:  E(RB3LYP) =  -2359.33444927     A.U. after   13 cycles
 SCF Done:  E(RB3LYP) =  -2359.33445187     A.U. after   12 cycles
 SCF Done:  E(RB3LYP) =  -2359.33445592     A.U. after   11 cycles
 SCF Done:  E(RB3LYP) =  -2359.33445626     A.U. after   11 cycles
 SCF Done:  E(RB3LYP) =  -2359.33445665     A.U. after    9 cycles
 SCF Done:  E(RB3LYP) =  -2359.33445685     A.U. after    9 cycles
 SCF Done:  E(RB3LYP) =  -2359.33445772     A.U. after    9 cycles
 SCF Done:  E(RB3LYP) =  -2359.33445781     A.U. after    9 cycles
 SCF Done:  E(RB3LYP) =  -2359.33445784     A.U. after    8 cycles
 SCF Done:  E(RB3LYP) =  -2359.33445788     A.U. after    8 cycles
 SCF Done:  E(RB3LYP) =  -2359.33445791     A.U. after    9 cycles
 SCF Done:  E(RB3LYP) =  -2359.33445794     A.U. after    8 cycles
 SCF Done:  E(RB3LYP) =  -2359.33445796     A.U. after    8 cycles
 SCF Done:  E(RB3LYP) =  -2359.33445798     A.U. after    8 cycles
 SCF Done:  E(RB3LYP) =  -2359.33445800     A.U. after    8 cycles
 SCF Done:  E(RB3LYP) =  -2359.33445801     A.U. after    8 cycles
 Optimization completed.
    -- Stationary point found.

                         Standard orientation:
 ---------------------------------------------------------------------
 Center     Atomic      Atomic             Coordinates (Angstroms)
 Number     Number       Type             X           Y           Z
 ---------------------------------------------------------------------
      1          6           0        3.104752   -2.863730    0.459155
      2          6           0        2.542875   -1.495149    0.305900
      3          6           0        3.391825   -0.405365    0.014529
      4          6           0        4.783590   -0.597070   -0.139773
      5          6           0        5.378199   -1.953825    0.008181
      6          6           0        1.189292   -1.290975    0.454520
      7          6           0        2.828646    0.891939   -0.129104
      8          6           0        1.427616    1.085795    0.029077
      9          6           0        0.605783   -0.003586    0.340761
     10          6           0        0.871077    2.459935   -0.163776
     11          6           0        3.162379    3.344969   -0.611397
     12          6           0        3.695169    1.969825   -0.435185
     13          6           0        5.055466    1.759655   -0.581760
     14          6           0        5.603551    0.477082   -0.433402
     15          1           0        6.666820    0.308643   -0.548160
     16          1           0        5.685247    2.608718   -0.815554
     17          1           0        0.554515   -2.138089    0.681764
     18          7           0        1.779538    3.488955   -0.475211
     19          7           0        4.489652   -3.001441    0.297555
     20          8           0        2.415171   -3.832642    0.713165
     21          8           0        6.572055   -2.151246   -0.114682
     22          8           0        3.883939    4.292292   -0.864792
     23          8           0       -0.309563    2.726387   -0.073755
     24          6           0        1.193351    4.824792   -0.662099
     25          1           0        0.453367    4.792046   -1.461517
     26          1           0        0.694997    5.141557    0.254398
     27          1           0        1.998007    5.508615   -0.912496
     28          6           0        5.030000   -4.360311    0.451589
     29          1           0        4.804872   -4.734650    1.450430
     30          1           0        4.566563   -5.024508   -0.278041
     31          1           0        6.103027   -4.312610    0.296056
     32          6           0       -0.857964    0.076473    0.552092
     33          6           0       -1.524640    0.392420    1.703703
     34         16           0       -1.948517   -0.456142   -0.694078
     35          6           0       -2.932381    0.242038    1.578512
     36          1           0       -1.024022    0.734150    2.598006
     37          6           0       -3.351918   -0.208323    0.336979
     38          8           0       -3.855756    0.487188    2.550098
     39          6           0       -4.700722   -0.438069   -0.118072
     40          6           0       -3.410577    1.097199    3.755922
     41          6           0       -5.112873   -0.915086   -1.353665
     42         16           0       -6.111835   -0.118842    0.881678
     43          1           0       -4.303737    1.257947    4.357458
     44          1           0       -2.722057    0.442508    4.300891
     45          1           0       -2.926167    2.058617    3.556296
     46          6           0       -6.524780   -1.021429   -1.498588
     47          8           0       -4.178111   -1.231044   -2.294358
     48          6           0       -7.186663   -0.624940   -0.370576
     49          1           0       -7.024670   -1.373733   -2.389103
     50          6           0       -4.632668   -1.720860   -3.549971
     51          1           0       -8.252238   -0.606260   -0.201532
     52          1           0       -5.256157   -0.980140   -4.061721
     53          1           0       -3.737280   -1.908628   -4.140243
     54          1           0       -5.191957   -2.654940   -3.431655
 ---------------------------------------------------------------------

 The electronic state is 1-A.
 Alpha  occ. eigenvalues --  -88.87716 -88.87398 -19.16171 -19.16117 -19.12867
 Alpha  occ. eigenvalues --  -19.12794 -19.12538 -19.12461 -14.38995 -14.38705
 Alpha  occ. eigenvalues --  -10.31493 -10.31273 -10.31189 -10.31141 -10.23913
 Alpha  occ. eigenvalues --  -10.23660 -10.23580 -10.23503 -10.23456 -10.23275
 Alpha  occ. eigenvalues --  -10.23227 -10.23171 -10.22922 -10.22860 -10.22840
 Alpha  occ. eigenvalues --  -10.21902 -10.21847 -10.21824 -10.21392 -10.21328
 Alpha  occ. eigenvalues --  -10.21093 -10.20883 -10.20725 -10.19885 -10.18245
 Alpha  occ. eigenvalues --  -10.18029  -7.96258  -7.95953  -5.92583  -5.92263
 Alpha  occ. eigenvalues --   -5.92191  -5.91875  -5.91798  -5.91522  -1.09103
 Alpha  occ. eigenvalues --   -1.08918  -1.07695  -1.07615  -1.07304  -1.07087
 Alpha  occ. eigenvalues --   -0.96670  -0.96317  -0.93072  -0.89703  -0.88212
 Alpha  occ. eigenvalues --   -0.86847  -0.84859  -0.80491  -0.78999  -0.77140
 Alpha  occ. eigenvalues --   -0.75828  -0.75588  -0.74486  -0.73003  -0.72491
 Alpha  occ. eigenvalues --   -0.71828  -0.69810  -0.68635  -0.67549  -0.66396
 Alpha  occ. eigenvalues --   -0.65895  -0.65027  -0.60842  -0.59470  -0.58577
 Alpha  occ. eigenvalues --   -0.57816  -0.56517  -0.55696  -0.55522  -0.54050
 Alpha  occ. eigenvalues --   -0.53881  -0.52104  -0.50612  -0.50237  -0.50094
 Alpha  occ. eigenvalues --   -0.49169  -0.49022  -0.48855  -0.48076  -0.47843
 Alpha  occ. eigenvalues --   -0.47681  -0.47467  -0.46988  -0.46635  -0.45571
 Alpha  occ. eigenvalues --   -0.45356  -0.45054  -0.44893  -0.44626  -0.44088
 Alpha  occ. eigenvalues --   -0.43027  -0.42849  -0.42460  -0.42031  -0.41852
 Alpha  occ. eigenvalues --   -0.41538  -0.41217  -0.40996  -0.40713  -0.40232
 Alpha  occ. eigenvalues --   -0.39987  -0.38891  -0.38243  -0.37830  -0.36891
 Alpha  occ. eigenvalues --   -0.35817  -0.35518  -0.33700  -0.33266  -0.33116
 Alpha  occ. eigenvalues --   -0.32801  -0.32735  -0.31413  -0.30537  -0.30034
 Alpha  occ. eigenvalues --   -0.29515  -0.29375  -0.28921  -0.28685  -0.27163
 Alpha  occ. eigenvalues --   -0.26751  -0.24156  -0.23839  -0.18624
 Alpha virt. eigenvalues --   -0.13547  -0.07273  -0.06160  -0.05101  -0.04392
 Alpha virt. eigenvalues --   -0.01125  -0.00047  -0.00008   0.00187   0.00490
 Alpha virt. eigenvalues --    0.00735   0.00803   0.01044   0.01152   0.01733

 Mulliken charges:
               1
     1  C    0.399151
     2  C    0.008464
     3  C    0.212293
     4  C    0.201607
     5  C    0.254760
     6  C   -0.582264
     7  C    0.195408
     8  C    0.051272
     9  C    0.561334
    10  C   -0.443004
    11  C    0.179092
    12  C    0.189170
    13  C   -0.488639
    14  C   -0.621568
    15  H    0.161963
    16  H    0.162786
    17  H    0.170284
    18  N   -0.168301
    19  N   -0.147643
    20  O   -0.267768
    21  O   -0.268372
    22  O   -0.269165
    23  O   -0.087869
    24  C   -0.215822
    25  H    0.178439
    26  H    0.175177
    27  H    0.183782
    28  C   -0.200347
    29  H    0.175811
    30  H    0.175594
    31  H    0.182419
    32  C    0.118594
    33  C   -0.445160
    34  S   -0.176539
    35  C   -0.082857
    36  H    0.111197
    37  C    0.325231
    38  O   -0.142151
    39  C    0.774130
    40  C   -0.232890
    41  C    0.031111
    42  S   -0.286316
    43  H    0.164079
    44  H    0.140929
    45  H    0.153612
    46  C   -0.546212
    47  O   -0.146226
    48  C   -0.316386
    49  H    0.128443
    50  C   -0.235936
    51  H    0.156565
    52  H    0.144127
    53  H    0.162520
    54  H    0.142091
 Sum of Mulliken charges =  -0.00000

 Dipole moment (field-independent basis, Debye):
    X=             -1.3058    Y=              0.0827    Z=             -0.0245  Tot=              1.3087
 Quadrupole moment (field-independent basis, Debye-Ang):
   XX=           -221.8605   YY=           -229.9142   ZZ=           -200.0521
   XY=             -0.3956   XZ=              9.3753   YZ=             11.7211

 Normal termination of Gaussian 16 at Thu Nov 26 07:22:53 2020.
