 Gaussian 16, Revision C.01,
 Gaussian 16:  ES64L-G16RevC.01  3-Jul-2019

 -------------------------------------
 # opt=modredundant b3lyp/6-311+g(d,p)
 -------------------------------------

 ------------
 NDI_-175.pdb
 ------------
 Symbolic Z-matrix:
 Charge =  0 Multiplicity = 1

 SCF Done:  E(RB3LYP) =  -2359.29232129     A.U. after   18 cycles
 SCF Done:  E(RB3LYP) =  -2359.32223964     A.U. after   17 cycles
 SCF Done:  E(RB3LYP) =  -2359.33125667     A.U. after   16 cycles
 SCF Done:  E(RB3LYP) =  -2359.33318706     A.U. after   14 cycles
 SCF Done:  E(RB3LYP) =  -2359.33358485     A.U. after   13 cycles
 SCF Done:  E(RB3LYP) =  -2359.33361837     A.U. after   12 cycles
 SCF Done:  E(RB3LYP) =  -2359.33371343     A.U. after   12 cycles
 SCF Done:  E(RB3LYP) =  -2359.33380343     A.U. after   14 cycles
 SCF Done:  E(RB3LYP) =  -2359.33382936     A.U. after   14 cycles
 SCF Done:  E(RB3LYP) =  -2359.33389846     A.U. after   13 cycles
 SCF Done:  E(RB3LYP) =  -2359.33419809     A.U. after   11 cycles
 SCF Done:  E(RB3LYP) =  -2359.33420310     A.U. after   12 cycles
 SCF Done:  E(RB3LYP) =  -2359.33420435     A.U. after   11 cycles
 SCF Done:  E(RB3LYP) =  -2359.33420627     A.U. after   11 cycles
 SCF Done:  E(RB3LYP) =  -2359.33420728     A.U. after   11 cycles
 SCF Done:  E(RB3LYP) =  -2359.33420843     A.U. after   11 cycles
 SCF Done:  E(RB3LYP) =  -2359.33420893     A.U. after   10 cycles
 SCF Done:  E(RB3LYP) =  -2359.33420912     A.U. after   10 cycles
 SCF Done:  E(RB3LYP) =  -2359.33420915     A.U. after    9 cycles
 SCF Done:  E(RB3LYP) =  -2359.33420916     A.U. after    8 cycles
 Optimization completed.
    -- Stationary point found.

                         Standard orientation:
 ---------------------------------------------------------------------
 Center     Atomic      Atomic             Coordinates (Angstroms)
 Number     Number       Type             X           Y           Z
 ---------------------------------------------------------------------
      1          6           0       -3.536395   -2.670968    0.074281
      2          6           0       -2.790654   -1.393058   -0.069616
      3          6           0       -3.456213   -0.154830    0.076152
      4          6           0       -4.831810   -0.109562    0.371038
      5          6           0       -5.608319   -1.367943    0.527215
      6          6           0       -1.444456   -1.428952   -0.304228
      7          6           0       -2.700143    1.036496   -0.088131
      8          6           0       -1.301651    0.986111   -0.382019
      9          6           0       -0.624112   -0.263399   -0.443301
     10          6           0       -0.650331    2.267823   -0.732299
     11          6           0       -2.688701    3.556462   -0.112612
     12          6           0       -3.390716    2.266417    0.059242
     13          6           0       -4.745765    2.293361    0.362379
     14          6           0       -5.473552    1.111266    0.517904
     15          1           0       -6.530940    1.127870    0.747952
     16          1           0       -5.223041    3.259012    0.471556
     17          1           0       -0.999824   -2.410564   -0.340458
     18          7           0       -1.356149    3.463433   -0.514839
     19          7           0       -4.901436   -2.573074    0.360601
     20          8           0       -3.007955   -3.762153   -0.047105
     21          8           0       -6.797308   -1.367894    0.784142
     22          8           0       -3.233839    4.633494    0.059752
     23          8           0        0.465516    2.343036   -1.221099
     24          6           0       -0.630385    4.705045   -0.816885
     25          1           0        0.308075    4.723349   -0.263842
     26          1           0       -0.402033    4.755212   -1.882270
     27          1           0       -1.264590    5.536683   -0.526347
     28          6           0       -5.631280   -3.841153    0.500672
     29          1           0       -5.545294   -4.418023   -0.420322
     30          1           0       -5.202059   -4.425755    1.314849
     31          1           0       -6.670476   -3.606894    0.708289
     32          6           0        0.812072   -0.544276   -0.515355
     33          6           0        1.346100   -1.826543   -0.672578
     34         16           0        2.101247    0.567564   -0.095164
     35          6           0        2.724277   -1.908959   -0.449084
     36          1           0        0.762128   -2.684435   -0.963598
     37          6           0        3.308011   -0.695539   -0.076298
     38          8           0        3.504757   -3.016855   -0.563843
     39          6           0        4.688922   -0.450916    0.223637
     40          6           0        2.877382   -4.244093   -0.923706
     41          6           0        5.281796    0.756662    0.586846
     42         16           0        5.917668   -1.712920    0.184667
     43          1           0        3.671422   -4.987901   -0.953476
     44          1           0        2.130028   -4.537997   -0.179573
     45          1           0        2.408598   -4.172312   -1.910554
     46          6           0        6.680413    0.670102    0.823990
     47          8           0        4.516035    1.869858    0.686045
     48          6           0        7.151213   -0.601406    0.644350
     49          1           0        7.305970    1.501829    1.112838
     50          6           0        5.154054    3.103198    1.006919
     51          1           0        8.166999   -0.948176    0.758169
     52          1           0        5.902264    3.366064    0.252662
     53          1           0        4.365092    3.852638    1.012007
     54          1           0        5.621958    3.058615    1.995501
 ---------------------------------------------------------------------

 The electronic state is 1-A.
 Alpha  occ. eigenvalues --  -88.88789 -88.88337 -19.17545 -19.17220 -19.12210
 Alpha  occ. eigenvalues --  -19.12183 -19.11447 -19.11336 -14.38377 -14.37762
 Alpha  occ. eigenvalues --  -10.30765 -10.30664 -10.30123 -10.29899 -10.25355
 Alpha  occ. eigenvalues --  -10.24793 -10.24166 -10.23949 -10.23922 -10.22608
 Alpha  occ. eigenvalues --  -10.22583 -10.22467 -10.22133 -10.22031 -10.21969
 Alpha  occ. eigenvalues --  -10.21801 -10.21792 -10.21513 -10.21481 -10.21186
 Alpha  occ. eigenvalues --  -10.20863 -10.20572 -10.20500 -10.20465 -10.19477
 Alpha  occ. eigenvalues --  -10.19365  -7.97341  -7.96835  -5.93650  -5.93261
 Alpha  occ. eigenvalues --   -5.93156  -5.92910  -5.92744  -5.92387  -1.09169
 Alpha  occ. eigenvalues --   -1.08786  -1.08442  -1.07915  -1.06629  -1.05959
 Alpha  occ. eigenvalues --   -0.95999  -0.95382  -0.92033  -0.90578  -0.89014
 Alpha  occ. eigenvalues --   -0.86388  -0.83838  -0.80506  -0.78056  -0.77789
 Alpha  occ. eigenvalues --   -0.76733  -0.75701  -0.74897  -0.73519  -0.72291
 Alpha  occ. eigenvalues --   -0.71418  -0.70823  -0.68933  -0.66851  -0.65653
 Alpha  occ. eigenvalues --   -0.65301  -0.64646  -0.61049  -0.60176  -0.58554
 Alpha  occ. eigenvalues --   -0.57387  -0.56809  -0.56565  -0.55419  -0.54716
 Alpha  occ. eigenvalues --   -0.53644  -0.51366  -0.50151  -0.49883  -0.49381
 Alpha  occ. eigenvalues --   -0.49251  -0.49122  -0.48762  -0.48726  -0.48317
 Alpha  occ. eigenvalues --   -0.48167  -0.47097  -0.46569  -0.46094  -0.45977
 Alpha  occ. eigenvalues --   -0.45603  -0.44858  -0.44364  -0.44038  -0.43493
 Alpha  occ. eigenvalues --   -0.43135  -0.42426  -0.42336  -0.41974  -0.41741
 Alpha  occ. eigenvalues --   -0.41593  -0.41182  -0.40971  -0.40453  -0.39877
 Alpha  occ. eigenvalues --   -0.39498  -0.39182  -0.38828  -0.37628  -0.37150
 Alpha  occ. eigenvalues --   -0.36604  -0.36303  -0.34590  -0.34306  -0.33716
 Alpha  occ. eigenvalues --   -0.33379  -0.31677  -0.30704  -0.30419  -0.29608
 Alpha  occ. eigenvalues --   -0.29181  -0.28587  -0.28439  -0.27763  -0.27255
 Alpha  occ. eigenvalues --   -0.25893  -0.25063  -0.24537  -0.19685
 Alpha virt. eigenvalues --   -0.12722  -0.07850  -0.06163  -0.04247  -0.03704
 Alpha virt. eigenvalues --   -0.00907  -0.00485  -0.00343  -0.00116   0.00382
 Alpha virt. eigenvalues --    0.00927   0.01073   0.01451   0.01921   0.01969

 Mulliken charges:
               1
     1  C    0.344771
     2  C   -0.059141
     3  C    0.163483
     4  C    0.175229
     5  C    0.253420
     6  C    0.131836
     7  C    0.077958
     8  C    0.253569
     9  C    0.395238
    10  C   -0.425935
    11  C    0.260351
    12  C    0.079699
    13  C   -0.448353
    14  C   -0.585302
    15  H    0.157377
    16  H    0.160410
    17  H    0.155231
    18  N   -0.085118
    19  N   -0.147829
    20  O   -0.287118
    21  O   -0.265901
    22  O   -0.281851
    23  O   -0.222489
    24  C   -0.171172
    25  H    0.170165
    26  H    0.177469
    27  H    0.182460
    28  C   -0.197602
    29  H    0.173036
    30  H    0.173292
    31  H    0.182097
    32  C   -0.119251
    33  C   -0.327961
    34  S   -0.671520
    35  C   -0.372325
    36  H    0.128872
    37  C    0.640432
    38  O   -0.135694
    39  C    0.850514
    40  C   -0.225557
    41  C   -0.056512
    42  S   -0.249760
    43  H    0.168695
    44  H    0.150776
    45  H    0.149386
    46  C   -0.528438
    47  O   -0.114921
    48  C   -0.292021
    49  H    0.133027
    50  C   -0.242319
    51  H    0.162860
    52  H    0.148798
    53  H    0.168972
    54  H    0.144667
 Sum of Mulliken charges =  -0.00000

 Dipole moment (field-independent basis, Debye):
    X=              5.5318    Y=             -0.8529    Z=              0.5068  Tot=              5.6201
 Quadrupole moment (field-independent basis, Debye-Ang):
   XX=           -209.8473   YY=           -213.4041   ZZ=           -223.1982
   XY=             12.4794   XZ=              9.2206   YZ=              5.9490

 Normal termination of Gaussian 16 at Thu Nov 26 08:31:59 2020.
