 Gaussian 16, Revision C.01,
 Gaussian 16:  ES64L-G16RevC.01  3-Jul-2019

 -------------------------------------
 # opt=modredundant b3lyp/6-311+g(d,p)
 -------------------------------------

 -----------
 NDI_-45.pdb
 -----------
 Symbolic Z-matrix:
 Charge =  0 Multiplicity = 1

 SCF Done:  E(RB3LYP) =  -2359.33753961     A.U. after   17 cycles
 SCF Done:  E(RB3LYP) =  -2359.33761145     A.U. after   14 cycles
 SCF Done:  E(RB3LYP) =  -2359.33807903     A.U. after   13 cycles
 SCF Done:  E(RB3LYP) =  -2359.33815500     A.U. after   13 cycles
 SCF Done:  E(RB3LYP) =  -2359.33817817     A.U. after   12 cycles
 SCF Done:  E(RB3LYP) =  -2359.33818766     A.U. after   12 cycles
 SCF Done:  E(RB3LYP) =  -2359.33819059     A.U. after   12 cycles
 SCF Done:  E(RB3LYP) =  -2359.33819188     A.U. after   11 cycles
 SCF Done:  E(RB3LYP) =  -2359.33819259     A.U. after   11 cycles
 SCF Done:  E(RB3LYP) =  -2359.33819299     A.U. after   10 cycles
 SCF Done:  E(RB3LYP) =  -2359.33819313     A.U. after   10 cycles
 SCF Done:  E(RB3LYP) =  -2359.33819322     A.U. after   10 cycles
 SCF Done:  E(RB3LYP) =  -2359.33819327     A.U. after    9 cycles
 SCF Done:  E(RB3LYP) =  -2359.33819331     A.U. after    8 cycles
 SCF Done:  E(RB3LYP) =  -2359.33819336     A.U. after    8 cycles
 SCF Done:  E(RB3LYP) =  -2359.33819338     A.U. after    9 cycles
 SCF Done:  E(RB3LYP) =  -2359.33819342     A.U. after    9 cycles
 SCF Done:  E(RB3LYP) =  -2359.33819347     A.U. after   10 cycles
 SCF Done:  E(RB3LYP) =  -2359.33819349     A.U. after   10 cycles
 Optimization completed.
    -- Stationary point found.

                         Standard orientation:
 ---------------------------------------------------------------------
 Center     Atomic      Atomic             Coordinates (Angstroms)
 Number     Number       Type             X           Y           Z
 ---------------------------------------------------------------------
      1          6           0        2.644170   -2.971168    0.469884
      2          6           0        2.296913   -1.540377    0.260565
      3          6           0        3.314184   -0.573986    0.087827
      4          6           0        4.672332   -0.952327    0.112479
      5          6           0        5.055717   -2.372849    0.332770
      6          6           0        0.980184   -1.159749    0.259858
      7          6           0        2.940813    0.782193   -0.126321
      8          6           0        1.566013    1.167518   -0.138197
      9          6           0        0.565353    0.195471    0.100519
     10          6           0        1.246206    2.576973   -0.494843
     11          6           0        3.676327    3.144266   -0.604978
     12          6           0        3.981899    1.722112   -0.332251
     13          6           0        5.312389    1.330903   -0.299300
     14          6           0        5.664578   -0.003469   -0.074239
     15          1           0        6.701139   -0.313976   -0.050339
     16          1           0        6.070632    2.087137   -0.458472
     17          1           0        0.234851   -1.924911    0.433561
     18          7           0        2.321128    3.463122   -0.702707
     19          7           0        4.006023   -3.292678    0.493683
     20          8           0        1.803661   -3.839219    0.615866
     21          8           0        6.218097   -2.729970    0.370633
     22          8           0        4.545989    3.985499   -0.753829
     23          8           0        0.115643    3.008615   -0.635064
     24          6           0        1.954991    4.844701   -1.046027
     25          1           0        1.347523    4.849798   -1.950719
     26          1           0        1.370882    5.286978   -0.238285
     27          1           0        2.873704    5.402563   -1.196598
     28          6           0        4.337358   -4.708908    0.706304
     29          1           0        3.927826   -5.043419    1.659691
     30          1           0        3.898007   -5.312612   -0.088106
     31          1           0        5.418580   -4.803004    0.702397
     32          6           0       -0.872313    0.432072    0.223337
     33          6           0       -1.554185    1.404353    0.922271
     34         16           0       -1.991932   -0.749058   -0.434257
     35          6           0       -2.949131    1.216704    0.921506
     36          1           0       -1.059692    2.227235    1.411373
     37          6           0       -3.380250    0.093730    0.213642
     38          8           0       -3.871555    2.010445    1.526957
     39          6           0       -4.730746   -0.336904   -0.014660
     40          6           0       -3.419912    3.226571    2.118049
     41          6           0       -5.156403   -1.472868   -0.695830
     42         16           0       -6.133545    0.558927    0.557474
     43          1           0       -4.314101    3.734282    2.475150
     44          1           0       -2.753270    3.028642    2.963763
     45          1           0       -2.908037    3.853701    1.381775
     46          6           0       -6.569061   -1.620103   -0.757416
     47          8           0       -4.232510   -2.314020   -1.227702
     48          6           0       -7.217326   -0.596465   -0.123435
     49          1           0       -7.079805   -2.438805   -1.242747
     50          6           0       -4.692738   -3.484261   -1.897694
     51          1           0       -8.282173   -0.459279   -0.013766
     52          1           0       -5.306317   -3.224606   -2.766244
     53          1           0       -3.798563   -4.008845   -2.229037
     54          1           0       -5.262407   -4.127483   -1.219516
 ---------------------------------------------------------------------

 The electronic state is 1-A.
 Alpha  occ. eigenvalues --  -88.88457 -88.88454 -19.17259 -19.16912 -19.12310
 Alpha  occ. eigenvalues --  -19.12269 -19.11646 -19.11581 -14.38478 -14.38004
 Alpha  occ. eigenvalues --  -10.30910 -10.30743 -10.30492 -10.30224 -10.24894
 Alpha  occ. eigenvalues --  -10.24626 -10.23953 -10.23717 -10.23594 -10.22782
 Alpha  occ. eigenvalues --  -10.22481 -10.22406 -10.22384 -10.22114 -10.22103
 Alpha  occ. eigenvalues --  -10.22002 -10.21838 -10.21823 -10.21288 -10.21082
 Alpha  occ. eigenvalues --  -10.20934 -10.20926 -10.20858 -10.20626 -10.19040
 Alpha  occ. eigenvalues --  -10.18912  -7.97020  -7.97006  -5.93337  -5.93316
 Alpha  occ. eigenvalues --   -5.92948  -5.92927  -5.92574  -5.92567  -1.08811
 Alpha  occ. eigenvalues --   -1.08561  -1.08472  -1.08113  -1.06747  -1.06207
 Alpha  occ. eigenvalues --   -0.96123  -0.95555  -0.92295  -0.90426  -0.88853
 Alpha  occ. eigenvalues --   -0.86552  -0.84103  -0.80423  -0.78314  -0.77726
 Alpha  occ. eigenvalues --   -0.76475  -0.75407  -0.75053  -0.73253  -0.72357
 Alpha  occ. eigenvalues --   -0.71770  -0.70401  -0.68842  -0.67038  -0.65747
 Alpha  occ. eigenvalues --   -0.65524  -0.64578  -0.61131  -0.59918  -0.58547
 Alpha  occ. eigenvalues --   -0.57307  -0.56750  -0.56448  -0.55230  -0.54888
 Alpha  occ. eigenvalues --   -0.53431  -0.51585  -0.50245  -0.49876  -0.49651
 Alpha  occ. eigenvalues --   -0.49346  -0.48860  -0.48628  -0.48449  -0.48407
 Alpha  occ. eigenvalues --   -0.48155  -0.46966  -0.46502  -0.46250  -0.45841
 Alpha  occ. eigenvalues --   -0.45646  -0.44882  -0.44435  -0.44146  -0.43622
 Alpha  occ. eigenvalues --   -0.42786  -0.42550  -0.42351  -0.41991  -0.41776
 Alpha  occ. eigenvalues --   -0.41713  -0.41156  -0.41068  -0.40433  -0.39792
 Alpha  occ. eigenvalues --   -0.39531  -0.39144  -0.38920  -0.37725  -0.37449
 Alpha  occ. eigenvalues --   -0.36485  -0.35792  -0.34404  -0.34058  -0.33770
 Alpha  occ. eigenvalues --   -0.33509  -0.32016  -0.30925  -0.30344  -0.29704
 Alpha  occ. eigenvalues --   -0.29230  -0.28801  -0.28595  -0.27982  -0.27252
 Alpha  occ. eigenvalues --   -0.26041  -0.24757  -0.24620  -0.19447
 Alpha virt. eigenvalues --   -0.12977  -0.07321  -0.06366  -0.04523  -0.03799
 Alpha virt. eigenvalues --   -0.00866  -0.00444  -0.00314   0.00026   0.00434
 Alpha virt. eigenvalues --    0.00782   0.01161   0.01484   0.01561   0.01818

 Mulliken charges:
               1
     1  C    0.294935
     2  C   -0.086904
     3  C    0.154054
     4  C    0.203386
     5  C    0.232176
     6  C   -0.407221
     7  C    0.214859
     8  C    0.318934
     9  C    0.493678
    10  C   -0.389781
    11  C    0.198840
    12  C    0.157515
    13  C   -0.472233
    14  C   -0.583047
    15  H    0.158670
    16  H    0.160757
    17  H    0.181212
    18  N   -0.138487
    19  N   -0.143035
    20  O   -0.279611
    21  O   -0.268745
    22  O   -0.277076
    23  O   -0.204416
    24  C   -0.202823
    25  H    0.176161
    26  H    0.169735
    27  H    0.182399
    28  C   -0.197858
    29  H    0.174291
    30  H    0.173671
    31  H    0.182194
    32  C    0.087159
    33  C   -0.488495
    34  S   -0.558049
    35  C   -0.165931
    36  H    0.135282
    37  C    0.704659
    38  O   -0.131598
    39  C    0.796557
    40  C   -0.240821
    41  C   -0.048639
    42  S   -0.263121
    43  H    0.164912
    44  H    0.144361
    45  H    0.161662
    46  C   -0.589201
    47  O   -0.129644
    48  C   -0.268757
    49  H    0.132226
    50  C   -0.240314
    51  H    0.161233
    52  H    0.145419
    53  H    0.168512
    54  H    0.146359
 Sum of Mulliken charges =  -0.00000

 Dipole moment (field-independent basis, Debye):
    X=             -4.5015    Y=             -0.5622    Z=              0.1859  Tot=              4.5402
 Quadrupole moment (field-independent basis, Debye-Ang):
   XX=           -217.5143   YY=           -214.2301   ZZ=           -216.3088
   XY=              3.8832   XZ=              4.5894   YZ=             15.0300

 Normal termination of Gaussian 16 at Thu Nov 26 07:46:56 2020.
