 Gaussian 16, Revision C.01,
 Gaussian 16:  ES64L-G16RevC.01  3-Jul-2019

 -------------------------------------
 # opt=modredundant b3lyp/6-311+g(d,p)
 -------------------------------------

 ----------
 NDI_25.pdb
 ----------
 Symbolic Z-matrix:
 Charge =  0 Multiplicity = 1

 SCF Done:  E(RB3LYP) =  -2359.32719579     A.U. after   17 cycles
 SCF Done:  E(RB3LYP) =  -2359.31841821     A.U. after   17 cycles
 SCF Done:  E(RB3LYP) =  -2359.33129259     A.U. after   15 cycles
 SCF Done:  E(RB3LYP) =  -2359.33550816     A.U. after   16 cycles
 SCF Done:  E(RB3LYP) =  -2359.33594909     A.U. after   14 cycles
 SCF Done:  E(RB3LYP) =  -2359.33660384     A.U. after   13 cycles
 SCF Done:  E(RB3LYP) =  -2359.33693274     A.U. after   14 cycles
 SCF Done:  E(RB3LYP) =  -2359.33711396     A.U. after   16 cycles
 SCF Done:  E(RB3LYP) =  -2359.33734905     A.U. after   14 cycles
 SCF Done:  E(RB3LYP) =  -2359.33761619     A.U. after   15 cycles
 SCF Done:  E(RB3LYP) =  -2359.33782777     A.U. after   12 cycles
 SCF Done:  E(RB3LYP) =  -2359.33783300     A.U. after   12 cycles
 SCF Done:  E(RB3LYP) =  -2359.33783512     A.U. after   10 cycles
 SCF Done:  E(RB3LYP) =  -2359.33783538     A.U. after   10 cycles
 SCF Done:  E(RB3LYP) =  -2359.33783553     A.U. after   10 cycles
 SCF Done:  E(RB3LYP) =  -2359.33783559     A.U. after    9 cycles
 SCF Done:  E(RB3LYP) =  -2359.33783562     A.U. after    9 cycles
 SCF Done:  E(RB3LYP) =  -2359.33783563     A.U. after    9 cycles
 SCF Done:  E(RB3LYP) =  -2359.33783563     A.U. after   10 cycles
 SCF Done:  E(RB3LYP) =  -2359.33783563     A.U. after    9 cycles
 Optimization completed.
    -- Stationary point found.

                         Standard orientation:
 ---------------------------------------------------------------------
 Center     Atomic      Atomic             Coordinates (Angstroms)
 Number     Number       Type             X           Y           Z
 ---------------------------------------------------------------------
      1          6           0       -2.565245   -3.017309    0.250320
      2          6           0       -2.256594   -1.569210    0.114556
      3          6           0       -3.298977   -0.614683    0.069546
      4          6           0       -4.644849   -1.020216    0.165382
      5          6           0       -4.989446   -2.459490    0.315323
      6          6           0       -0.950700   -1.161782    0.074152
      7          6           0       -2.958519    0.757662   -0.086592
      8          6           0       -1.592891    1.169733   -0.176037
      9          6           0       -0.557801    0.207699   -0.033402
     10          6           0       -1.337873    2.585023   -0.554604
     11          6           0       -3.763080    3.132170   -0.331293
     12          6           0       -4.026100    1.689059   -0.144119
     13          6           0       -5.345450    1.272035   -0.034270
     14          6           0       -5.662669   -0.080058    0.119429
     15          1           0       -6.690028   -0.410980    0.198856
     16          1           0       -6.122539    2.024753   -0.075764
     17          1           0       -0.193856   -1.929255    0.172197
     18          7           0       -2.427980    3.476580   -0.547457
     19          7           0       -3.916763   -3.367267    0.341175
     20          8           0       -1.702643   -3.875797    0.283629
     21          8           0       -6.140429   -2.842496    0.408500
     22          8           0       -4.649099    3.969783   -0.324816
     23          8           0       -0.249862    3.020753   -0.891709
     24          6           0       -2.115755    4.876291   -0.868832
     25          1           0       -1.356598    5.251423   -0.182739
     26          1           0       -1.725000    4.947402   -1.884389
     27          1           0       -3.032599    5.449294   -0.773284
     28          6           0       -4.211020   -4.800721    0.478833
     29          1           0       -3.809534   -5.342082   -0.378029
     30          1           0       -3.740199   -5.188338    1.382620
     31          1           0       -5.288826   -4.916576    0.532038
     32          6           0        0.870129    0.459200    0.116255
     33          6           0        1.550327    1.558955    0.602223
     34         16           0        2.013031   -0.808545   -0.321182
     35          6           0        2.943877    1.387891    0.637517
     36          1           0        1.056668    2.459058    0.923357
     37          6           0        3.388132    0.152889    0.156636
     38          8           0        3.858030    2.290539    1.077621
     39          6           0        4.741796   -0.305073    0.033566
     40          6           0        3.390418    3.582195    1.461238
     41          6           0        5.180772   -1.542173   -0.430590
     42         16           0        6.133321    0.680914    0.470004
     43          1           0        4.279081    4.156287    1.716885
     44          1           0        2.860931    4.067840    0.636076
     45          1           0        2.734893    3.517875    2.335695
     46          6           0        6.593924   -1.693642   -0.435488
     47          8           0        4.268148   -2.464404   -0.826039
     48          6           0        7.228934   -0.572888    0.024133
     49          1           0        7.114455   -2.582464   -0.760467
     50          6           0        4.739452   -3.731062   -1.279471
     51          1           0        8.291536   -0.415048    0.128143
     52          1           0        5.296221   -4.247858   -0.491545
     53          1           0        3.850621   -4.305798   -1.532361
     54          1           0        5.368429   -3.620613   -2.168396
 ---------------------------------------------------------------------

 The electronic state is 1-A.
 Alpha  occ. eigenvalues --  -88.88748 -88.88663 -19.17544 -19.17180 -19.12182
 Alpha  occ. eigenvalues --  -19.12154 -19.11476 -19.11452 -14.38358 -14.37861
 Alpha  occ. eigenvalues --  -10.30774 -10.30624 -10.30365 -10.30036 -10.25251
 Alpha  occ. eigenvalues --  -10.24924 -10.24131 -10.23750 -10.23744 -10.22835
 Alpha  occ. eigenvalues --  -10.22601 -10.22244 -10.22228 -10.22140 -10.22120
 Alpha  occ. eigenvalues --  -10.21921 -10.21900 -10.21594 -10.21407 -10.21215
 Alpha  occ. eigenvalues --  -10.20843 -10.20698 -10.20607 -10.20591 -10.19313
 Alpha  occ. eigenvalues --  -10.19037  -7.97299  -7.97230  -5.93609  -5.93546
 Alpha  occ. eigenvalues --   -5.93219  -5.93156  -5.92867  -5.92778  -1.09113
 Alpha  occ. eigenvalues --   -1.08755  -1.08435  -1.07971  -1.06619  -1.06045
 Alpha  occ. eigenvalues --   -0.95997  -0.95422  -0.92132  -0.90647  -0.89053
 Alpha  occ. eigenvalues --   -0.86452  -0.83927  -0.80470  -0.78230  -0.77841
 Alpha  occ. eigenvalues --   -0.76652  -0.75643  -0.74939  -0.73470  -0.72281
 Alpha  occ. eigenvalues --   -0.71779  -0.70565  -0.68894  -0.66945  -0.65611
 Alpha  occ. eigenvalues --   -0.65482  -0.64456  -0.61271  -0.60082  -0.58525
 Alpha  occ. eigenvalues --   -0.57281  -0.56790  -0.56673  -0.55241  -0.55053
 Alpha  occ. eigenvalues --   -0.53374  -0.51490  -0.50353  -0.49814  -0.49539
 Alpha  occ. eigenvalues --   -0.49234  -0.49090  -0.48693  -0.48600  -0.48386
 Alpha  occ. eigenvalues --   -0.48187  -0.46935  -0.46511  -0.46199  -0.45904
 Alpha  occ. eigenvalues --   -0.45716  -0.44740  -0.44361  -0.43984  -0.43424
 Alpha  occ. eigenvalues --   -0.42968  -0.42652  -0.42425  -0.41976  -0.41922
 Alpha  occ. eigenvalues --   -0.41658  -0.41017  -0.40977  -0.40373  -0.39974
 Alpha  occ. eigenvalues --   -0.39391  -0.39196  -0.38995  -0.37859  -0.37412
 Alpha  occ. eigenvalues --   -0.36659  -0.36110  -0.34589  -0.34294  -0.33771
 Alpha  occ. eigenvalues --   -0.33660  -0.31869  -0.30831  -0.30389  -0.29600
 Alpha  occ. eigenvalues --   -0.29164  -0.28684  -0.28529  -0.27836  -0.27225
 Alpha  occ. eigenvalues --   -0.25973  -0.24935  -0.24812  -0.19651
 Alpha virt. eigenvalues --   -0.12849  -0.07690  -0.06277  -0.04327  -0.03665
 Alpha virt. eigenvalues --   -0.00860  -0.00491  -0.00332  -0.00070   0.00369
 Alpha virt. eigenvalues --    0.00828   0.01246   0.01431   0.01739   0.01923

 Mulliken charges:
               1
     1  C    0.278258
     2  C   -0.078978
     3  C    0.190782
     4  C    0.201449
     5  C    0.230608
     6  C   -0.023629
     7  C    0.227626
     8  C    0.509692
     9  C    0.267774
    10  C   -0.713640
    11  C    0.223591
    12  C    0.128783
    13  C   -0.479196
    14  C   -0.584432
    15  H    0.157935
    16  H    0.160501
    17  H    0.170603
    18  N   -0.085363
    19  N   -0.141104
    20  O   -0.284953
    21  O   -0.268438
    22  O   -0.279702
    23  O   -0.236924
    24  C   -0.171418
    25  H    0.165913
    26  H    0.177467
    27  H    0.182933
    28  C   -0.199002
    29  H    0.173138
    30  H    0.173916
    31  H    0.181760
    32  C    0.006260
    33  C   -0.442139
    34  S   -0.658628
    35  C   -0.235245
    36  H    0.141618
    37  C    0.710578
    38  O   -0.127350
    39  C    0.877952
    40  C   -0.241425
    41  C   -0.003361
    42  S   -0.247254
    43  H    0.166221
    44  H    0.164036
    45  H    0.145451
    46  C   -0.622604
    47  O   -0.128151
    48  C   -0.281199
    49  H    0.133433
    50  C   -0.240860
    51  H    0.162793
    52  H    0.147169
    53  H    0.171103
    54  H    0.145652
 Sum of Mulliken charges =  -0.00000

 Dipole moment (field-independent basis, Debye):
    X=              5.3681    Y=             -0.6472    Z=              0.3619  Tot=              5.4191
 Quadrupole moment (field-independent basis, Debye-Ang):
   XX=           -215.5022   YY=           -210.4751   ZZ=           -220.7718
   XY=             -4.6117   XZ=             -1.0316   YZ=             11.1866

 Normal termination of Gaussian 16 at Thu Nov 26 12:17:42 2020.
