 Gaussian 16, Revision C.01,
 Gaussian 16:  ES64L-G16RevC.01  3-Jul-2019

 -------------------------------------
 # opt=modredundant b3lyp/6-311+g(d,p)
 -------------------------------------

 ---------------
 pg2T_TT_-20.pdb
 ---------------
 Symbolic Z-matrix:
 Charge =  0 Multiplicity = 1

 SCF Done:  E(RB3LYP) =  -1654.46448483     A.U. after   17 cycles
 SCF Done:  E(RB3LYP) =  -1654.52920993     A.U. after   14 cycles
 SCF Done:  E(RB3LYP) =  -1654.60958043     A.U. after   15 cycles
 SCF Done:  E(RB3LYP) =  -1654.62407393     A.U. after   15 cycles
 SCF Done:  E(RB3LYP) =  -1654.63069466     A.U. after   14 cycles
 SCF Done:  E(RB3LYP) =  -1654.63210709     A.U. after   14 cycles
 SCF Done:  E(RB3LYP) =  -1654.63278179     A.U. after   13 cycles
 SCF Done:  E(RB3LYP) =  -1654.63290075     A.U. after   12 cycles
 SCF Done:  E(RB3LYP) =  -1654.63288942     A.U. after   12 cycles
 SCF Done:  E(RB3LYP) =  -1654.63294481     A.U. after   12 cycles
 SCF Done:  E(RB3LYP) =  -1654.63295344     A.U. after   11 cycles
 SCF Done:  E(RB3LYP) =  -1654.63295461     A.U. after   10 cycles
 SCF Done:  E(RB3LYP) =  -1654.63295475     A.U. after    9 cycles
 Optimization completed.
    -- Stationary point found.

                         Standard orientation:
 ---------------------------------------------------------------------
 Center     Atomic      Atomic             Coordinates (Angstroms)
 Number     Number       Type             X           Y           Z
 ---------------------------------------------------------------------
      1          6           0       -3.825089    0.414053    0.151358
      2          6           0       -2.481472    0.883245    0.218368
      3          6           0       -1.551534   -0.108232    0.004488
      4          6           0       -3.919805   -0.923610   -0.111800
      5         16           0       -2.349337   -1.635011   -0.302865
      6          1           0       -4.813620   -1.518698   -0.205112
      7          6           0       -0.107558   -0.005723   -0.007511
      8         16           0        0.662154    1.570912   -0.253008
      9          6           0        2.246547    0.858956   -0.109207
     10          6           0        2.151264   -0.511612    0.095636
     11          6           0        0.822899   -1.004668    0.160115
     12          1           0        0.555102   -2.036357    0.342822
     13         16           0        3.736989   -1.222290    0.238561
     14          6           0        4.484175    0.343160    0.016548
     15          6           0        3.579983    1.352417   -0.155246
     16          1           0        5.560941    0.415784    0.025907
     17          1           0        3.858385    2.385981   -0.306604
     18          1           0       -2.214444    1.908509    0.444767
     19          8           0       -4.933886    1.191832    0.338892
     20          1           0       -4.668637    2.104441    0.487592
 ---------------------------------------------------------------------

 The electronic state is 1-A.
 Alpha  occ. eigenvalues --  -88.88822 -88.88803 -88.88561 -19.16570 -10.24678
 Alpha  occ. eigenvalues --  -10.22993 -10.22836 -10.21623 -10.21566 -10.21394
 Alpha  occ. eigenvalues --  -10.19769 -10.19755 -10.19720 -10.19113  -7.97403
 Alpha  occ. eigenvalues --   -7.97376  -7.97159  -5.93728  -5.93688  -5.93470
 Alpha  occ. eigenvalues --   -5.93367  -5.93323  -5.93093  -5.92925  -5.92919
 Alpha  occ. eigenvalues --   -5.92717  -1.07580  -0.92162  -0.89504  -0.85352
 Alpha  occ. eigenvalues --   -0.77713  -0.76517  -0.74581  -0.71801  -0.70657
 Alpha  occ. eigenvalues --   -0.63331  -0.58920  -0.58042  -0.55779  -0.54807
 Alpha  occ. eigenvalues --   -0.53296  -0.50211  -0.48560  -0.44293  -0.43821
 Alpha  occ. eigenvalues --   -0.43302  -0.42022  -0.41899  -0.40152  -0.39830
 Alpha  occ. eigenvalues --   -0.38087  -0.37629  -0.37173  -0.35631  -0.34564
 Alpha  occ. eigenvalues --   -0.33961  -0.29610  -0.27070  -0.24484  -0.24185
 Alpha  occ. eigenvalues --   -0.20715
 Alpha virt. eigenvalues --   -0.06820  -0.01806  -0.01547  -0.00894  -0.00523
 Alpha virt. eigenvalues --    0.00704   0.01026   0.01613   0.01785   0.02198
 Alpha virt. eigenvalues --    0.03049   0.03328   0.03953   0.04057   0.04375

 Mulliken charges:
               1
     1  C   -0.701648
     2  C    0.725511
     3  C    0.096337
     4  C    0.365400
     5  S   -0.497656
     6  H    0.159077
     7  C    0.022556
     8  S   -0.587427
     9  C    0.289074
    10  C    0.285269
    11  C    0.089120
    12  H    0.140263
    13  S   -0.411944
    14  C   -0.135676
    15  C   -0.241872
    16  H    0.168718
    17  H    0.135707
    18  H    0.120875
    19  O   -0.273714
    20  H    0.252032
 Sum of Mulliken charges =  -0.00000

 Dipole moment (field-independent basis, Debye):
    X=              1.1279    Y=              1.4802    Z=              0.3060  Tot=              1.8859
 Quadrupole moment (field-independent basis, Debye-Ang):
   XX=            -97.7163   YY=            -91.8831   ZZ=           -108.3924
   XY=             -0.3834   XZ=             -0.8550   YZ=              0.7968

 Normal termination of Gaussian 16 at Sun Oct 17 19:41:29 2021.
