 Gaussian 16, Revision C.01,
 Gaussian 16:  ES64L-G16RevC.01  3-Jul-2019

 -------------------------------------
 # opt=modredundant b3lyp/6-311+g(d,p)
 -------------------------------------

 ---------------
 pg2T_TT_135.pdb
 ---------------
 Symbolic Z-matrix:
 Charge =  0 Multiplicity = 1

 SCF Done:  E(RB3LYP) =  -1654.46227040     A.U. after   17 cycles
 SCF Done:  E(RB3LYP) =  -1654.52718631     A.U. after   14 cycles
 SCF Done:  E(RB3LYP) =  -1654.60787369     A.U. after   14 cycles
 SCF Done:  E(RB3LYP) =  -1654.62267078     A.U. after   15 cycles
 SCF Done:  E(RB3LYP) =  -1654.62936507     A.U. after   14 cycles
 SCF Done:  E(RB3LYP) =  -1654.63075786     A.U. after   14 cycles
 SCF Done:  E(RB3LYP) =  -1654.63149318     A.U. after   14 cycles
 SCF Done:  E(RB3LYP) =  -1654.63147685     A.U. after   13 cycles
 SCF Done:  E(RB3LYP) =  -1654.63166710     A.U. after   13 cycles
 SCF Done:  E(RB3LYP) =  -1654.63168814     A.U. after   12 cycles
 SCF Done:  E(RB3LYP) =  -1654.63169672     A.U. after   12 cycles
 SCF Done:  E(RB3LYP) =  -1654.63169931     A.U. after   11 cycles
 SCF Done:  E(RB3LYP) =  -1654.63169948     A.U. after   10 cycles
 Optimization completed.
    -- Stationary point found.

                         Standard orientation:
 ---------------------------------------------------------------------
 Center     Atomic      Atomic             Coordinates (Angstroms)
 Number     Number       Type             X           Y           Z
 ---------------------------------------------------------------------
      1          6           0        3.761847    0.728570   -0.217478
      2          6           0        2.376978    1.018082   -0.392211
      3          6           0        1.556687    0.008698    0.051984
      4          6           0        3.992098   -0.498238    0.339928
      5         16           0        2.504278   -1.317889    0.684245
      6          1           0        4.943103   -0.954586    0.562163
      7          6           0        0.104807   -0.025582    0.032190
      8         16           0       -0.758486   -1.473854   -0.507436
      9          6           0       -2.293985   -0.682963   -0.280318
     10          6           0       -2.114337    0.621982    0.161388
     11          6           0       -0.757414    0.997301    0.344418
     12          1           0       -0.419621    1.954648    0.716104
     13         16           0       -3.652876    1.409600    0.392800
     14          6           0       -4.495702   -0.036983   -0.113361
     15          6           0       -3.656651   -1.064113   -0.437195
     16          1           0       -5.574662   -0.032360   -0.139646
     17          1           0       -3.998673   -2.034187   -0.769869
     18          1           0        1.999184    1.920386   -0.857259
     19          8           0        4.786161    1.560649   -0.577116
     20          1           0        4.428760    2.374668   -0.944374
 ---------------------------------------------------------------------

 The electronic state is 1-A.
 Alpha  occ. eigenvalues --  -88.88764 -88.88736 -88.88543 -19.16575 -10.24643
 Alpha  occ. eigenvalues --  -10.22809 -10.22671 -10.21537 -10.21479 -10.21356
 Alpha  occ. eigenvalues --  -10.19746 -10.19736 -10.19652 -10.19146  -7.97338
 Alpha  occ. eigenvalues --   -7.97308  -7.97135  -5.93650  -5.93627  -5.93438
 Alpha  occ. eigenvalues --   -5.93285  -5.93265  -5.93063  -5.92886  -5.92835
 Alpha  occ. eigenvalues --   -5.92708  -1.07567  -0.92069  -0.89453  -0.85281
 Alpha  occ. eigenvalues --   -0.77686  -0.76293  -0.74512  -0.71769  -0.70620
 Alpha  occ. eigenvalues --   -0.63214  -0.58947  -0.57813  -0.55202  -0.54712
 Alpha  occ. eigenvalues --   -0.53926  -0.50198  -0.48558  -0.44100  -0.43792
 Alpha  occ. eigenvalues --   -0.43244  -0.42012  -0.41610  -0.40372  -0.39688
 Alpha  occ. eigenvalues --   -0.38053  -0.37613  -0.36617  -0.35620  -0.34543
 Alpha  occ. eigenvalues --   -0.33988  -0.29486  -0.26629  -0.24443  -0.23955
 Alpha  occ. eigenvalues --   -0.21259
 Alpha virt. eigenvalues --   -0.06168  -0.02445  -0.01674  -0.00806  -0.00390
 Alpha virt. eigenvalues --    0.00363   0.00890   0.01590   0.01765   0.02507
 Alpha virt. eigenvalues --    0.02968   0.03250   0.04045   0.04209   0.04450

 Mulliken charges:
               1
     1  C   -0.690776
     2  C    0.326503
     3  C    0.145549
     4  C    0.331938
     5  S   -0.308733
     6  H    0.159625
     7  C   -0.190917
     8  S   -0.576102
     9  C    0.213004
    10  C   -0.496309
    11  C    0.881815
    12  H    0.132008
    13  S   -0.388038
    14  C   -0.192225
    15  C    0.253429
    16  H    0.168619
    17  H    0.136417
    18  H    0.115677
    19  O   -0.273657
    20  H    0.252174
 Sum of Mulliken charges =  -0.00000

 Dipole moment (field-independent basis, Debye):
    X=             -1.2203    Y=              1.2682    Z=             -0.6325  Tot=              1.8702
 Quadrupole moment (field-independent basis, Debye-Ang):
   XX=            -98.2338   YY=            -93.7373   ZZ=           -106.2662
   XY=              5.2668   XZ=              0.2171   YZ=             -1.6211

 Normal termination of Gaussian 16 at Sun Oct 17 19:52:10 2021.
