 Gaussian 16, Revision C.01,
 Gaussian 16:  ES64L-G16RevC.01  3-Jul-2019

 -------------------------------------
 # opt=modredundant b3lyp/6-311+g(d,p)
 -------------------------------------

 ---------------
 pg2T_TT_-30.pdb
 ---------------
 Symbolic Z-matrix:
 Charge =  0 Multiplicity = 1

 SCF Done:  E(RB3LYP) =  -1654.46438211     A.U. after   18 cycles
 SCF Done:  E(RB3LYP) =  -1654.52913217     A.U. after   14 cycles
 SCF Done:  E(RB3LYP) =  -1654.60955701     A.U. after   15 cycles
 SCF Done:  E(RB3LYP) =  -1654.62413223     A.U. after   15 cycles
 SCF Done:  E(RB3LYP) =  -1654.63075797     A.U. after   15 cycles
 SCF Done:  E(RB3LYP) =  -1654.63217724     A.U. after   14 cycles
 SCF Done:  E(RB3LYP) =  -1654.63290408     A.U. after   14 cycles
 SCF Done:  E(RB3LYP) =  -1654.63295868     A.U. after   12 cycles
 SCF Done:  E(RB3LYP) =  -1654.63297568     A.U. after   12 cycles
 SCF Done:  E(RB3LYP) =  -1654.63302172     A.U. after   12 cycles
 SCF Done:  E(RB3LYP) =  -1654.63302310     A.U. after   11 cycles
 SCF Done:  E(RB3LYP) =  -1654.63302526     A.U. after   11 cycles
 SCF Done:  E(RB3LYP) =  -1654.63302539     A.U. after    9 cycles
 Optimization completed.
    -- Stationary point found.

                         Standard orientation:
 ---------------------------------------------------------------------
 Center     Atomic      Atomic             Coordinates (Angstroms)
 Number     Number       Type             X           Y           Z
 ---------------------------------------------------------------------
      1          6           0       -3.823483    0.403473    0.214529
      2          6           0       -2.479246    0.866177    0.312064
      3          6           0       -1.552595   -0.101549    0.000575
      4          6           0       -3.920037   -0.906292   -0.164439
      5         16           0       -2.351433   -1.595523   -0.432988
      6          1           0       -4.815176   -1.490627   -0.302808
      7          6           0       -0.107248   -0.002644   -0.000909
      8         16           0        0.666923    1.550771   -0.352991
      9          6           0        2.248653    0.846373   -0.154442
     10          6           0        2.148712   -0.507878    0.138837
     11          6           0        0.818257   -0.992343    0.231347
     12          1           0        0.544309   -2.007920    0.482087
     13         16           0        3.731699   -1.211313    0.337268
     14          6           0        4.484348    0.334589    0.018060
     15          6           0        3.584091    1.332664   -0.223864
     16          1           0        5.561277    0.404899    0.027955
     17          1           0        3.866208    2.353497   -0.440648
     18          1           0       -2.207424    1.865029    0.631552
     19          8           0       -4.931001    1.159946    0.480903
     20          1           0       -4.664931    2.057173    0.703467
 ---------------------------------------------------------------------

 The electronic state is 1-A.
 Alpha  occ. eigenvalues --  -88.88811 -88.88782 -88.88572 -19.16562 -10.24668
 Alpha  occ. eigenvalues --  -10.22933 -10.22779 -10.21594 -10.21538 -10.21378
 Alpha  occ. eigenvalues --  -10.19754 -10.19733 -10.19698 -10.19106  -7.97388
 Alpha  occ. eigenvalues --   -7.97356  -7.97166  -5.93711  -5.93668  -5.93475
 Alpha  occ. eigenvalues --   -5.93350  -5.93303  -5.93098  -5.92908  -5.92904
 Alpha  occ. eigenvalues --   -5.92730  -1.07569  -0.92132  -0.89494  -0.85332
 Alpha  occ. eigenvalues --   -0.77677  -0.76474  -0.74558  -0.71792  -0.70644
 Alpha  occ. eigenvalues --   -0.63292  -0.58877  -0.58009  -0.55724  -0.54758
 Alpha  occ. eigenvalues --   -0.53356  -0.50181  -0.48546  -0.44257  -0.43816
 Alpha  occ. eigenvalues --   -0.43292  -0.42026  -0.41880  -0.40153  -0.39814
 Alpha  occ. eigenvalues --   -0.38096  -0.37596  -0.36958  -0.35611  -0.34577
 Alpha  occ. eigenvalues --   -0.33980  -0.29574  -0.26921  -0.24470  -0.24128
 Alpha  occ. eigenvalues --   -0.20891
 Alpha virt. eigenvalues --   -0.06611  -0.01918  -0.01572  -0.00845  -0.00505
 Alpha virt. eigenvalues --    0.00567   0.00969   0.01556   0.01778   0.02195
 Alpha virt. eigenvalues --    0.03103   0.03410   0.03835   0.04025   0.04356

 Mulliken charges:
               1
     1  C   -0.713900
     2  C    0.528825
     3  C    0.192536
     4  C    0.376680
     5  S   -0.441061
     6  H    0.159507
     7  C    0.173294
     8  S   -0.544563
     9  C    0.365847
    10  C    0.175776
    11  C   -0.020767
    12  H    0.142075
    13  S   -0.407136
    14  C   -0.136121
    15  C   -0.257011
    16  H    0.168623
    17  H    0.136060
    18  H    0.122876
    19  O   -0.273499
    20  H    0.251960
 Sum of Mulliken charges =  -0.00000

 Dipole moment (field-independent basis, Debye):
    X=              1.1128    Y=              1.4552    Z=              0.4304  Tot=              1.8818
 Quadrupole moment (field-independent basis, Debye-Ang):
   XX=            -97.7816   YY=            -92.4511   ZZ=           -107.7566
   XY=             -0.3051   XZ=             -1.3136   YZ=              1.1572

 Normal termination of Gaussian 16 at Sun Oct 17 19:41:42 2021.
