 Gaussian 16, Revision C.01,
 Gaussian 16:  ES64L-G16RevC.01  3-Jul-2019

 -------------------------------------
 # opt=modredundant b3lyp/6-311+g(d,p)
 -------------------------------------

 ----------------
 pg2T_TT_-130.pdb
 ----------------
 Symbolic Z-matrix:
 Charge =  0 Multiplicity = 1

 SCF Done:  E(RB3LYP) =  -1654.46104490     A.U. after   17 cycles
 SCF Done:  E(RB3LYP) =  -1654.52609392     A.U. after   14 cycles
 SCF Done:  E(RB3LYP) =  -1654.60694101     A.U. after   15 cycles
 SCF Done:  E(RB3LYP) =  -1654.62189975     A.U. after   15 cycles
 SCF Done:  E(RB3LYP) =  -1654.62893067     A.U. after   14 cycles
 SCF Done:  E(RB3LYP) =  -1654.63040990     A.U. after   14 cycles
 SCF Done:  E(RB3LYP) =  -1654.63121704     A.U. after   13 cycles
 SCF Done:  E(RB3LYP) =  -1654.63117449     A.U. after   13 cycles
 SCF Done:  E(RB3LYP) =  -1654.63142582     A.U. after   12 cycles
 SCF Done:  E(RB3LYP) =  -1654.63144684     A.U. after   12 cycles
 SCF Done:  E(RB3LYP) =  -1654.63145526     A.U. after   12 cycles
 SCF Done:  E(RB3LYP) =  -1654.63145853     A.U. after   11 cycles
 SCF Done:  E(RB3LYP) =  -1654.63145877     A.U. after    9 cycles
 Optimization completed.
    -- Stationary point found.

                         Standard orientation:
 ---------------------------------------------------------------------
 Center     Atomic      Atomic             Coordinates (Angstroms)
 Number     Number       Type             X           Y           Z
 ---------------------------------------------------------------------
      1          6           0        3.761590    0.716299    0.243139
      2          6           0        2.376003    0.999131    0.425233
      3          6           0        1.556908    0.012095   -0.067304
      4          6           0        3.992648   -0.485572   -0.365751
      5         16           0        2.505528   -1.288398   -0.749904
      6          1           0        4.944249   -0.931900   -0.605297
      7          6           0        0.103848   -0.026503   -0.045822
      8         16           0       -0.753116   -1.457565    0.547336
      9          6           0       -2.291380   -0.676554    0.305897
     10          6           0       -2.117092    0.613536   -0.179359
     11          6           0       -0.761701    0.984747   -0.383419
     12          1           0       -0.426940    1.931182   -0.784691
     13         16           0       -3.658388    1.391406   -0.424731
     14          6           0       -4.495326   -0.039342    0.133300
     15          6           0       -3.652514   -1.054155    0.484735
     16          1           0       -5.574101   -0.035444    0.166702
     17          1           0       -3.990700   -2.013380    0.851083
     18          1           0        1.996166    1.880964    0.926508
     19          8           0        4.785251    1.531181    0.642216
     20          1           0        4.427022    2.329945    1.040847
 ---------------------------------------------------------------------

 The electronic state is 1-A.
 Alpha  occ. eigenvalues --  -88.88758 -88.88720 -88.88529 -19.16567 -10.24630
 Alpha  occ. eigenvalues --  -10.22775 -10.22641 -10.21522 -10.21466 -10.21353
 Alpha  occ. eigenvalues --  -10.19745 -10.19735 -10.19645 -10.19159  -7.97332
 Alpha  occ. eigenvalues --   -7.97290  -7.97120  -5.93644  -5.93610  -5.93423
 Alpha  occ. eigenvalues --   -5.93279  -5.93247  -5.93048  -5.92880  -5.92819
 Alpha  occ. eigenvalues --   -5.92695  -1.07556  -0.92052  -0.89440  -0.85269
 Alpha  occ. eigenvalues --   -0.77663  -0.76274  -0.74489  -0.71765  -0.70619
 Alpha  occ. eigenvalues --   -0.63188  -0.58917  -0.57803  -0.55202  -0.54661
 Alpha  occ. eigenvalues --   -0.53964  -0.50179  -0.48551  -0.44082  -0.43781
 Alpha  occ. eigenvalues --   -0.43248  -0.42012  -0.41635  -0.40344  -0.39701
 Alpha  occ. eigenvalues --   -0.38029  -0.37594  -0.36541  -0.35556  -0.34555
 Alpha  occ. eigenvalues --   -0.34002  -0.29457  -0.26556  -0.24372  -0.23945
 Alpha  occ. eigenvalues --   -0.21391
 Alpha virt. eigenvalues --   -0.06025  -0.02544  -0.01660  -0.00782  -0.00389
 Alpha virt. eigenvalues --    0.00322   0.00827   0.01585   0.01763   0.02467
 Alpha virt. eigenvalues --    0.02992   0.03234   0.04054   0.04216   0.04427

 Mulliken charges:
               1
     1  C   -0.686997
     2  C    0.291523
     3  C    0.155754
     4  C    0.323560
     5  S   -0.289858
     6  H    0.159854
     7  C   -0.162327
     8  S   -0.563231
     9  C    0.180217
    10  C   -0.445849
    11  C    0.808908
    12  H    0.132741
    13  S   -0.386797
    14  C   -0.196297
    15  C    0.280140
    16  H    0.168605
    17  H    0.136391
    18  H    0.115753
    19  O   -0.274501
    20  H    0.252412
 Sum of Mulliken charges =  -0.00000

 Dipole moment (field-independent basis, Debye):
    X=             -1.2172    Y=              1.2503    Z=              0.6969  Tot=              1.8790
 Quadrupole moment (field-independent basis, Debye-Ang):
   XX=            -98.2938   YY=            -94.2164   ZZ=           -105.7559
   XY=              5.1654   XZ=             -0.2955   YZ=              1.6917

 Normal termination of Gaussian 16 at Sun Oct 17 19:32:47 2021.
