 Gaussian 16, Revision C.01,
 Gaussian 16:  ES64L-G16RevC.01  3-Jul-2019

 -------------------------------------
 # opt=modredundant b3lyp/6-311+g(d,p)
 -------------------------------------

 ----------------
 pg2T_TT_-170.pdb
 ----------------
 Symbolic Z-matrix:
 Charge =  0 Multiplicity = 1

 SCF Done:  E(RB3LYP) =  -1654.46188649     A.U. after   17 cycles
 SCF Done:  E(RB3LYP) =  -1654.52669733     A.U. after   15 cycles
 SCF Done:  E(RB3LYP) =  -1654.60723208     A.U. after   15 cycles
 SCF Done:  E(RB3LYP) =  -1654.62188778     A.U. after   15 cycles
 SCF Done:  E(RB3LYP) =  -1654.62857885     A.U. after   14 cycles
 SCF Done:  E(RB3LYP) =  -1654.62999671     A.U. after   14 cycles
 SCF Done:  E(RB3LYP) =  -1654.63075406     A.U. after   12 cycles
 SCF Done:  E(RB3LYP) =  -1654.63076146     A.U. after   13 cycles
 SCF Done:  E(RB3LYP) =  -1654.63096556     A.U. after   12 cycles
 SCF Done:  E(RB3LYP) =  -1654.63098692     A.U. after   12 cycles
 SCF Done:  E(RB3LYP) =  -1654.63098843     A.U. after   11 cycles
 SCF Done:  E(RB3LYP) =  -1654.63099071     A.U. after   10 cycles
 SCF Done:  E(RB3LYP) =  -1654.63099087     A.U. after    9 cycles
 Optimization completed.
    -- Stationary point found.

                         Standard orientation:
 ---------------------------------------------------------------------
 Center     Atomic      Atomic             Coordinates (Angstroms)
 Number     Number       Type             X           Y           Z
 ---------------------------------------------------------------------
      1          6           0        3.761083    0.784234    0.043519
      2          6           0        2.377315    1.106995    0.123952
      3          6           0        1.556793    0.004740    0.024527
      4          6           0        3.998763   -0.552661   -0.116887
      5         16           0        2.514266   -1.443871   -0.186027
      6          1           0        4.950130   -1.053010   -0.194385
      7          6           0        0.107553   -0.022760    0.030278
      8         16           0       -0.778623   -1.551005    0.155619
      9          6           0       -2.304836   -0.715952    0.073691
     10          6           0       -2.108529    0.655047   -0.032932
     11          6           0       -0.748255    1.051745   -0.064017
     12          1           0       -0.408445    2.072218   -0.170854
     13         16           0       -3.638253    1.488856   -0.114899
     14          6           0       -4.498632   -0.030226   -0.002150
     15          6           0       -3.670875   -1.112415    0.092150
     16          1           0       -5.577789   -0.022967   -0.012520
     17          1           0       -4.024108   -2.131172    0.169651
     18          1           0        2.006806    2.113672    0.272315
     19          8           0        4.781439    1.691197    0.123501
     20          1           0        4.421361    2.575507    0.239920
 ---------------------------------------------------------------------

 The electronic state is 1-A.
 Alpha  occ. eigenvalues --  -88.88806 -88.88794 -88.88608 -19.16598 -10.24693
 Alpha  occ. eigenvalues --  -10.23042 -10.22880 -10.21620 -10.21558 -10.21382
 Alpha  occ. eigenvalues --  -10.19777 -10.19754 -10.19705 -10.19086  -7.97380
 Alpha  occ. eigenvalues --   -7.97379  -7.97211  -5.93703  -5.93693  -5.93519
 Alpha  occ. eigenvalues --   -5.93341  -5.93328  -5.93142  -5.92927  -5.92895
 Alpha  occ. eigenvalues --   -5.92773  -1.07603  -0.92166  -0.89526  -0.85343
 Alpha  occ. eigenvalues --   -0.77819  -0.76384  -0.74640  -0.71786  -0.70645
 Alpha  occ. eigenvalues --   -0.63346  -0.59114  -0.57909  -0.55271  -0.54963
 Alpha  occ. eigenvalues --   -0.53726  -0.50327  -0.48595  -0.44228  -0.43791
 Alpha  occ. eigenvalues --   -0.43297  -0.42025  -0.41477  -0.40508  -0.39521
 Alpha  occ. eigenvalues --   -0.38198  -0.37665  -0.37351  -0.35913  -0.34336
 Alpha  occ. eigenvalues --   -0.33895  -0.29732  -0.27031  -0.24847  -0.23825
 Alpha  occ. eigenvalues --   -0.20604
 Alpha virt. eigenvalues --   -0.06950  -0.02489  -0.01526  -0.00970  -0.00426
 Alpha virt. eigenvalues --    0.00477   0.01461   0.01735   0.01893   0.02660
 Alpha virt. eigenvalues --    0.02838   0.03314   0.04015   0.04223   0.04815

 Mulliken charges:
               1
     1  C   -0.666170
     2  C    0.795902
     3  C    0.061314
     4  C    0.386092
     5  S   -0.506561
     6  H    0.157463
     7  C   -0.120044
     8  S   -0.575320
     9  C    0.314039
    10  C    0.313682
    11  C    0.057708
    12  H    0.125045
    13  S   -0.409725
    14  C   -0.146200
    15  C   -0.183480
    16  H    0.168894
    17  H    0.136044
    18  H    0.110709
    19  O   -0.271547
    20  H    0.252154
 Sum of Mulliken charges =  -0.00000

 Dipole moment (field-independent basis, Debye):
    X=             -1.2602    Y=              1.3599    Z=              0.1574  Tot=              1.8608
 Quadrupole moment (field-independent basis, Debye-Ang):
   XX=            -98.0571   YY=            -91.3864   ZZ=           -108.7399
   XY=              5.6246   XZ=              0.1874   YZ=              0.6965

 Normal termination of Gaussian 16 at Sun Oct 17 19:44:01 2021.
