 Gaussian 16, Revision C.01,
 Gaussian 16:  ES64L-G16RevC.01  3-Jul-2019

 -------------------------------------
 # opt=modredundant b3lyp/6-311+g(d,p)
 -------------------------------------

 ---------------
 pg2T_TT_150.pdb
 ---------------
 Symbolic Z-matrix:
 Charge =  0 Multiplicity = 1

 SCF Done:  E(RB3LYP) =  -1654.46273648     A.U. after   17 cycles
 SCF Done:  E(RB3LYP) =  -1654.52759242     A.U. after   14 cycles
 SCF Done:  E(RB3LYP) =  -1654.60820443     A.U. after   15 cycles
 SCF Done:  E(RB3LYP) =  -1654.62289962     A.U. after   15 cycles
 SCF Done:  E(RB3LYP) =  -1654.62953199     A.U. after   14 cycles
 SCF Done:  E(RB3LYP) =  -1654.63092187     A.U. after   14 cycles
 SCF Done:  E(RB3LYP) =  -1654.63161854     A.U. after   13 cycles
 SCF Done:  E(RB3LYP) =  -1654.63164265     A.U. after   13 cycles
 SCF Done:  E(RB3LYP) =  -1654.63177438     A.U. after   12 cycles
 SCF Done:  E(RB3LYP) =  -1654.63180864     A.U. after   11 cycles
 SCF Done:  E(RB3LYP) =  -1654.63181341     A.U. after   11 cycles
 SCF Done:  E(RB3LYP) =  -1654.63181583     A.U. after   10 cycles
 SCF Done:  E(RB3LYP) =  -1654.63181600     A.U. after   10 cycles
 Optimization completed.
    -- Stationary point found.

                         Standard orientation:
 ---------------------------------------------------------------------
 Center     Atomic      Atomic             Coordinates (Angstroms)
 Number     Number       Type             X           Y           Z
 ---------------------------------------------------------------------
      1          6           0        3.762531    0.757402   -0.140624
      2          6           0        2.379844    1.062994   -0.295825
      3          6           0        1.556607    0.001674    0.002534
      4          6           0        3.991639   -0.527976    0.265026
      5         16           0        2.502712   -1.386730    0.488088
      6          1           0        4.941088   -1.007730    0.438733
      7          6           0        0.107036   -0.023522   -0.012670
      8         16           0       -0.772080   -1.515466   -0.380442
      9          6           0       -2.300660   -0.699809   -0.198808
     10          6           0       -2.108371    0.641961    0.105939
     11          6           0       -0.748084    1.027962    0.220894
     12          1           0       -0.404375    2.015599    0.494772
     13         16           0       -3.640113    1.455142    0.289855
     14          6           0       -4.496652   -0.031393   -0.051286
     15          6           0       -3.666501   -1.089107   -0.289151
     16          1           0       -5.575888   -0.025036   -0.054572
     17          1           0       -4.017367   -2.086117   -0.516177
     18          1           0        2.008472    2.017015   -0.649386
     19          8           0        4.787868    1.629941   -0.380957
     20          1           0        4.432502    2.478480   -0.661914
 ---------------------------------------------------------------------

 The electronic state is 1-A.
 Alpha  occ. eigenvalues --  -88.88785 -88.88769 -88.88577 -19.16590 -10.24673
 Alpha  occ. eigenvalues --  -10.22913 -10.22760 -10.21580 -10.21517 -10.21368
 Alpha  occ. eigenvalues --  -10.19758 -10.19740 -10.19677 -10.19108  -7.97359
 Alpha  occ. eigenvalues --   -7.97346  -7.97173  -5.93672  -5.93667  -5.93478
 Alpha  occ. eigenvalues --   -5.93306  -5.93305  -5.93102  -5.92906  -5.92869
 Alpha  occ. eigenvalues --   -5.92740  -1.07590  -0.92119  -0.89488  -0.85313
 Alpha  occ. eigenvalues --   -0.77752  -0.76342  -0.74574  -0.71781  -0.70627
 Alpha  occ. eigenvalues --   -0.63283  -0.59029  -0.57853  -0.55219  -0.54844
 Alpha  occ. eigenvalues --   -0.53826  -0.50257  -0.48574  -0.44157  -0.43808
 Alpha  occ. eigenvalues --   -0.43248  -0.42019  -0.41542  -0.40447  -0.39635
 Alpha  occ. eigenvalues --   -0.38123  -0.37657  -0.36891  -0.35791  -0.34478
 Alpha  occ. eigenvalues --   -0.33941  -0.29589  -0.26828  -0.24642  -0.23930
 Alpha  occ. eigenvalues --   -0.20921
 Alpha virt. eigenvalues --   -0.06558  -0.02346  -0.01635  -0.00865  -0.00398
 Alpha virt. eigenvalues --    0.00440   0.01179   0.01617   0.01777   0.02641
 Alpha virt. eigenvalues --    0.02891   0.03279   0.04061   0.04210   0.04556

 Mulliken charges:
               1
     1  C   -0.681907
     2  C    0.452827
     3  C    0.207763
     4  C    0.367650
     5  S   -0.403741
     6  H    0.158718
     7  C    0.206124
     8  S   -0.506017
     9  C    0.356139
    10  C    0.180141
    11  C   -0.059491
    12  H    0.130661
    13  S   -0.401196
    14  C   -0.135010
    15  C   -0.274427
    16  H    0.168720
    17  H    0.136580
    18  H    0.116714
    19  O   -0.272031
    20  H    0.251785
 Sum of Mulliken charges =  -0.00000

 Dipole moment (field-independent basis, Debye):
    X=             -1.2357    Y=              1.3109    Z=             -0.4463  Tot=              1.8559
 Quadrupole moment (field-independent basis, Debye-Ang):
   XX=            -98.0858   YY=            -92.5537   ZZ=           -107.5341
   XY=              5.5015   XZ=             -0.0976   YZ=             -1.4154

 Normal termination of Gaussian 16 at Sun Oct 17 19:54:38 2021.
