 Gaussian 16, Revision C.01,
 Gaussian 16:  ES64L-G16RevC.01  3-Jul-2019

 -------------------------------------
 # opt=modredundant b3lyp/6-311+g(d,p)
 -------------------------------------

 --------------
 pg2T_TT_80.pdb
 --------------
 Symbolic Z-matrix:
 Charge =  0 Multiplicity = 1

 SCF Done:  E(RB3LYP) =  -1654.45940725     A.U. after   16 cycles
 SCF Done:  E(RB3LYP) =  -1654.52448885     A.U. after   14 cycles
 SCF Done:  E(RB3LYP) =  -1654.60535944     A.U. after   16 cycles
 SCF Done:  E(RB3LYP) =  -1654.62015693     A.U. after   15 cycles
 SCF Done:  E(RB3LYP) =  -1654.62701636     A.U. after   14 cycles
 SCF Done:  E(RB3LYP) =  -1654.62844029     A.U. after   14 cycles
 SCF Done:  E(RB3LYP) =  -1654.62918526     A.U. after   12 cycles
 SCF Done:  E(RB3LYP) =  -1654.62911584     A.U. after   13 cycles
 SCF Done:  E(RB3LYP) =  -1654.62951502     A.U. after   12 cycles
 SCF Done:  E(RB3LYP) =  -1654.62951797     A.U. after   12 cycles
 SCF Done:  E(RB3LYP) =  -1654.62953172     A.U. after   12 cycles
 SCF Done:  E(RB3LYP) =  -1654.62953608     A.U. after   11 cycles
 SCF Done:  E(RB3LYP) =  -1654.62953621     A.U. after    9 cycles
 Optimization completed.
    -- Stationary point found.

                         Standard orientation:
 ---------------------------------------------------------------------
 Center     Atomic      Atomic             Coordinates (Angstroms)
 Number     Number       Type             X           Y           Z
 ---------------------------------------------------------------------
      1          6           0        3.820550    0.187460    0.546990
      2          6           0        2.466945    0.502266    0.869610
      3          6           0        1.563703   -0.054504    0.000446
      4          6           0        3.939973   -0.609702   -0.557169
      5         16           0        2.387972   -0.985591   -1.227128
      6          1           0        4.847089   -0.987109   -1.001390
      7          6           0        0.103055    0.025545    0.033281
      8         16           0       -0.717433    1.471662   -0.576889
      9          6           0       -2.275443    0.768881   -0.246053
     10          6           0       -2.135294   -0.507437    0.284554
     11          6           0       -0.788126   -0.933646    0.437838
     12          1           0       -0.476065   -1.891296    0.831236
     13         16           0       -3.695544   -1.209998    0.620190
     14          6           0       -4.494954    0.232110    0.038468
     15          6           0       -3.627257    1.196364   -0.386021
     16          1           0       -5.573532    0.272285    0.046673
     17          1           0       -3.941030    2.153560   -0.778457
     18          1           0        2.168483    1.109921    1.715396
     19          8           0        4.912977    0.610616    1.254076
     20          1           0        4.632386    1.196501    1.963503
 ---------------------------------------------------------------------

 The electronic state is 1-A.
 Alpha  occ. eigenvalues --  -88.88719 -88.88624 -88.88471 -19.16499 -10.24548
 Alpha  occ. eigenvalues --  -10.22604 -10.22473 -10.21468 -10.21391 -10.21347
 Alpha  occ. eigenvalues --  -10.19756 -10.19706 -10.19616 -10.19183  -7.97293
 Alpha  occ. eigenvalues --   -7.97191  -7.97056  -5.93605  -5.93507  -5.93355
 Alpha  occ. eigenvalues --   -5.93240  -5.93143  -5.92979  -5.92843  -5.92727
 Alpha  occ. eigenvalues --   -5.92639  -1.07478  -0.91965  -0.89362  -0.85208
 Alpha  occ. eigenvalues --   -0.77514  -0.76185  -0.74366  -0.71737  -0.70611
 Alpha  occ. eigenvalues --   -0.63034  -0.58671  -0.57833  -0.55405  -0.54429
 Alpha  occ. eigenvalues --   -0.53912  -0.50073  -0.48457  -0.44018  -0.43679
 Alpha  occ. eigenvalues --   -0.43374  -0.42057  -0.41733  -0.40178  -0.39745
 Alpha  occ. eigenvalues --   -0.37957  -0.37414  -0.36256  -0.35265  -0.34501
 Alpha  occ. eigenvalues --   -0.33998  -0.29383  -0.26058  -0.24292  -0.23187
 Alpha  occ. eigenvalues --   -0.22507
 Alpha virt. eigenvalues --   -0.05068  -0.03589  -0.01572  -0.00674  -0.00381
 Alpha virt. eigenvalues --   -0.00034   0.00803   0.01562   0.01739   0.02234
 Alpha virt. eigenvalues --    0.03041   0.03295   0.03863   0.04065   0.04352

 Mulliken charges:
               1
     1  C   -0.523125
     2  C   -0.026220
     3  C    0.138671
     4  C    0.253615
     5  S   -0.125144
     6  H    0.160422
     7  C   -0.040190
     8  S   -0.471827
     9  C    0.189576
    10  C   -0.524212
    11  C    0.649426
    12  H    0.139227
    13  S   -0.374557
    14  C   -0.210596
    15  C    0.361810
    16  H    0.168359
    17  H    0.136487
    18  H    0.121965
    19  O   -0.278216
    20  H    0.254527
 Sum of Mulliken charges =  -0.00000

 Dipole moment (field-independent basis, Debye):
    X=             -1.1038    Y=              0.9224    Z=              1.1680  Tot=              1.8530
 Quadrupole moment (field-independent basis, Debye-Ang):
   XX=            -98.0012   YY=            -99.0006   ZZ=           -100.9306
   XY=             -0.7177   XZ=              3.6340   YZ=              2.3450

 Normal termination of Gaussian 16 at Sun Oct 17 19:50:10 2021.
