 Gaussian 16, Revision C.01,
 Gaussian 16:  ES64L-G16RevC.01  3-Jul-2019

 -------------------------------------
 # opt=modredundant b3lyp/6-311+g(d,p)
 -------------------------------------

 ---------------
 pg2T_TT_160.pdb
 ---------------
 Symbolic Z-matrix:
 Charge =  0 Multiplicity = 1

 SCF Done:  E(RB3LYP) =  -1654.46264356     A.U. after   16 cycles
 SCF Done:  E(RB3LYP) =  -1654.52744147     A.U. after   15 cycles
 SCF Done:  E(RB3LYP) =  -1654.60797977     A.U. after   15 cycles
 SCF Done:  E(RB3LYP) =  -1654.62260020     A.U. after   15 cycles
 SCF Done:  E(RB3LYP) =  -1654.62919631     A.U. after   14 cycles
 SCF Done:  E(RB3LYP) =  -1654.63057952     A.U. after   14 cycles
 SCF Done:  E(RB3LYP) =  -1654.63127533     A.U. after   13 cycles
 SCF Done:  E(RB3LYP) =  -1654.63130588     A.U. after   13 cycles
 SCF Done:  E(RB3LYP) =  -1654.63143554     A.U. after   12 cycles
 SCF Done:  E(RB3LYP) =  -1654.63147103     A.U. after   12 cycles
 SCF Done:  E(RB3LYP) =  -1654.63147395     A.U. after   11 cycles
 SCF Done:  E(RB3LYP) =  -1654.63147620     A.U. after   10 cycles
 SCF Done:  E(RB3LYP) =  -1654.63147637     A.U. after   10 cycles
 Optimization completed.
    -- Stationary point found.

                         Standard orientation:
 ---------------------------------------------------------------------
 Center     Atomic      Atomic             Coordinates (Angstroms)
 Number     Number       Type             X           Y           Z
 ---------------------------------------------------------------------
      1          6           0        3.762019    0.772388   -0.090861
      2          6           0        2.379592    1.087403   -0.220663
      3          6           0        1.556735    0.001589   -0.021203
      4          6           0        3.993934   -0.542609    0.203156
      5         16           0        2.506486   -1.420303    0.346825
      6          1           0        4.943658   -1.034232    0.337111
      7          6           0        0.107656   -0.022848   -0.032619
      8         16           0       -0.777062   -1.536491   -0.280261
      9          6           0       -2.303380   -0.708931   -0.139709
     10          6           0       -2.107279    0.650529    0.068433
     11          6           0       -0.746434    1.042549    0.138727
     12          1           0       -0.403140    2.048315    0.336191
     13         16           0       -3.636903    1.476174    0.210559
     14          6           0       -4.497354   -0.029851   -0.016921
     15          6           0       -3.669782   -1.102396   -0.189138
     16          1           0       -5.576546   -0.022806   -0.009021
     17          1           0       -4.023143   -2.112496   -0.342424
     18          1           0        2.010141    2.070643   -0.484669
     19          8           0        4.785662    1.665029   -0.250680
     20          1           0        4.429145    2.533313   -0.460924
 ---------------------------------------------------------------------

 The electronic state is 1-A.
 Alpha  occ. eigenvalues --  -88.88797 -88.88784 -88.88594 -19.16596 -10.24686
 Alpha  occ. eigenvalues --  -10.22982 -10.22822 -10.21604 -10.21540 -10.21376
 Alpha  occ. eigenvalues --  -10.19768 -10.19746 -10.19693 -10.19092  -7.97371
 Alpha  occ. eigenvalues --   -7.97365  -7.97193  -5.93687  -5.93684  -5.93500
 Alpha  occ. eigenvalues --   -5.93326  -5.93319  -5.93124  -5.92918  -5.92884
 Alpha  occ. eigenvalues --   -5.92758  -1.07599  -0.92146  -0.89509  -0.85330
 Alpha  occ. eigenvalues --   -0.77790  -0.76367  -0.74610  -0.71784  -0.70635
 Alpha  occ. eigenvalues --   -0.63319  -0.59076  -0.57883  -0.55243  -0.54913
 Alpha  occ. eigenvalues --   -0.53769  -0.50295  -0.48585  -0.44196  -0.43803
 Alpha  occ. eigenvalues --   -0.43268  -0.42023  -0.41502  -0.40484  -0.39581
 Alpha  occ. eigenvalues --   -0.38165  -0.37675  -0.37116  -0.35867  -0.34408
 Alpha  occ. eigenvalues --   -0.33912  -0.29665  -0.26942  -0.24758  -0.23881
 Alpha  occ. eigenvalues --   -0.20739
 Alpha virt. eigenvalues --   -0.06781  -0.02404  -0.01582  -0.00919  -0.00409
 Alpha virt. eigenvalues --    0.00464   0.01373   0.01667   0.01801   0.02692
 Alpha virt. eigenvalues --    0.02839   0.03280   0.04055   0.04219   0.04681

 Mulliken charges:
               1
     1  C   -0.666225
     2  C    0.611128
     3  C    0.118749
     4  C    0.385919
     5  S   -0.452623
     6  H    0.158026
     7  C    0.076150
     8  S   -0.536843
     9  C    0.340598
    10  C    0.252940
    11  C   -0.020008
    12  H    0.127959
    13  S   -0.405015
    14  C   -0.138659
    15  C   -0.251690
    16  H    0.168768
    17  H    0.136371
    18  H    0.114093
    19  O   -0.271506
    20  H    0.251868
 Sum of Mulliken charges =  -0.00000

 Dipole moment (field-independent basis, Debye):
    X=             -1.2480    Y=              1.3373    Z=             -0.3093  Tot=              1.8551
 Quadrupole moment (field-independent basis, Debye-Ang):
   XX=            -98.0422   YY=            -91.8995   ZZ=           -108.2200
   XY=              5.5951   XZ=             -0.2225   YZ=             -1.1603

 Normal termination of Gaussian 16 at Sun Oct 17 19:57:49 2021.
