 Gaussian 16, Revision C.01,
 Gaussian 16:  ES64L-G16RevC.01  3-Jul-2019

 -------------------------------------
 # opt=modredundant b3lyp/6-311+g(d,p)
 -------------------------------------

 ---------------
 pg2T_TT_110.pdb
 ---------------
 Symbolic Z-matrix:
 Charge =  0 Multiplicity = 1

 SCF Done:  E(RB3LYP) =  -1654.46011955     A.U. after   17 cycles
 SCF Done:  E(RB3LYP) =  -1654.52513379     A.U. after   14 cycles
 SCF Done:  E(RB3LYP) =  -1654.60590851     A.U. after   14 cycles
 SCF Done:  E(RB3LYP) =  -1654.62078902     A.U. after   15 cycles
 SCF Done:  E(RB3LYP) =  -1654.62761275     A.U. after   14 cycles
 SCF Done:  E(RB3LYP) =  -1654.62902843     A.U. after   14 cycles
 SCF Done:  E(RB3LYP) =  -1654.62975721     A.U. after   14 cycles
 SCF Done:  E(RB3LYP) =  -1654.62966900     A.U. after   13 cycles
 SCF Done:  E(RB3LYP) =  -1654.62997132     A.U. after   13 cycles
 SCF Done:  E(RB3LYP) =  -1654.62997480     A.U. after   13 cycles
 SCF Done:  E(RB3LYP) =  -1654.62999498     A.U. after   12 cycles
 SCF Done:  E(RB3LYP) =  -1654.62999723     A.U. after   11 cycles
 SCF Done:  E(RB3LYP) =  -1654.62999729     A.U. after   10 cycles
 Optimization completed.
    -- Stationary point found.

                         Standard orientation:
 ---------------------------------------------------------------------
 Center     Atomic      Atomic             Coordinates (Angstroms)
 Number     Number       Type             X           Y           Z
 ---------------------------------------------------------------------
      1          6           0        3.770146    0.630413   -0.351889
      2          6           0        2.386275    0.874408   -0.598066
      3          6           0        1.559201    0.028807    0.097641
      4          6           0        3.989413   -0.406503    0.511282
      5         16           0        2.495734   -1.097873    1.051284
      6          1           0        4.937387   -0.788742    0.854355
      7          6           0        0.100266   -0.021686    0.063009
      8         16           0       -0.733054   -1.389245   -0.692929
      9          6           0       -2.282372   -0.652041   -0.395320
     10          6           0       -2.129334    0.578227    0.231412
     11          6           0       -0.779589    0.938365    0.492221
     12          1           0       -0.457633    1.845707    0.984249
     13         16           0       -3.681721    1.312902    0.533254
     14          6           0       -4.495133   -0.053945   -0.193278
     15          6           0       -3.637419   -1.017875   -0.638502
     16          1           0       -5.573236   -0.054787   -0.244902
     17          1           0       -3.960374   -1.933643   -1.113633
     18          1           0        2.011884    1.633522   -1.273972
     19          8           0        4.801015    1.334730   -0.911640
     20          1           0        4.449792    2.018527   -1.489777
 ---------------------------------------------------------------------

 The electronic state is 1-A.
 Alpha  occ. eigenvalues --  -88.88739 -88.88643 -88.88466 -19.16532 -10.24573
 Alpha  occ. eigenvalues --  -10.22647 -10.22520 -10.21480 -10.21412 -10.21352
 Alpha  occ. eigenvalues --  -10.19758 -10.19724 -10.19625 -10.19197  -7.97313
 Alpha  occ. eigenvalues --   -7.97210  -7.97055  -5.93625  -5.93528  -5.93354
 Alpha  occ. eigenvalues --   -5.93260  -5.93165  -5.92979  -5.92862  -5.92743
 Alpha  occ. eigenvalues --   -5.92635  -1.07513  -0.91988  -0.89381  -0.85225
 Alpha  occ. eigenvalues --   -0.77571  -0.76197  -0.74393  -0.71747  -0.70616
 Alpha  occ. eigenvalues --   -0.63080  -0.58791  -0.57781  -0.55235  -0.54413
 Alpha  occ. eigenvalues --   -0.54129  -0.50114  -0.48512  -0.44018  -0.43705
 Alpha  occ. eigenvalues --   -0.43302  -0.42026  -0.41714  -0.40234  -0.39739
 Alpha  occ. eigenvalues --   -0.37956  -0.37500  -0.36293  -0.35339  -0.34555
 Alpha  occ. eigenvalues --   -0.34016  -0.29377  -0.26236  -0.24149  -0.23702
 Alpha  occ. eigenvalues --   -0.22040
 Alpha virt. eigenvalues --   -0.05385  -0.03221  -0.01563  -0.00711  -0.00368
 Alpha virt. eigenvalues --    0.00101   0.00746   0.01573   0.01757   0.02328
 Alpha virt. eigenvalues --    0.02989   0.03202   0.04089   0.04263   0.04319

 Mulliken charges:
               1
     1  C   -0.634799
     2  C    0.209969
     3  C    0.118892
     4  C    0.318112
     5  S   -0.214679
     6  H    0.160174
     7  C   -0.186124
     8  S   -0.518239
     9  C    0.130196
    10  C   -0.380319
    11  C    0.677730
    12  H    0.134964
    13  S   -0.378968
    14  C   -0.209438
    15  C    0.373256
    16  H    0.168520
    17  H    0.136425
    18  H    0.118383
    19  O   -0.277681
    20  H    0.253625
 Sum of Mulliken charges =  -0.00000

 Dipole moment (field-independent basis, Debye):
    X=             -1.2020    Y=              1.1005    Z=             -1.0049  Tot=              1.9146
 Quadrupole moment (field-independent basis, Debye-Ang):
   XX=            -98.4272   YY=            -96.9051   ZZ=           -102.9617
   XY=              4.6822   XZ=              0.0999   YZ=             -2.0775

 Normal termination of Gaussian 16 at Sun Oct 17 19:54:38 2021.
