 Gaussian 16, Revision C.01,
 Gaussian 16:  ES64L-G16RevC.01  3-Jul-2019

 -------------------------------------
 # opt=modredundant b3lyp/6-311+g(d,p)
 -------------------------------------

 ---------------
 pg2T_TT_170.pdb
 ---------------
 Symbolic Z-matrix:
 Charge =  0 Multiplicity = 1

 SCF Done:  E(RB3LYP) =  -1654.46236716     A.U. after   17 cycles
 SCF Done:  E(RB3LYP) =  -1654.52712036     A.U. after   15 cycles
 SCF Done:  E(RB3LYP) =  -1654.60759230     A.U. after   15 cycles
 SCF Done:  E(RB3LYP) =  -1654.62214426     A.U. after   15 cycles
 SCF Done:  E(RB3LYP) =  -1654.62871576     A.U. after   14 cycles
 SCF Done:  E(RB3LYP) =  -1654.63003039     A.U. after   14 cycles
 SCF Done:  E(RB3LYP) =  -1654.63076368     A.U. after   13 cycles
 SCF Done:  E(RB3LYP) =  -1654.63078269     A.U. after   13 cycles
 SCF Done:  E(RB3LYP) =  -1654.63095858     A.U. after   12 cycles
 SCF Done:  E(RB3LYP) =  -1654.63098494     A.U. after   11 cycles
 SCF Done:  E(RB3LYP) =  -1654.63098710     A.U. after   11 cycles
 SCF Done:  E(RB3LYP) =  -1654.63098981     A.U. after   10 cycles
 SCF Done:  E(RB3LYP) =  -1654.63098994     A.U. after    9 cycles
 SCF Done:  E(RB3LYP) =  -1654.63098998     A.U. after    8 cycles
 Optimization completed.
    -- Stationary point found.

                         Standard orientation:
 ---------------------------------------------------------------------
 Center     Atomic      Atomic             Coordinates (Angstroms)
 Number     Number       Type             X           Y           Z
 ---------------------------------------------------------------------
      1          6           0        3.761108    0.784211   -0.043684
      2          6           0        2.377339    1.107063   -0.123932
      3          6           0        1.556799    0.004776   -0.024714
      4          6           0        3.998756   -0.552676    0.116878
      5         16           0        2.514262   -1.443873    0.185910
      6          1           0        4.950129   -1.053024    0.194335
      7          6           0        0.107554   -0.022736   -0.030422
      8         16           0       -0.778611   -1.551008   -0.155510
      9          6           0       -2.304824   -0.715959   -0.073611
     10          6           0       -2.108534    0.655056    0.032847
     11          6           0       -0.748264    1.051777    0.063676
     12          1           0       -0.408466    2.072274    0.170310
     13         16           0       -3.638268    1.488841    0.114950
     14          6           0       -4.498625   -0.030241    0.002176
     15          6           0       -3.670859   -1.112439   -0.092013
     16          1           0       -5.577781   -0.023000    0.012495
     17          1           0       -4.024080   -2.131204   -0.169440
     18          1           0        2.006849    2.113858   -0.271896
     19          8           0        4.781395    1.691198   -0.122823
     20          1           0        4.421358    2.575159   -0.242006
 ---------------------------------------------------------------------

 The electronic state is 1-A.
 Alpha  occ. eigenvalues --  -88.88806 -88.88794 -88.88608 -19.16598 -10.24693
 Alpha  occ. eigenvalues --  -10.23042 -10.22880 -10.21620 -10.21557 -10.21382
 Alpha  occ. eigenvalues --  -10.19777 -10.19754 -10.19705 -10.19087  -7.97380
 Alpha  occ. eigenvalues --   -7.97379  -7.97211  -5.93703  -5.93693  -5.93519
 Alpha  occ. eigenvalues --   -5.93341  -5.93328  -5.93142  -5.92927  -5.92895
 Alpha  occ. eigenvalues --   -5.92773  -1.07607  -0.92166  -0.89525  -0.85343
 Alpha  occ. eigenvalues --   -0.77819  -0.76383  -0.74639  -0.71786  -0.70645
 Alpha  occ. eigenvalues --   -0.63347  -0.59114  -0.57909  -0.55271  -0.54963
 Alpha  occ. eigenvalues --   -0.53726  -0.50327  -0.48595  -0.44229  -0.43791
 Alpha  occ. eigenvalues --   -0.43298  -0.42026  -0.41477  -0.40508  -0.39521
 Alpha  occ. eigenvalues --   -0.38198  -0.37660  -0.37356  -0.35913  -0.34337
 Alpha  occ. eigenvalues --   -0.33895  -0.29732  -0.27031  -0.24847  -0.23825
 Alpha  occ. eigenvalues --   -0.20604
 Alpha virt. eigenvalues --   -0.06950  -0.02489  -0.01527  -0.00970  -0.00426
 Alpha virt. eigenvalues --    0.00477   0.01461   0.01735   0.01893   0.02660
 Alpha virt. eigenvalues --    0.02838   0.03313   0.04015   0.04223   0.04815

 Mulliken charges:
               1
     1  C   -0.666698
     2  C    0.796029
     3  C    0.061121
     4  C    0.386241
     5  S   -0.506551
     6  H    0.157459
     7  C   -0.121027
     8  S   -0.575580
     9  C    0.314061
    10  C    0.313914
    11  C    0.058581
    12  H    0.125038
    13  S   -0.409720
    14  C   -0.146226
    15  C   -0.182966
    16  H    0.168894
    17  H    0.136043
    18  H    0.110711
    19  O   -0.271473
    20  H    0.252148
 Sum of Mulliken charges =  -0.00000

 Dipole moment (field-independent basis, Debye):
    X=             -1.2598    Y=              1.3597    Z=             -0.1617  Tot=              1.8607
 Quadrupole moment (field-independent basis, Debye-Ang):
   XX=            -98.0547   YY=            -91.3892   ZZ=           -108.7377
   XY=              5.6236   XZ=             -0.2095   YZ=             -0.7105

 Normal termination of Gaussian 16 at Sun Oct 17 19:54:10 2021.
