 Gaussian 16, Revision C.01,
 Gaussian 16:  ES64L-G16RevC.01  3-Jul-2019

 -------------------------------------
 # opt=modredundant b3lyp/6-311+g(d,p)
 -------------------------------------

 --------------
 pg2T_TT_95.pdb
 --------------
 Symbolic Z-matrix:
 Charge =  0 Multiplicity = 1

 SCF Done:  E(RB3LYP) =  -1654.45914404     A.U. after   16 cycles
 SCF Done:  E(RB3LYP) =  -1654.52423051     A.U. after   14 cycles
 SCF Done:  E(RB3LYP) =  -1654.60509682     A.U. after   15 cycles
 SCF Done:  E(RB3LYP) =  -1654.61993361     A.U. after   15 cycles
 SCF Done:  E(RB3LYP) =  -1654.62677170     A.U. after   15 cycles
 SCF Done:  E(RB3LYP) =  -1654.62818216     A.U. after   14 cycles
 SCF Done:  E(RB3LYP) =  -1654.62891114     A.U. after   14 cycles
 SCF Done:  E(RB3LYP) =  -1654.62880842     A.U. after   14 cycles
 SCF Done:  E(RB3LYP) =  -1654.62917308     A.U. after   13 cycles
 SCF Done:  E(RB3LYP) =  -1654.62917312     A.U. after   13 cycles
 SCF Done:  E(RB3LYP) =  -1654.62919414     A.U. after   13 cycles
 SCF Done:  E(RB3LYP) =  -1654.62919714     A.U. after   10 cycles
 SCF Done:  E(RB3LYP) =  -1654.62919735     A.U. after   10 cycles
 Optimization completed.
    -- Stationary point found.

                         Standard orientation:
 ---------------------------------------------------------------------
 Center     Atomic      Atomic             Coordinates (Angstroms)
 Number     Number       Type             X           Y           Z
 ---------------------------------------------------------------------
      1          6           0       -3.794127   -0.425931   -0.504447
      2          6           0       -2.421857   -0.548766   -0.875684
      3          6           0       -1.562311   -0.048946    0.068811
      4          6           0       -3.971293    0.171713    0.712035
      5         16           0       -2.452377    0.592197    1.429522
      6          1           0       -4.902708    0.377760    1.214680
      7          6           0       -0.099907    0.000628    0.020068
      8         16           0        0.724521    1.459820   -0.552396
      9          6           0        2.279357    0.708256   -0.332187
     10          6           0        2.135362   -0.586732    0.149552
     11          6           0        0.787193   -0.989436    0.351669
     12          1           0        0.471163   -1.953544    0.725540
     13         16           0        3.692975   -1.338907    0.370548
     14          6           0        4.496578    0.108446   -0.191997
     15          6           0        3.632202    1.109484   -0.529024
     16          1           0        5.574877    0.124745   -0.236939
     17          1           0        3.948809    2.075915   -0.895687
     18          1           0       -2.078915   -0.986254   -1.805445
     19          8           0       -4.851572   -0.852856   -1.260889
     20          1           0       -4.529744   -1.217843   -2.090587
 ---------------------------------------------------------------------

 The electronic state is 1-A.
 Alpha  occ. eigenvalues --  -88.88728 -88.88605 -88.88439 -19.16505 -10.24539
 Alpha  occ. eigenvalues --  -10.22588 -10.22457 -10.21468 -10.21384 -10.21352
 Alpha  occ. eigenvalues --  -10.19773 -10.19710 -10.19617 -10.19201  -7.97302
 Alpha  occ. eigenvalues --   -7.97172  -7.97026  -5.93614  -5.93488  -5.93324
 Alpha  occ. eigenvalues --   -5.93249  -5.93125  -5.92949  -5.92851  -5.92708
 Alpha  occ. eigenvalues --   -5.92609  -1.07481  -0.91960  -0.89348  -0.85205
 Alpha  occ. eigenvalues --   -0.77521  -0.76161  -0.74346  -0.71739  -0.70615
 Alpha  occ. eigenvalues --   -0.63024  -0.58703  -0.57793  -0.55303  -0.54296
 Alpha  occ. eigenvalues --   -0.54154  -0.50084  -0.48475  -0.43991  -0.43654
 Alpha  occ. eigenvalues --   -0.43361  -0.42049  -0.41732  -0.40183  -0.39752
 Alpha  occ. eigenvalues --   -0.37941  -0.37431  -0.36198  -0.35263  -0.34524
 Alpha  occ. eigenvalues --   -0.33996  -0.29363  -0.26042  -0.24149  -0.23199
 Alpha  occ. eigenvalues --   -0.22638
 Alpha virt. eigenvalues --   -0.04906  -0.03774  -0.01542  -0.00684  -0.00347
 Alpha virt. eigenvalues --   -0.00024   0.00768   0.01572   0.01750   0.02260
 Alpha virt. eigenvalues --    0.02981   0.03221   0.04028   0.04097   0.04381

 Mulliken charges:
               1
     1  C   -0.584379
     2  C    0.113084
     3  C    0.125520
     4  C    0.303933
     5  S   -0.159671
     6  H    0.159922
     7  C   -0.180297
     8  S   -0.495141
     9  C    0.160510
    10  C   -0.462828
    11  C    0.665450
    12  H    0.136719
    13  S   -0.374881
    14  C   -0.214277
    15  C    0.405546
    16  H    0.168425
    17  H    0.136551
    18  H    0.119648
    19  O   -0.278556
    20  H    0.254721
 Sum of Mulliken charges =  -0.00000

 Dipole moment (field-independent basis, Debye):
    X=              1.1659    Y=             -0.6034    Z=             -1.3790  Tot=              1.9040
 Quadrupole moment (field-independent basis, Debye-Ang):
   XX=            -98.2938   YY=           -100.4075   ZZ=            -99.4526
   XY=              3.9971   XZ=              1.3843   YZ=              1.6641

 Normal termination of Gaussian 16 at Sun Oct 17 19:56:14 2021.
