 Gaussian 16, Revision C.01,
 Gaussian 16:  ES64L-G16RevC.01  3-Jul-2019

 -------------------------------------
 # opt=modredundant b3lyp/6-311+g(d,p)
 -------------------------------------

 --------------
 pg2T_TT_85.pdb
 --------------
 Symbolic Z-matrix:
 Charge =  0 Multiplicity = 1

 SCF Done:  E(RB3LYP) =  -1654.45928301     A.U. after   16 cycles
 SCF Done:  E(RB3LYP) =  -1654.52434405     A.U. after   14 cycles
 SCF Done:  E(RB3LYP) =  -1654.60517013     A.U. after   15 cycles
 SCF Done:  E(RB3LYP) =  -1654.61995455     A.U. after   15 cycles
 SCF Done:  E(RB3LYP) =  -1654.62679443     A.U. after   14 cycles
 SCF Done:  E(RB3LYP) =  -1654.62820955     A.U. after   14 cycles
 SCF Done:  E(RB3LYP) =  -1654.62894667     A.U. after   12 cycles
 SCF Done:  E(RB3LYP) =  -1654.62886275     A.U. after   13 cycles
 SCF Done:  E(RB3LYP) =  -1654.62925511     A.U. after   12 cycles
 SCF Done:  E(RB3LYP) =  -1654.62925627     A.U. after   13 cycles
 SCF Done:  E(RB3LYP) =  -1654.62927358     A.U. after   13 cycles
 SCF Done:  E(RB3LYP) =  -1654.62927742     A.U. after   11 cycles
 SCF Done:  E(RB3LYP) =  -1654.62927759     A.U. after   10 cycles
 SCF Done:  E(RB3LYP) =  -1654.62927765     A.U. after    8 cycles
 Optimization completed.
    -- Stationary point found.

                         Standard orientation:
 ---------------------------------------------------------------------
 Center     Atomic      Atomic             Coordinates (Angstroms)
 Number     Number       Type             X           Y           Z
 ---------------------------------------------------------------------
      1          6           0       -3.813636    0.065861   -0.600478
      2          6           0       -2.454281    0.289427   -0.972063
      3          6           0       -1.563711   -0.061795    0.009842
      4          6           0       -3.949904   -0.453807    0.656511
      5         16           0       -2.407373   -0.678075    1.410692
      6          1           0       -4.864306   -0.712578    1.165991
      7          6           0       -0.101812    0.011302   -0.023342
      8         16           0        0.720158    1.523931    0.392809
      9          6           0        2.277133    0.785200    0.146689
     10          6           0        2.135750   -0.546740   -0.222024
     11          6           0        0.788072   -0.989115   -0.313968
     12          1           0        0.474641   -1.988540   -0.582563
     13         16           0        3.695180   -1.286030   -0.471720
     14          6           0        4.495986    0.216601   -0.074449
     15          6           0        3.629410    1.225964    0.230569
     16          1           0        5.574521    0.255415   -0.091029
     17          1           0        3.944149    2.224129    0.501277
     18          1           0       -2.142773    0.690113   -1.929301
     19          8           0       -4.896033    0.323973   -1.396970
     20          1           0       -4.603456    0.725084   -2.220824
 ---------------------------------------------------------------------

 The electronic state is 1-A.
 Alpha  occ. eigenvalues --  -88.88722 -88.88611 -88.88453 -19.16497 -10.24539
 Alpha  occ. eigenvalues --  -10.22590 -10.22458 -10.21466 -10.21385 -10.21349
 Alpha  occ. eigenvalues --  -10.19766 -10.19705 -10.19615 -10.19193  -7.97295
 Alpha  occ. eigenvalues --   -7.97177  -7.97039  -5.93608  -5.93494  -5.93338
 Alpha  occ. eigenvalues --   -5.93242  -5.93130  -5.92962  -5.92845  -5.92714
 Alpha  occ. eigenvalues --   -5.92622  -1.07474  -0.91959  -0.89351  -0.85204
 Alpha  occ. eigenvalues --   -0.77511  -0.76169  -0.74351  -0.71737  -0.70613
 Alpha  occ. eigenvalues --   -0.63022  -0.58672  -0.57818  -0.55370  -0.54383
 Alpha  occ. eigenvalues --   -0.53992  -0.50074  -0.48460  -0.44002  -0.43661
 Alpha  occ. eigenvalues --   -0.43378  -0.42056  -0.41731  -0.40177  -0.39749
 Alpha  occ. eigenvalues --   -0.37949  -0.37411  -0.36221  -0.35254  -0.34504
 Alpha  occ. eigenvalues --   -0.33994  -0.29374  -0.26022  -0.24237  -0.23022
 Alpha  occ. eigenvalues --   -0.22742
 Alpha virt. eigenvalues --   -0.04920  -0.03759  -0.01560  -0.00675  -0.00362
 Alpha virt. eigenvalues --   -0.00046   0.00792   0.01568   0.01741   0.02240
 Alpha virt. eigenvalues --    0.03017   0.03263   0.03914   0.04068   0.04370

 Mulliken charges:
               1
     1  C   -0.544315
     2  C    0.012696
     3  C    0.141254
     4  C    0.273589
     5  S   -0.132698
     6  H    0.160106
     7  C   -0.090224
     8  S   -0.481965
     9  C    0.183328
    10  C   -0.510131
    11  C    0.650627
    12  H    0.138338
    13  S   -0.374172
    14  C   -0.212728
    15  C    0.384068
    16  H    0.168373
    17  H    0.136530
    18  H    0.120976
    19  O   -0.278470
    20  H    0.254816
 Sum of Mulliken charges =  -0.00000

 Dipole moment (field-independent basis, Debye):
    X=              1.1238    Y=              0.6308    Z=             -1.3539  Tot=              1.8692
 Quadrupole moment (field-independent basis, Debye-Ang):
   XX=            -98.0939   YY=           -100.4651   ZZ=            -99.4378
   XY=              1.5529   XZ=              3.5775   YZ=             -1.8362

 Normal termination of Gaussian 16 at Sun Oct 17 19:53:21 2021.
