 Gaussian 16, Revision C.01,
 Gaussian 16:  ES64L-G16RevC.01  3-Jul-2019

 -------------------------------------
 # opt=modredundant b3lyp/6-311+g(d,p)
 -------------------------------------

 ----------------
 pg2T_TT_-135.pdb
 ----------------
 Symbolic Z-matrix:
 Charge =  0 Multiplicity = 1

 SCF Done:  E(RB3LYP) =  -1654.46139825     A.U. after   17 cycles
 SCF Done:  E(RB3LYP) =  -1654.52641861     A.U. after   14 cycles
 SCF Done:  E(RB3LYP) =  -1654.60723857     A.U. after   15 cycles
 SCF Done:  E(RB3LYP) =  -1654.62217093     A.U. after   15 cycles
 SCF Done:  E(RB3LYP) =  -1654.62918581     A.U. after   14 cycles
 SCF Done:  E(RB3LYP) =  -1654.63065628     A.U. after   14 cycles
 SCF Done:  E(RB3LYP) =  -1654.63145370     A.U. after   13 cycles
 SCF Done:  E(RB3LYP) =  -1654.63140713     A.U. after   13 cycles
 SCF Done:  E(RB3LYP) =  -1654.63166974     A.U. after   13 cycles
 SCF Done:  E(RB3LYP) =  -1654.63168819     A.U. after   12 cycles
 SCF Done:  E(RB3LYP) =  -1654.63169560     A.U. after   12 cycles
 SCF Done:  E(RB3LYP) =  -1654.63169894     A.U. after   11 cycles
 SCF Done:  E(RB3LYP) =  -1654.63169919     A.U. after    9 cycles
 Optimization completed.
    -- Stationary point found.

                         Standard orientation:
 ---------------------------------------------------------------------
 Center     Atomic      Atomic             Coordinates (Angstroms)
 Number     Number       Type             X           Y           Z
 ---------------------------------------------------------------------
      1          6           0        3.761749    0.728780    0.217333
      2          6           0        2.376851    1.018044    0.392224
      3          6           0        1.556690    0.008596   -0.052064
      4          6           0        3.992167   -0.498201   -0.339626
      5         16           0        2.504432   -1.317976   -0.684062
      6          1           0        4.943222   -0.954518   -0.561707
      7          6           0        0.104798   -0.025746   -0.032401
      8         16           0       -0.758526   -1.473939    0.507302
      9          6           0       -2.294000   -0.683002    0.280186
     10          6           0       -2.114323    0.621881   -0.161691
     11          6           0       -0.757391    0.997088   -0.344896
     12          1           0       -0.419553    1.954346   -0.716765
     13         16           0       -3.652821    1.409751   -0.392450
     14          6           0       -4.495703   -0.037003    0.113139
     15          6           0       -3.656663   -1.063991    0.437456
     16          1           0       -5.574671   -0.032472    0.139079
     17          1           0       -3.998704   -2.034028    0.770218
     18          1           0        1.998976    1.920296    0.857300
     19          8           0        4.785981    1.560897    0.577185
     20          1           0        4.428482    2.375164    0.943818
 ---------------------------------------------------------------------

 The electronic state is 1-A.
 Alpha  occ. eigenvalues --  -88.88764 -88.88736 -88.88543 -19.16574 -10.24643
 Alpha  occ. eigenvalues --  -10.22809 -10.22671 -10.21537 -10.21479 -10.21356
 Alpha  occ. eigenvalues --  -10.19746 -10.19736 -10.19652 -10.19145  -7.97338
 Alpha  occ. eigenvalues --   -7.97308  -7.97135  -5.93651  -5.93627  -5.93438
 Alpha  occ. eigenvalues --   -5.93285  -5.93265  -5.93063  -5.92886  -5.92835
 Alpha  occ. eigenvalues --   -5.92708  -1.07566  -0.92069  -0.89453  -0.85281
 Alpha  occ. eigenvalues --   -0.77686  -0.76293  -0.74512  -0.71770  -0.70620
 Alpha  occ. eigenvalues --   -0.63214  -0.58947  -0.57813  -0.55202  -0.54712
 Alpha  occ. eigenvalues --   -0.53926  -0.50198  -0.48558  -0.44100  -0.43792
 Alpha  occ. eigenvalues --   -0.43243  -0.42012  -0.41611  -0.40372  -0.39688
 Alpha  occ. eigenvalues --   -0.38053  -0.37614  -0.36617  -0.35620  -0.34543
 Alpha  occ. eigenvalues --   -0.33989  -0.29486  -0.26629  -0.24443  -0.23955
 Alpha  occ. eigenvalues --   -0.21259
 Alpha virt. eigenvalues --   -0.06168  -0.02444  -0.01674  -0.00806  -0.00391
 Alpha virt. eigenvalues --    0.00364   0.00891   0.01590   0.01765   0.02506
 Alpha virt. eigenvalues --    0.02968   0.03252   0.04044   0.04208   0.04450

 Mulliken charges:
               1
     1  C   -0.690773
     2  C    0.326330
     3  C    0.145918
     4  C    0.331786
     5  S   -0.308557
     6  H    0.159628
     7  C   -0.191023
     8  S   -0.576077
     9  C    0.212784
    10  C   -0.496884
    11  C    0.882462
    12  H    0.132012
    13  S   -0.388075
    14  C   -0.192383
    15  C    0.253627
    16  H    0.168620
    17  H    0.136417
    18  H    0.115676
    19  O   -0.273664
    20  H    0.252173
 Sum of Mulliken charges =  -0.00000

 Dipole moment (field-independent basis, Debye):
    X=             -1.2207    Y=              1.2685    Z=              0.6317  Tot=              1.8703
 Quadrupole moment (field-independent basis, Debye-Ang):
   XX=            -98.2348   YY=            -93.7348   ZZ=           -106.2688
   XY=              5.2672   XZ=             -0.2214   YZ=              1.6182

 Normal termination of Gaussian 16 at Sun Oct 17 19:38:07 2021.
