 Gaussian 16, Revision C.01,
 Gaussian 16:  ES64L-G16RevC.01  3-Jul-2019

 -------------------------------------
 # opt=modredundant b3lyp/6-311+g(d,p)
 -------------------------------------

 ----------------
 pg2T_TT_-105.pdb
 ----------------
 Symbolic Z-matrix:
 Charge =  0 Multiplicity = 1

 SCF Done:  E(RB3LYP) =  -1654.45917090     A.U. after   16 cycles
 SCF Done:  E(RB3LYP) =  -1654.52430603     A.U. after   14 cycles
 SCF Done:  E(RB3LYP) =  -1654.60520279     A.U. after   14 cycles
 SCF Done:  E(RB3LYP) =  -1654.62016584     A.U. after   15 cycles
 SCF Done:  E(RB3LYP) =  -1654.62713621     A.U. after   14 cycles
 SCF Done:  E(RB3LYP) =  -1654.62859043     A.U. after   14 cycles
 SCF Done:  E(RB3LYP) =  -1654.62939495     A.U. after   13 cycles
 SCF Done:  E(RB3LYP) =  -1654.62934584     A.U. after   13 cycles
 SCF Done:  E(RB3LYP) =  -1654.62961016     A.U. after   13 cycles
 SCF Done:  E(RB3LYP) =  -1654.62962793     A.U. after   12 cycles
 SCF Done:  E(RB3LYP) =  -1654.62964356     A.U. after   13 cycles
 SCF Done:  E(RB3LYP) =  -1654.62964646     A.U. after   11 cycles
 SCF Done:  E(RB3LYP) =  -1654.62964668     A.U. after    9 cycles
 Optimization completed.
    -- Stationary point found.

                         Standard orientation:
 ---------------------------------------------------------------------
 Center     Atomic      Atomic             Coordinates (Angstroms)
 Number     Number       Type             X           Y           Z
 ---------------------------------------------------------------------
      1          6           0        3.776330    0.590803    0.385766
      2          6           0        2.395035    0.814838    0.663981
      3          6           0        1.560203    0.033343   -0.093895
      4          6           0        3.985552   -0.367528   -0.566149
      5         16           0        2.485748   -1.007755   -1.149768
      6          1           0        4.929685   -0.719235   -0.950133
      7          6           0        0.099775   -0.016590   -0.054026
      8         16           0       -0.729676   -1.382377    0.709450
      9          6           0       -2.281162   -0.652759    0.405520
     10          6           0       -2.131901    0.572529   -0.231760
     11          6           0       -0.782911    0.935548   -0.493477
     12          1           0       -0.463263    1.841347   -0.989878
     13         16           0       -3.686335    1.300941   -0.538148
     14          6           0       -4.495654   -0.062150    0.199751
     15          6           0       -3.635219   -1.019800    0.653066
     16          1           0       -5.573766   -0.065823    0.251227
     17          1           0       -3.955517   -1.932422    1.135985
     18          1           0        2.027928    1.516883    1.402773
     19          8           0        4.813688    1.243569    0.994180
     20          1           0        4.469335    1.868368    1.639394
 ---------------------------------------------------------------------

 The electronic state is 1-A.
 Alpha  occ. eigenvalues --  -88.88735 -88.88626 -88.88452 -19.16522 -10.24559
 Alpha  occ. eigenvalues --  -10.22621 -10.22493 -10.21475 -10.21400 -10.21352
 Alpha  occ. eigenvalues --  -10.19764 -10.19719 -10.19622 -10.19200  -7.97309
 Alpha  occ. eigenvalues --   -7.97193  -7.97041  -5.93621  -5.93510  -5.93340
 Alpha  occ. eigenvalues --   -5.93256  -5.93146  -5.92965  -5.92858  -5.92727
 Alpha  occ. eigenvalues --   -5.92622  -1.07499  -0.91976  -0.89367  -0.85216
 Alpha  occ. eigenvalues --   -0.77551  -0.76181  -0.74372  -0.71744  -0.70616
 Alpha  occ. eigenvalues --   -0.63056  -0.58759  -0.57782  -0.55253  -0.54342
 Alpha  occ. eigenvalues --   -0.54172  -0.50102  -0.48498  -0.44005  -0.43685
 Alpha  occ. eigenvalues --   -0.43320  -0.42033  -0.41726  -0.40212  -0.39746
 Alpha  occ. eigenvalues --   -0.37947  -0.37474  -0.36247  -0.35306  -0.34546
 Alpha  occ. eigenvalues --   -0.34010  -0.29368  -0.26158  -0.24130  -0.23565
 Alpha  occ. eigenvalues --   -0.22234
 Alpha virt. eigenvalues --   -0.05210  -0.03424  -0.01548  -0.00701  -0.00360
 Alpha virt. eigenvalues --    0.00052   0.00750   0.01572   0.01756   0.02300
 Alpha virt. eigenvalues --    0.02979   0.03206   0.04085   0.04194   0.04350

 Mulliken charges:
               1
     1  C   -0.618705
     2  C    0.187148
     3  C    0.112390
     4  C    0.318043
     5  S   -0.196500
     6  H    0.160111
     7  C   -0.198554
     8  S   -0.508991
     9  C    0.136889
    10  C   -0.402083
    11  C    0.672852
    12  H    0.135495
    13  S   -0.377178
    14  C   -0.211948
    15  C    0.391300
    16  H    0.168492
    17  H    0.136473
    18  H    0.118951
    19  O   -0.278178
    20  H    0.253996
 Sum of Mulliken charges =  -0.00000

 Dipole moment (field-independent basis, Debye):
    X=             -1.1941    Y=              1.0132    Z=              1.1058  Tot=              1.9171
 Quadrupole moment (field-independent basis, Debye-Ang):
   XX=            -98.4096   YY=            -97.8742   ZZ=           -101.9820
   XY=              4.5270   XZ=              0.1734   YZ=              2.1438

 Normal termination of Gaussian 16 at Sun Oct 17 19:39:33 2021.
