 Gaussian 16, Revision C.01,
 Gaussian 16:  ES64L-G16RevC.01  3-Jul-2019

 -------------------------------------
 # opt=modredundant b3lyp/6-311+g(d,p)
 -------------------------------------

 ----------------
 pg2T_TT_-160.pdb
 ----------------
 Symbolic Z-matrix:
 Charge =  0 Multiplicity = 1

 SCF Done:  E(RB3LYP) =  -1654.46207407     A.U. after   16 cycles
 SCF Done:  E(RB3LYP) =  -1654.52689431     A.U. after   14 cycles
 SCF Done:  E(RB3LYP) =  -1654.60745738     A.U. after   15 cycles
 SCF Done:  E(RB3LYP) =  -1654.62221989     A.U. after   15 cycles
 SCF Done:  E(RB3LYP) =  -1654.62905818     A.U. after   14 cycles
 SCF Done:  E(RB3LYP) =  -1654.63046318     A.U. after   13 cycles
 SCF Done:  E(RB3LYP) =  -1654.63121543     A.U. after   13 cycles
 SCF Done:  E(RB3LYP) =  -1654.63119748     A.U. after   12 cycles
 SCF Done:  E(RB3LYP) =  -1654.63145655     A.U. after   12 cycles
 SCF Done:  E(RB3LYP) =  -1654.63147102     A.U. after   12 cycles
 SCF Done:  E(RB3LYP) =  -1654.63147427     A.U. after   11 cycles
 SCF Done:  E(RB3LYP) =  -1654.63147715     A.U. after   10 cycles
 SCF Done:  E(RB3LYP) =  -1654.63147731     A.U. after    9 cycles
 Optimization completed.
    -- Stationary point found.

                         Standard orientation:
 ---------------------------------------------------------------------
 Center     Atomic      Atomic             Coordinates (Angstroms)
 Number     Number       Type             X           Y           Z
 ---------------------------------------------------------------------
      1          6           0        3.761984    0.772483    0.090750
      2          6           0        2.379547    1.087388    0.220759
      3          6           0        1.556733    0.001581    0.021025
      4          6           0        3.993973   -0.542597   -0.202874
      5         16           0        2.506550   -1.420317   -0.346771
      6          1           0        4.943725   -1.034188   -0.336755
      7          6           0        0.107643   -0.022921    0.032298
      8         16           0       -0.777059   -1.536513    0.280120
      9          6           0       -2.303376   -0.708930    0.139708
     10          6           0       -2.107284    0.650491   -0.068709
     11          6           0       -0.746438    1.042444   -0.139330
     12          1           0       -0.403110    2.048155   -0.337000
     13         16           0       -3.636915    1.476218   -0.210237
     14          6           0       -4.497352   -0.029889    0.016744
     15          6           0       -3.669776   -1.102338    0.189578
     16          1           0       -5.576541   -0.022910    0.008478
     17          1           0       -4.023125   -2.112412    0.343051
     18          1           0        2.010092    2.070549    0.484934
     19          8           0        4.785607    1.665073    0.251040
     20          1           0        4.428974    2.533740    0.459477
 ---------------------------------------------------------------------

 The electronic state is 1-A.
 Alpha  occ. eigenvalues --  -88.88797 -88.88784 -88.88594 -19.16596 -10.24686
 Alpha  occ. eigenvalues --  -10.22982 -10.22822 -10.21604 -10.21540 -10.21376
 Alpha  occ. eigenvalues --  -10.19768 -10.19746 -10.19693 -10.19092  -7.97371
 Alpha  occ. eigenvalues --   -7.97365  -7.97193  -5.93688  -5.93684  -5.93500
 Alpha  occ. eigenvalues --   -5.93326  -5.93319  -5.93124  -5.92918  -5.92884
 Alpha  occ. eigenvalues --   -5.92758  -1.07599  -0.92146  -0.89509  -0.85330
 Alpha  occ. eigenvalues --   -0.77790  -0.76366  -0.74610  -0.71784  -0.70635
 Alpha  occ. eigenvalues --   -0.63319  -0.59076  -0.57883  -0.55243  -0.54913
 Alpha  occ. eigenvalues --   -0.53769  -0.50295  -0.48585  -0.44195  -0.43804
 Alpha  occ. eigenvalues --   -0.43268  -0.42022  -0.41502  -0.40484  -0.39581
 Alpha  occ. eigenvalues --   -0.38165  -0.37678  -0.37114  -0.35866  -0.34409
 Alpha  occ. eigenvalues --   -0.33912  -0.29665  -0.26942  -0.24758  -0.23881
 Alpha  occ. eigenvalues --   -0.20740
 Alpha virt. eigenvalues --   -0.06781  -0.02404  -0.01581  -0.00918  -0.00410
 Alpha virt. eigenvalues --    0.00465   0.01374   0.01667   0.01801   0.02691
 Alpha virt. eigenvalues --    0.02839   0.03281   0.04054   0.04218   0.04680

 Mulliken charges:
               1
     1  C   -0.666167
     2  C    0.610558
     3  C    0.119290
     4  C    0.385751
     5  S   -0.452510
     6  H    0.158026
     7  C    0.077388
     8  S   -0.536735
     9  C    0.340612
    10  C    0.252453
    11  C   -0.020008
    12  H    0.127966
    13  S   -0.404999
    14  C   -0.138646
    15  C   -0.252581
    16  H    0.168769
    17  H    0.136370
    18  H    0.114098
    19  O   -0.271503
    20  H    0.251867
 Sum of Mulliken charges =  -0.00000

 Dipole moment (field-independent basis, Debye):
    X=             -1.2483    Y=              1.3378    Z=              0.3066  Tot=              1.8552
 Quadrupole moment (field-independent basis, Debye-Ang):
   XX=            -98.0438   YY=            -91.8956   ZZ=           -108.2231
   XY=              5.5972   XZ=              0.2090   YZ=              1.1511

 Normal termination of Gaussian 16 at Sun Oct 17 19:30:30 2021.
