 Gaussian 16, Revision C.01,
 Gaussian 16:  ES64L-G16RevC.01  3-Jul-2019

 -------------------------------------
 # opt=modredundant b3lyp/6-311+g(d,p)
 -------------------------------------

 ---------------
 pg2T_TT_125.pdb
 ---------------
 Symbolic Z-matrix:
 Charge =  0 Multiplicity = 1

 SCF Done:  E(RB3LYP) =  -1654.46128332     A.U. after   17 cycles
 SCF Done:  E(RB3LYP) =  -1654.52630009     A.U. after   14 cycles
 SCF Done:  E(RB3LYP) =  -1654.60712062     A.U. after   14 cycles
 SCF Done:  E(RB3LYP) =  -1654.62201448     A.U. after   15 cycles
 SCF Done:  E(RB3LYP) =  -1654.62879264     A.U. after   14 cycles
 SCF Done:  E(RB3LYP) =  -1654.63019482     A.U. after   14 cycles
 SCF Done:  E(RB3LYP) =  -1654.63092815     A.U. after   14 cycles
 SCF Done:  E(RB3LYP) =  -1654.63088438     A.U. after   13 cycles
 SCF Done:  E(RB3LYP) =  -1654.63111793     A.U. after   12 cycles
 SCF Done:  E(RB3LYP) =  -1654.63113156     A.U. after   12 cycles
 SCF Done:  E(RB3LYP) =  -1654.63114347     A.U. after   12 cycles
 SCF Done:  E(RB3LYP) =  -1654.63114578     A.U. after   11 cycles
 SCF Done:  E(RB3LYP) =  -1654.63114595     A.U. after   10 cycles
 Optimization completed.
    -- Stationary point found.

                         Standard orientation:
 ---------------------------------------------------------------------
 Center     Atomic      Atomic             Coordinates (Angstroms)
 Number     Number       Type             X           Y           Z
 ---------------------------------------------------------------------
      1          6           0        3.762044    0.701204   -0.269156
      2          6           0        2.376059    0.977165   -0.460479
      3          6           0        1.557245    0.016095    0.080263
      4          6           0        3.992854   -0.471230    0.394647
      5         16           0        2.505822   -1.254010    0.817783
      6          1           0        4.944651   -0.906071    0.653908
      7          6           0        0.102871   -0.026694    0.056457
      8         16           0       -0.747562   -1.440094   -0.586776
      9          6           0       -2.288734   -0.669724   -0.330981
     10          6           0       -2.120113    0.604756    0.195651
     11          6           0       -0.766336    0.972140    0.418577
     12          1           0       -0.434958    1.907719    0.847248
     13         16           0       -3.664363    1.371695    0.456323
     14          6           0       -4.494998   -0.041942   -0.152198
     15          6           0       -3.648238   -1.043955   -0.529647
     16          1           0       -5.573549   -0.038699   -0.192538
     17          1           0       -3.982354   -1.991769   -0.928027
     18          1           0        1.995145    1.836191   -0.999158
     19          8           0        4.785683    1.496121   -0.706893
     20          1           0        4.427325    2.275334   -1.142377
 ---------------------------------------------------------------------

 The electronic state is 1-A.
 Alpha  occ. eigenvalues --  -88.88752 -88.88703 -88.88514 -19.16559 -10.24617
 Alpha  occ. eigenvalues --  -10.22742 -10.22612 -10.21509 -10.21452 -10.21352
 Alpha  occ. eigenvalues --  -10.19745 -10.19734 -10.19639 -10.19172  -7.97326
 Alpha  occ. eigenvalues --   -7.97271  -7.97105  -5.93639  -5.93590  -5.93406
 Alpha  occ. eigenvalues --   -5.93273  -5.93227  -5.93031  -5.92875  -5.92801
 Alpha  occ. eigenvalues --   -5.92681  -1.07547  -0.92035  -0.89426  -0.85258
 Alpha  occ. eigenvalues --   -0.77639  -0.76255  -0.74465  -0.71760  -0.70618
 Alpha  occ. eigenvalues --   -0.63161  -0.58887  -0.57794  -0.55205  -0.54606
 Alpha  occ. eigenvalues --   -0.54002  -0.50161  -0.48544  -0.44065  -0.43765
 Alpha  occ. eigenvalues --   -0.43258  -0.42013  -0.41658  -0.40315  -0.39713
 Alpha  occ. eigenvalues --   -0.38007  -0.37572  -0.36472  -0.35494  -0.34561
 Alpha  occ. eigenvalues --   -0.34011  -0.29431  -0.26480  -0.24302  -0.23921
 Alpha  occ. eigenvalues --   -0.21534
 Alpha virt. eigenvalues --   -0.05877  -0.02678  -0.01638  -0.00760  -0.00385
 Alpha virt. eigenvalues --    0.00270   0.00784   0.01581   0.01760   0.02429
 Alpha virt. eigenvalues --    0.03007   0.03215   0.04068   0.04231   0.04404

 Mulliken charges:
               1
     1  C   -0.678570
     2  C    0.265175
     3  C    0.155943
     4  C    0.318023
     5  S   -0.270938
     6  H    0.160026
     7  C   -0.150039
     8  S   -0.550882
     9  C    0.154650
    10  C   -0.404533
    11  C    0.750417
    12  H    0.133353
    13  S   -0.385146
    14  C   -0.199815
    15  C    0.303944
    16  H    0.168586
    17  H    0.136375
    18  H    0.116093
    19  O   -0.275345
    20  H    0.252683
 Sum of Mulliken charges =  -0.00000

 Dipole moment (field-independent basis, Debye):
    X=             -1.2139    Y=              1.2268    Z=             -0.7670  Tot=              1.8886
 Quadrupole moment (field-independent basis, Debye-Ang):
   XX=            -98.3475   YY=            -94.7626   ZZ=           -105.1787
   XY=              5.0518   XZ=              0.3256   YZ=             -1.7799

 Normal termination of Gaussian 16 at Sun Oct 17 19:54:17 2021.
