 Gaussian 16, Revision C.01,
 Gaussian 16:  ES64L-G16RevC.01  3-Jul-2019

 -------------------------------------
 # opt=modredundant b3lyp/6-311+g(d,p)
 -------------------------------------

 --------------
 pg2T_TT_90.pdb
 --------------
 Symbolic Z-matrix:
 Charge =  0 Multiplicity = 1

 SCF Done:  E(RB3LYP) =  -1654.45925783     A.U. after   16 cycles
 SCF Done:  E(RB3LYP) =  -1654.52430498     A.U. after   14 cycles
 SCF Done:  E(RB3LYP) =  -1654.60510184     A.U. after   15 cycles
 SCF Done:  E(RB3LYP) =  -1654.61989059     A.U. after   15 cycles
 SCF Done:  E(RB3LYP) =  -1654.62671849     A.U. after   15 cycles
 SCF Done:  E(RB3LYP) =  -1654.62812718     A.U. after   14 cycles
 SCF Done:  E(RB3LYP) =  -1654.62885529     A.U. after   14 cycles
 SCF Done:  E(RB3LYP) =  -1654.62875990     A.U. after   14 cycles
 SCF Done:  E(RB3LYP) =  -1654.62913901     A.U. after   13 cycles
 SCF Done:  E(RB3LYP) =  -1654.62913960     A.U. after   13 cycles
 SCF Done:  E(RB3LYP) =  -1654.62915928     A.U. after   13 cycles
 SCF Done:  E(RB3LYP) =  -1654.62916282     A.U. after   11 cycles
 SCF Done:  E(RB3LYP) =  -1654.62916312     A.U. after   10 cycles
 SCF Done:  E(RB3LYP) =  -1654.62916327     A.U. after    9 cycles
 Optimization completed.
    -- Stationary point found.

                         Standard orientation:
 ---------------------------------------------------------------------
 Center     Atomic      Atomic             Coordinates (Angstroms)
 Number     Number       Type             X           Y           Z
 ---------------------------------------------------------------------
      1          6           0       -3.804350   -0.194305   -0.601843
      2          6           0       -2.438416   -0.153087   -1.012436
      3          6           0       -1.563212   -0.061750    0.039256
      4          6           0       -3.960974   -0.130668    0.754583
      5         16           0       -2.430062   -0.020801    1.556275
      6          1           0       -4.883935   -0.146074    1.311875
      7          6           0       -0.100684   -0.001605   -0.004123
      8         16           0        0.722474    1.563061   -0.109067
      9          6           0        2.278452    0.782371   -0.111681
     10          6           0        2.135880   -0.597225   -0.032491
     11          6           0        0.787905   -1.043718    0.032164
     12          1           0        0.473209   -2.075823    0.102382
     13         16           0        3.694469   -1.379236   -0.036773
     14          6           0        4.496559    0.170508   -0.145989
     15          6           0        3.631026    1.225322   -0.177625
     16          1           0        5.574991    0.200720   -0.179051
     17          1           0        3.946641    2.257217   -0.242831
     18          1           0       -2.111228   -0.190204   -2.044631
     19          8           0       -4.874453   -0.292684   -1.449121
     20          1           0       -4.567257   -0.287793   -2.360617
 ---------------------------------------------------------------------

 The electronic state is 1-A.
 Alpha  occ. eigenvalues --  -88.88725 -88.88604 -88.88442 -19.16499 -10.24536
 Alpha  occ. eigenvalues --  -10.22584 -10.22452 -10.21466 -10.21382 -10.21351
 Alpha  occ. eigenvalues --  -10.19772 -10.19706 -10.19616 -10.19199  -7.97298
 Alpha  occ. eigenvalues --   -7.97171  -7.97028  -5.93611  -5.93487  -5.93327
 Alpha  occ. eigenvalues --   -5.93246  -5.93124  -5.92951  -5.92848  -5.92707
 Alpha  occ. eigenvalues --   -5.92611  -1.07475  -0.91957  -0.89346  -0.85203
 Alpha  occ. eigenvalues --   -0.77513  -0.76161  -0.74344  -0.71738  -0.70614
 Alpha  occ. eigenvalues --   -0.63019  -0.58683  -0.57804  -0.55336  -0.54338
 Alpha  occ. eigenvalues --   -0.54074  -0.50078  -0.48466  -0.43992  -0.43652
 Alpha  occ. eigenvalues --   -0.43374  -0.42054  -0.41732  -0.40178  -0.39752
 Alpha  occ. eigenvalues --   -0.37943  -0.37418  -0.36200  -0.35254  -0.34512
 Alpha  occ. eigenvalues --   -0.33993  -0.29367  -0.26017  -0.24187  -0.22977
 Alpha  occ. eigenvalues --   -0.22837
 Alpha virt. eigenvalues --   -0.04854  -0.03833  -0.01549  -0.00679  -0.00349
 Alpha virt. eigenvalues --   -0.00043   0.00779   0.01571   0.01746   0.02247
 Alpha virt. eigenvalues --    0.02995   0.03237   0.03969   0.04079   0.04380

 Mulliken charges:
               1
     1  C   -0.564784
     2  C    0.062336
     3  C    0.136150
     4  C    0.290301
     5  S   -0.143961
     6  H    0.159932
     7  C   -0.140817
     8  S   -0.489560
     9  C    0.173347
    10  C   -0.490548
    11  C    0.657841
    12  H    0.137499
    13  S   -0.374292
    14  C   -0.214051
    15  C    0.399148
    16  H    0.168394
    17  H    0.136557
    18  H    0.120185
    19  O   -0.278564
    20  H    0.254888
 Sum of Mulliken charges =  -0.00000

 Dipole moment (field-independent basis, Debye):
    X=              1.1458    Y=             -0.0057    Z=             -1.5005  Tot=              1.8880
 Quadrupole moment (field-independent basis, Debye-Ang):
   XX=            -98.1990   YY=           -101.4989   ZZ=            -98.3790
   XY=              3.0306   XZ=              2.7245   YZ=             -0.0060

 Normal termination of Gaussian 16 at Sun Oct 17 19:51:59 2021.
