 Gaussian 16, Revision C.01,
 Gaussian 16:  ES64L-G16RevC.01  3-Jul-2019

 -------------------------------------
 # opt=modredundant b3lyp/6-311+g(d,p)
 -------------------------------------

 ---------------
 pg2T_TT_130.pdb
 ---------------
 Symbolic Z-matrix:
 Charge =  0 Multiplicity = 1

 SCF Done:  E(RB3LYP) =  -1654.46174735     A.U. after   17 cycles
 SCF Done:  E(RB3LYP) =  -1654.52672611     A.U. after   14 cycles
 SCF Done:  E(RB3LYP) =  -1654.60751106     A.U. after   14 cycles
 SCF Done:  E(RB3LYP) =  -1654.62237470     A.U. after   15 cycles
 SCF Done:  E(RB3LYP) =  -1654.62911416     A.U. after   14 cycles
 SCF Done:  E(RB3LYP) =  -1654.63051172     A.U. after   14 cycles
 SCF Done:  E(RB3LYP) =  -1654.63124625     A.U. after   14 cycles
 SCF Done:  E(RB3LYP) =  -1654.63121669     A.U. after   13 cycles
 SCF Done:  E(RB3LYP) =  -1654.63142887     A.U. after   12 cycles
 SCF Done:  E(RB3LYP) =  -1654.63144599     A.U. after   12 cycles
 SCF Done:  E(RB3LYP) =  -1654.63145637     A.U. after   12 cycles
 SCF Done:  E(RB3LYP) =  -1654.63145886     A.U. after   11 cycles
 SCF Done:  E(RB3LYP) =  -1654.63145903     A.U. after   10 cycles
 Optimization completed.
    -- Stationary point found.

                         Standard orientation:
 ---------------------------------------------------------------------
 Center     Atomic      Atomic             Coordinates (Angstroms)
 Number     Number       Type             X           Y           Z
 ---------------------------------------------------------------------
      1          6           0        3.761696    0.716058   -0.243321
      2          6           0        2.376139    0.999167   -0.425249
      3          6           0        1.556905    0.012217    0.067234
      4          6           0        3.992578   -0.485610    0.366037
      5         16           0        2.505364   -1.288282    0.750119
      6          1           0        4.944129   -0.931960    0.605744
      7          6           0        0.103855   -0.026334    0.045647
      8         16           0       -0.753067   -1.457481   -0.547442
      9          6           0       -2.291359   -0.676500   -0.306060
     10          6           0       -2.117109    0.613645    0.179061
     11          6           0       -0.761730    0.984968    0.382982
     12          1           0       -0.427017    1.931499    0.784072
     13         16           0       -3.658456    1.391233    0.425077
     14          6           0       -4.495324   -0.039330   -0.133524
     15          6           0       -3.652496   -1.054267   -0.484557
     16          1           0       -5.574089   -0.035344   -0.167248
     17          1           0       -3.990653   -2.013518   -0.850863
     18          1           0        1.996399    1.881053   -0.926490
     19          8           0        4.785443    1.530905   -0.642174
     20          1           0        4.427310    2.329404   -1.041407
 ---------------------------------------------------------------------

 The electronic state is 1-A.
 Alpha  occ. eigenvalues --  -88.88758 -88.88720 -88.88529 -19.16567 -10.24630
 Alpha  occ. eigenvalues --  -10.22775 -10.22641 -10.21522 -10.21466 -10.21353
 Alpha  occ. eigenvalues --  -10.19745 -10.19735 -10.19645 -10.19159  -7.97332
 Alpha  occ. eigenvalues --   -7.97290  -7.97120  -5.93644  -5.93610  -5.93423
 Alpha  occ. eigenvalues --   -5.93279  -5.93247  -5.93048  -5.92880  -5.92819
 Alpha  occ. eigenvalues --   -5.92695  -1.07558  -0.92052  -0.89440  -0.85269
 Alpha  occ. eigenvalues --   -0.77662  -0.76274  -0.74489  -0.71765  -0.70619
 Alpha  occ. eigenvalues --   -0.63188  -0.58917  -0.57803  -0.55202  -0.54661
 Alpha  occ. eigenvalues --   -0.53964  -0.50179  -0.48552  -0.44082  -0.43780
 Alpha  occ. eigenvalues --   -0.43249  -0.42012  -0.41634  -0.40344  -0.39701
 Alpha  occ. eigenvalues --   -0.38029  -0.37594  -0.36542  -0.35556  -0.34554
 Alpha  occ. eigenvalues --   -0.34002  -0.29457  -0.26556  -0.24372  -0.23945
 Alpha  occ. eigenvalues --   -0.21391
 Alpha virt. eigenvalues --   -0.06025  -0.02545  -0.01660  -0.00782  -0.00388
 Alpha virt. eigenvalues --    0.00321   0.00827   0.01585   0.01762   0.02467
 Alpha virt. eigenvalues --    0.02992   0.03232   0.04055   0.04217   0.04427

 Mulliken charges:
               1
     1  C   -0.687061
     2  C    0.291663
     3  C    0.155478
     4  C    0.323715
     5  S   -0.290021
     6  H    0.159850
     7  C   -0.162224
     8  S   -0.563247
     9  C    0.180457
    10  C   -0.445311
    11  C    0.808317
    12  H    0.132735
    13  S   -0.386756
    14  C   -0.196143
    15  C    0.279879
    16  H    0.168604
    17  H    0.136391
    18  H    0.115749
    19  O   -0.274488
    20  H    0.252412
 Sum of Mulliken charges =  -0.00000

 Dipole moment (field-independent basis, Debye):
    X=             -1.2168    Y=              1.2501    Z=             -0.6977  Tot=              1.8789
 Quadrupole moment (field-independent basis, Debye-Ang):
   XX=            -98.2928   YY=            -94.2191   ZZ=           -105.7530
   XY=              5.1651   XZ=              0.2915   YZ=             -1.6942

 Normal termination of Gaussian 16 at Sun Oct 17 19:58:25 2021.
