 Gaussian 16, Revision C.01,
 Gaussian 16:  ES64L-G16RevC.01  3-Jul-2019

 -------------------------------------
 # opt=modredundant b3lyp/6-311+g(d,p)
 -------------------------------------

 ----------------
 pg2T_TT_-115.pdb
 ----------------
 Symbolic Z-matrix:
 Charge =  0 Multiplicity = 1

 SCF Done:  E(RB3LYP) =  -1654.46001403     A.U. after   17 cycles
 SCF Done:  E(RB3LYP) =  -1654.52507523     A.U. after   14 cycles
 SCF Done:  E(RB3LYP) =  -1654.60589714     A.U. after   14 cycles
 SCF Done:  E(RB3LYP) =  -1654.62084232     A.U. after   15 cycles
 SCF Done:  E(RB3LYP) =  -1654.62783977     A.U. after   14 cycles
 SCF Done:  E(RB3LYP) =  -1654.62932113     A.U. after   14 cycles
 SCF Done:  E(RB3LYP) =  -1654.63014145     A.U. after   13 cycles
 SCF Done:  E(RB3LYP) =  -1654.63010164     A.U. after   13 cycles
 SCF Done:  E(RB3LYP) =  -1654.63034666     A.U. after   12 cycles
 SCF Done:  E(RB3LYP) =  -1654.63037052     A.U. after   12 cycles
 SCF Done:  E(RB3LYP) =  -1654.63038220     A.U. after   12 cycles
 SCF Done:  E(RB3LYP) =  -1654.63038535     A.U. after   11 cycles
 SCF Done:  E(RB3LYP) =  -1654.63038558     A.U. after    9 cycles
 Optimization completed.
    -- Stationary point found.

                         Standard orientation:
 ---------------------------------------------------------------------
 Center     Atomic      Atomic             Coordinates (Angstroms)
 Number     Number       Type             X           Y           Z
 ---------------------------------------------------------------------
      1          6           0        3.765753    0.660307    0.322402
      2          6           0        2.380372    0.917295    0.544810
      3          6           0        1.558392    0.024237   -0.096236
      4          6           0        3.991722   -0.433405   -0.465681
      5         16           0        2.502042   -1.162772   -0.966114
      6          1           0        4.942084   -0.837578   -0.775254
      7          6           0        0.100998   -0.024994   -0.066050
      8         16           0       -0.737369   -1.404257    0.662204
      9          6           0       -2.284145   -0.656553    0.376828
     10          6           0       -2.126360    0.586209   -0.223592
     11          6           0       -0.775490    0.947086   -0.476252
     12          1           0       -0.450638    1.861695   -0.952627
     13         16           0       -3.676183    1.331273   -0.512833
     14          6           0       -4.494860   -0.048727    0.182470
     15          6           0       -3.640496   -1.023973    0.609246
     16          1           0       -5.573061   -0.047779    0.231799
     17          1           0       -3.966844   -1.948760    1.064169
     18          1           0        2.001422    1.717355    1.169023
     19          8           0        4.792379    1.402074    0.839826
     20          1           0        4.436847    2.125668    1.364490
 ---------------------------------------------------------------------

 The electronic state is 1-A.
 Alpha  occ. eigenvalues --  -88.88743 -88.88663 -88.88482 -19.16541 -10.24587
 Alpha  occ. eigenvalues --  -10.22677 -10.22550 -10.21488 -10.21425 -10.21351
 Alpha  occ. eigenvalues --  -10.19752 -10.19728 -10.19629 -10.19191  -7.97317
 Alpha  occ. eigenvalues --   -7.97230  -7.97071  -5.93629  -5.93548  -5.93371
 Alpha  occ. eigenvalues --   -5.93264  -5.93185  -5.92996  -5.92866  -5.92762
 Alpha  occ. eigenvalues --   -5.92650  -1.07523  -0.92003  -0.89396  -0.85235
 Alpha  occ. eigenvalues --   -0.77593  -0.76216  -0.74416  -0.71751  -0.70617
 Alpha  occ. eigenvalues --   -0.63106  -0.58823  -0.57783  -0.55221  -0.54481
 Alpha  occ. eigenvalues --   -0.54086  -0.50128  -0.48523  -0.44033  -0.43727
 Alpha  occ. eigenvalues --   -0.43283  -0.42019  -0.41701  -0.40259  -0.39732
 Alpha  occ. eigenvalues --   -0.37970  -0.37523  -0.36345  -0.35385  -0.34561
 Alpha  occ. eigenvalues --   -0.34019  -0.29390  -0.26317  -0.24185  -0.23805
 Alpha  occ. eigenvalues --   -0.21859
 Alpha virt. eigenvalues --   -0.05556  -0.03022  -0.01585  -0.00725  -0.00376
 Alpha virt. eigenvalues --    0.00157   0.00748   0.01575   0.01758   0.02358
 Alpha virt. eigenvalues --    0.03003   0.03201   0.04087   0.04284   0.04325

 Mulliken charges:
               1
     1  C   -0.650382
     2  C    0.228070
     3  C    0.132100
     4  C    0.315988
     5  S   -0.232629
     6  H    0.160196
     7  C   -0.168689
     8  S   -0.528243
     9  C    0.129570
    10  C   -0.372112
    11  C    0.689063
    12  H    0.134464
    13  S   -0.381097
    14  C   -0.206690
    15  C    0.351600
    16  H    0.168545
    17  H    0.136392
    18  H    0.117605
    19  O   -0.277036
    20  H    0.253286
 Sum of Mulliken charges =  -0.00000

 Dipole moment (field-independent basis, Debye):
    X=             -1.2076    Y=              1.1551    Z=              0.9208  Tot=              1.9080
 Quadrupole moment (field-independent basis, Debye-Ang):
   XX=            -98.4206   YY=            -96.0973   ZZ=           -103.7908
   XY=              4.8012   XZ=             -0.2383   YZ=              1.9817

 Normal termination of Gaussian 16 at Sun Oct 17 19:46:54 2021.
