 Gaussian 16, Revision C.01,
 Gaussian 16:  ES64L-G16RevC.01  3-Jul-2019

 -------------------------------------
 # opt=modredundant b3lyp/6-311+g(d,p)
 -------------------------------------

 ---------------
 pg2T_TT_120.pdb
 ---------------
 Symbolic Z-matrix:
 Charge =  0 Multiplicity = 1

 SCF Done:  E(RB3LYP) =  -1654.46078886     A.U. after   17 cycles
 SCF Done:  E(RB3LYP) =  -1654.52583490     A.U. after   14 cycles
 SCF Done:  E(RB3LYP) =  -1654.60668914     A.U. after   14 cycles
 SCF Done:  E(RB3LYP) =  -1654.62160527     A.U. after   15 cycles
 SCF Done:  E(RB3LYP) =  -1654.62841410     A.U. after   14 cycles
 SCF Done:  E(RB3LYP) =  -1654.62982336     A.U. after   14 cycles
 SCF Done:  E(RB3LYP) =  -1654.63055562     A.U. after   14 cycles
 SCF Done:  E(RB3LYP) =  -1654.63049777     A.U. after   13 cycles
 SCF Done:  E(RB3LYP) =  -1654.63075386     A.U. after   12 cycles
 SCF Done:  E(RB3LYP) =  -1654.63076462     A.U. after   13 cycles
 SCF Done:  E(RB3LYP) =  -1654.63077779     A.U. after   12 cycles
 SCF Done:  E(RB3LYP) =  -1654.63077997     A.U. after   11 cycles
 SCF Done:  E(RB3LYP) =  -1654.63078012     A.U. after   10 cycles
 Optimization completed.
    -- Stationary point found.

                         Standard orientation:
 ---------------------------------------------------------------------
 Center     Atomic      Atomic             Coordinates (Angstroms)
 Number     Number       Type             X           Y           Z
 ---------------------------------------------------------------------
      1          6           0        3.763273    0.683021   -0.295356
      2          6           0        2.377286    0.950637   -0.499616
      3          6           0        1.557728    0.020177    0.090200
      4          6           0        3.992666   -0.454316    0.427319
      5         16           0        2.504962   -1.213188    0.889056
      6          1           0        4.944164   -0.875463    0.709436
      7          6           0        0.101902   -0.026351    0.063582
      8         16           0       -0.742230   -1.422037   -0.625401
      9          6           0       -2.286269   -0.662857   -0.354867
     10          6           0       -2.123242    0.595520    0.210703
     11          6           0       -0.771012    0.959274    0.450153
     12          1           0       -0.443006    1.884026    0.904215
     13         16           0       -3.670375    1.351376    0.486138
     14          6           0       -4.494813   -0.044951   -0.168780
     15          6           0       -3.644141   -1.033557   -0.571707
     16          1           0       -5.573161   -0.042642   -0.214532
     17          1           0       -3.974239   -1.969637   -1.000052
     18          1           0        1.996468    1.783117   -1.078574
     19          8           0        4.787716    1.454217   -0.772187
     20          1           0        4.430068    2.208880   -1.249479
 ---------------------------------------------------------------------

 The electronic state is 1-A.
 Alpha  occ. eigenvalues --  -88.88747 -88.88683 -88.88498 -19.16551 -10.24602
 Alpha  occ. eigenvalues --  -10.22709 -10.22581 -10.21497 -10.21439 -10.21351
 Alpha  occ. eigenvalues --  -10.19748 -10.19732 -10.19634 -10.19182  -7.97321
 Alpha  occ. eigenvalues --   -7.97251  -7.97088  -5.93634  -5.93570  -5.93389
 Alpha  occ. eigenvalues --   -5.93268  -5.93207  -5.93014  -5.92870  -5.92782
 Alpha  occ. eigenvalues --   -5.92666  -1.07536  -0.92018  -0.89411  -0.85246
 Alpha  occ. eigenvalues --   -0.77616  -0.76235  -0.74441  -0.71755  -0.70617
 Alpha  occ. eigenvalues --   -0.63134  -0.58856  -0.57787  -0.55212  -0.54546
 Alpha  occ. eigenvalues --   -0.54043  -0.50144  -0.48535  -0.44049  -0.43747
 Alpha  occ. eigenvalues --   -0.43269  -0.42015  -0.41680  -0.40287  -0.39723
 Alpha  occ. eigenvalues --   -0.37987  -0.37547  -0.36407  -0.35437  -0.34564
 Alpha  occ. eigenvalues --   -0.34017  -0.29409  -0.26400  -0.24238  -0.23877
 Alpha  occ. eigenvalues --   -0.21689
 Alpha virt. eigenvalues --   -0.05721  -0.02838  -0.01612  -0.00741  -0.00381
 Alpha virt. eigenvalues --    0.00214   0.00759   0.01577   0.01759   0.02393
 Alpha virt. eigenvalues --    0.03011   0.03204   0.04079   0.04253   0.04373

 Mulliken charges:
               1
     1  C   -0.665898
     2  C    0.245220
     3  C    0.146811
     4  C    0.315535
     5  S   -0.251681
     6  H    0.160142
     7  C   -0.153907
     8  S   -0.539166
     9  C    0.137550
    10  C   -0.379294
    11  C    0.711218
    12  H    0.133916
    13  S   -0.383211
    14  C   -0.203295
    15  C    0.327603
    16  H    0.168567
    17  H    0.136374
    18  H    0.116748
    19  O   -0.276204
    20  H    0.252973
 Sum of Mulliken charges =  -0.00000

 Dipole moment (field-independent basis, Debye):
    X=             -1.2110    Y=              1.1960    Z=             -0.8417  Tot=              1.8988
 Quadrupole moment (field-independent basis, Debye-Ang):
   XX=            -98.3917   YY=            -95.3847   ZZ=           -104.5282
   XY=              4.9282   XZ=              0.3090   YZ=             -1.8784

 Normal termination of Gaussian 16 at Sun Oct 17 19:55:52 2021.
