 Gaussian 16, Revision C.01,
 Gaussian 16:  ES64L-G16RevC.01  3-Jul-2019

 -------------------------------------
 # opt=modredundant b3lyp/6-311+g(d,p)
 -------------------------------------

 --------------
 pg2T_TT_45.pdb
 --------------
 Symbolic Z-matrix:
 Charge =  0 Multiplicity = 1

 SCF Done:  E(RB3LYP) =  -1654.46248834     A.U. after   17 cycles
 SCF Done:  E(RB3LYP) =  -1654.52748721     A.U. after   14 cycles
 SCF Done:  E(RB3LYP) =  -1654.60835726     A.U. after   15 cycles
 SCF Done:  E(RB3LYP) =  -1654.62319156     A.U. after   15 cycles
 SCF Done:  E(RB3LYP) =  -1654.63006778     A.U. after   16 cycles
 SCF Done:  E(RB3LYP) =  -1654.63147387     A.U. after   15 cycles
 SCF Done:  E(RB3LYP) =  -1654.63221141     A.U. after   13 cycles
 SCF Done:  E(RB3LYP) =  -1654.63219998     A.U. after   14 cycles
 SCF Done:  E(RB3LYP) =  -1654.63249616     A.U. after   12 cycles
 SCF Done:  E(RB3LYP) =  -1654.63255390     A.U. after   13 cycles
 SCF Done:  E(RB3LYP) =  -1654.63255826     A.U. after   12 cycles
 SCF Done:  E(RB3LYP) =  -1654.63256173     A.U. after   12 cycles
 SCF Done:  E(RB3LYP) =  -1654.63256196     A.U. after   10 cycles
 Optimization completed.
    -- Stationary point found.

                         Standard orientation:
 ---------------------------------------------------------------------
 Center     Atomic      Atomic             Coordinates (Angstroms)
 Number     Number       Type             X           Y           Z
 ---------------------------------------------------------------------
      1          6           0        3.825023    0.375137    0.300966
      2          6           0        2.481478    0.827726    0.448408
      3          6           0        1.555739   -0.081549   -0.005169
      4          6           0        3.919016   -0.873069   -0.249077
      5         16           0        2.350542   -1.510814   -0.620764
      6          1           0        4.813875   -1.436451   -0.458629
      7          6           0        0.107113    0.012857    0.015998
      8         16           0       -0.680631    1.519431   -0.478984
      9          6           0       -2.255485    0.822829   -0.212920
     10          6           0       -2.143069   -0.498960    0.200269
     11          6           0       -0.807417   -0.962426    0.330787
     12          1           0       -0.520940   -1.950255    0.664345
     13         16           0       -3.719101   -1.194908    0.468303
     14          6           0       -4.486302    0.310096    0.016211
     15          6           0       -3.596050    1.290019   -0.317742
     16          1           0       -5.563802    0.371774    0.024173
     17          1           0       -3.887983    2.285011   -0.623471
     18          1           0        2.207168    1.774055    0.898784
     19          8           0        4.933533    1.081696    0.678226
     20          1           0        4.670177    1.946994    1.005727
 ---------------------------------------------------------------------

 The electronic state is 1-A.
 Alpha  occ. eigenvalues --  -88.88775 -88.88750 -88.88577 -19.16547 -10.24646
 Alpha  occ. eigenvalues --  -10.22831 -10.22686 -10.21545 -10.21489 -10.21355
 Alpha  occ. eigenvalues --  -10.19735 -10.19709 -10.19663 -10.19114  -7.97346
 Alpha  occ. eigenvalues --   -7.97324  -7.97166  -5.93666  -5.93636  -5.93471
 Alpha  occ. eigenvalues --   -5.93305  -5.93271  -5.93095  -5.92873  -5.92871
 Alpha  occ. eigenvalues --   -5.92737  -1.07548  -0.92076  -0.89468  -0.85291
 Alpha  occ. eigenvalues --   -0.77618  -0.76392  -0.74513  -0.71772  -0.70625
 Alpha  occ. eigenvalues --   -0.63216  -0.58807  -0.57953  -0.55632  -0.54674
 Alpha  occ. eigenvalues --   -0.53478  -0.50134  -0.48516  -0.44192  -0.43800
 Alpha  occ. eigenvalues --   -0.43297  -0.42036  -0.41828  -0.40165  -0.39782
 Alpha  occ. eigenvalues --   -0.38068  -0.37536  -0.36686  -0.35524  -0.34568
 Alpha  occ. eigenvalues --   -0.34006  -0.29510  -0.26664  -0.24473  -0.23945
 Alpha  occ. eigenvalues --   -0.21235
 Alpha virt. eigenvalues --   -0.06225  -0.02218  -0.01620  -0.00769  -0.00490
 Alpha virt. eigenvalues --    0.00316   0.00897   0.01520   0.01772   0.02196
 Alpha virt. eigenvalues --    0.03147   0.03483   0.03692   0.04039   0.04313

 Mulliken charges:
               1
     1  C   -0.649852
     2  C    0.218254
     3  C    0.215538
     4  C    0.322138
     5  S   -0.294780
     6  H    0.160385
     7  C   -0.135069
     8  S   -0.556152
     9  C    0.217519
    10  C   -0.683082
    11  C    0.963373
    12  H    0.142962
    13  S   -0.389440
    14  C   -0.205553
    15  C    0.265704
    16  H    0.168411
    17  H    0.136100
    18  H    0.124197
    19  O   -0.272806
    20  H    0.252154
 Sum of Mulliken charges =  -0.00000

 Dipole moment (field-independent basis, Debye):
    X=             -1.0839    Y=              1.3947    Z=              0.5883  Tot=              1.8617
 Quadrupole moment (field-independent basis, Debye-Ang):
   XX=            -97.8165   YY=            -93.6226   ZZ=           -106.4966
   XY=              0.2563   XZ=              1.9728   YZ=              1.6426

 Normal termination of Gaussian 16 at Sun Oct 17 19:52:37 2021.
