 Gaussian 16, Revision C.01,
 Gaussian 16:  ES64L-G16RevC.01  3-Jul-2019

 -------------------------------------
 # opt=modredundant b3lyp/6-311+g(d,p)
 -------------------------------------

 --------------
 pg2T_TT_50.pdb
 --------------
 Symbolic Z-matrix:
 Charge =  0 Multiplicity = 1

 SCF Done:  E(RB3LYP) =  -1654.46216943     A.U. after   17 cycles
 SCF Done:  E(RB3LYP) =  -1654.52714970     A.U. after   14 cycles
 SCF Done:  E(RB3LYP) =  -1654.60797315     A.U. after   15 cycles
 SCF Done:  E(RB3LYP) =  -1654.62280695     A.U. after   15 cycles
 SCF Done:  E(RB3LYP) =  -1654.62969119     A.U. after   14 cycles
 SCF Done:  E(RB3LYP) =  -1654.63111095     A.U. after   15 cycles
 SCF Done:  E(RB3LYP) =  -1654.63185186     A.U. after   13 cycles
 SCF Done:  E(RB3LYP) =  -1654.63184303     A.U. after   13 cycles
 SCF Done:  E(RB3LYP) =  -1654.63219921     A.U. after   12 cycles
 SCF Done:  E(RB3LYP) =  -1654.63220941     A.U. after   13 cycles
 SCF Done:  E(RB3LYP) =  -1654.63221287     A.U. after   12 cycles
 SCF Done:  E(RB3LYP) =  -1654.63221670     A.U. after   12 cycles
 SCF Done:  E(RB3LYP) =  -1654.63221683     A.U. after    9 cycles
 Optimization completed.
    -- Stationary point found.

                         Standard orientation:
 ---------------------------------------------------------------------
 Center     Atomic      Atomic             Coordinates (Angstroms)
 Number     Number       Type             X           Y           Z
 ---------------------------------------------------------------------
      1          6           0        3.826245    0.361890    0.329383
      2          6           0        2.483117    0.809723    0.495389
      3          6           0        1.557081   -0.073246   -0.005797
      4          6           0        3.918745   -0.858372   -0.280499
      5         16           0        2.349964   -1.474080   -0.685193
      6          1           0        4.813218   -1.412229   -0.515712
      7          6           0        0.107062    0.019932    0.022234
      8         16           0       -0.686512    1.508657   -0.515714
      9          6           0       -2.258500    0.813816   -0.230085
     10          6           0       -2.140970   -0.495439    0.219973
     11          6           0       -0.803243   -0.950256    0.362034
     12          1           0       -0.512123   -1.928348    0.719385
     13         16           0       -3.714174   -1.189604    0.508544
     14          6           0       -4.487315    0.299285    0.015173
     15          6           0       -3.601124    1.272891   -0.346490
     16          1           0       -5.565051    0.357029    0.022055
     17          1           0       -3.897054    2.257849   -0.679645
     18          1           0        2.208816    1.733920    0.989697
     19          8           0        4.935449    1.046661    0.743312
     20          1           0        4.673546    1.897570    1.107656
 ---------------------------------------------------------------------

 The electronic state is 1-A.
 Alpha  occ. eigenvalues --  -88.88756 -88.88741 -88.88573 -19.16540 -10.24634
 Alpha  occ. eigenvalues --  -10.22796 -10.22653 -10.21529 -10.21472 -10.21350
 Alpha  occ. eigenvalues --  -10.19730 -10.19707 -10.19653 -10.19122  -7.97326
 Alpha  occ. eigenvalues --   -7.97315  -7.97160  -5.93646  -5.93627  -5.93464
 Alpha  occ. eigenvalues --   -5.93284  -5.93262  -5.93088  -5.92864  -5.92853
 Alpha  occ. eigenvalues --   -5.92734  -1.07538  -0.92057  -0.89457  -0.85277
 Alpha  occ. eigenvalues --   -0.77598  -0.76361  -0.74495  -0.71765  -0.70620
 Alpha  occ. eigenvalues --   -0.63189  -0.58782  -0.57935  -0.55601  -0.54645
 Alpha  occ. eigenvalues --   -0.53527  -0.50120  -0.48505  -0.44168  -0.43790
 Alpha  occ. eigenvalues --   -0.43305  -0.42039  -0.41809  -0.40170  -0.39771
 Alpha  occ. eigenvalues --   -0.38052  -0.37514  -0.36612  -0.35482  -0.34558
 Alpha  occ. eigenvalues --   -0.34012  -0.29488  -0.26574  -0.24470  -0.23865
 Alpha  occ. eigenvalues --   -0.21372
 Alpha virt. eigenvalues --   -0.06081  -0.02365  -0.01624  -0.00747  -0.00481
 Alpha virt. eigenvalues --    0.00239   0.00878   0.01519   0.01768   0.02200
 Alpha virt. eigenvalues --    0.03149   0.03489   0.03675   0.04057   0.04293

 Mulliken charges:
               1
     1  C   -0.612137
     2  C    0.129176
     3  C    0.214633
     4  C    0.290201
     5  S   -0.248701
     6  H    0.160735
     7  C   -0.057014
     8  S   -0.525222
     9  C    0.208668
    10  C   -0.661807
    11  C    0.879616
    12  H    0.143180
    13  S   -0.386775
    14  C   -0.205469
    15  C    0.262858
    16  H    0.168364
    17  H    0.136172
    18  H    0.124418
    19  O   -0.273196
    20  H    0.252298
 Sum of Mulliken charges =  -0.00000

 Dipole moment (field-independent basis, Debye):
    X=             -1.0762    Y=              1.3658    Z=              0.6410  Tot=              1.8532
 Quadrupole moment (field-independent basis, Debye-Ang):
   XX=            -97.8217   YY=            -94.1087   ZZ=           -105.9845
   XY=              0.2466   XZ=              2.1992   YZ=              1.7988

 Normal termination of Gaussian 16 at Sun Oct 17 19:55:18 2021.
