 Gaussian 16, Revision C.01,
 Gaussian 16:  ES64L-G16RevC.01  3-Jul-2019

 -------------------------------------
 # opt=modredundant b3lyp/6-311+g(d,p)
 -------------------------------------

 ---------------
 pg2T_TT_165.pdb
 ---------------
 Symbolic Z-matrix:
 Charge =  0 Multiplicity = 1

 SCF Done:  E(RB3LYP) =  -1654.46257199     A.U. after   16 cycles
 SCF Done:  E(RB3LYP) =  -1654.52733595     A.U. after   15 cycles
 SCF Done:  E(RB3LYP) =  -1654.60781644     A.U. after   15 cycles
 SCF Done:  E(RB3LYP) =  -1654.62238723     A.U. after   15 cycles
 SCF Done:  E(RB3LYP) =  -1654.62896119     A.U. after   14 cycles
 SCF Done:  E(RB3LYP) =  -1654.63027998     A.U. after   14 cycles
 SCF Done:  E(RB3LYP) =  -1654.63101332     A.U. after   13 cycles
 SCF Done:  E(RB3LYP) =  -1654.63103142     A.U. after   13 cycles
 SCF Done:  E(RB3LYP) =  -1654.63119771     A.U. after   12 cycles
 SCF Done:  E(RB3LYP) =  -1654.63122561     A.U. after   11 cycles
 SCF Done:  E(RB3LYP) =  -1654.63122862     A.U. after   11 cycles
 SCF Done:  E(RB3LYP) =  -1654.63123127     A.U. after   10 cycles
 SCF Done:  E(RB3LYP) =  -1654.63123141     A.U. after    9 cycles
 Optimization completed.
    -- Stationary point found.

                         Standard orientation:
 ---------------------------------------------------------------------
 Center     Atomic      Atomic             Coordinates (Angstroms)
 Number     Number       Type             X           Y           Z
 ---------------------------------------------------------------------
      1          6           0        3.761542    0.778822   -0.066838
      2          6           0        2.378617    1.098027   -0.175751
      3          6           0        1.556784    0.002875   -0.026266
      4          6           0        3.996127   -0.548279    0.163990
      5         16           0        2.510087   -1.433508    0.269523
      6          1           0        4.946547   -1.044749    0.272394
      7          6           0        0.107679   -0.022763   -0.035158
      8         16           0       -0.778223   -1.544686   -0.221764
      9          6           0       -2.304245   -0.712783   -0.107748
     10          6           0       -2.107673    0.653285    0.050189
     11          6           0       -0.747020    1.047875    0.099748
     12          1           0       -0.405220    2.061644    0.253926
     13         16           0       -3.637100    1.483587    0.165432
     14          6           0       -4.497915   -0.029808   -0.005036
     15          6           0       -3.670535   -1.107918   -0.139887
     16          1           0       -5.577078   -0.022565    0.005322
     17          1           0       -4.024090   -2.122954   -0.255444
     18          1           0        2.008948    2.094011   -0.385951
     19          8           0        4.783617    1.679506   -0.186293
     20          1           0        4.425565    2.556279   -0.354416
 ---------------------------------------------------------------------

 The electronic state is 1-A.
 Alpha  occ. eigenvalues --  -88.88802 -88.88789 -88.88602 -19.16597 -10.24690
 Alpha  occ. eigenvalues --  -10.23015 -10.22853 -10.21613 -10.21550 -10.21380
 Alpha  occ. eigenvalues --  -10.19773 -10.19750 -10.19700 -10.19088  -7.97376
 Alpha  occ. eigenvalues --   -7.97372  -7.97202  -5.93696  -5.93689  -5.93510
 Alpha  occ. eigenvalues --   -5.93334  -5.93324  -5.93133  -5.92923  -5.92890
 Alpha  occ. eigenvalues --   -5.92766  -1.07602  -0.92157  -0.89518  -0.85337
 Alpha  occ. eigenvalues --   -0.77806  -0.76376  -0.74626  -0.71785  -0.70640
 Alpha  occ. eigenvalues --   -0.63334  -0.59097  -0.57897  -0.55257  -0.54941
 Alpha  occ. eigenvalues --   -0.53745  -0.50313  -0.48590  -0.44213  -0.43798
 Alpha  occ. eigenvalues --   -0.43282  -0.42024  -0.41487  -0.40498  -0.39551
 Alpha  occ. eigenvalues --   -0.38183  -0.37674  -0.37237  -0.35894  -0.34371
 Alpha  occ. eigenvalues --   -0.33902  -0.29700  -0.26991  -0.24807  -0.23852
 Alpha  occ. eigenvalues --   -0.20664
 Alpha virt. eigenvalues --   -0.06875  -0.02447  -0.01553  -0.00946  -0.00417
 Alpha virt. eigenvalues --    0.00472   0.01432   0.01707   0.01833   0.02686
 Alpha virt. eigenvalues --    0.02835   0.03291   0.04038   0.04222   0.04754

 Mulliken charges:
               1
     1  C   -0.661592
     2  C    0.702638
     3  C    0.084279
     4  C    0.389344
     5  S   -0.479980
     6  H    0.157692
     7  C   -0.014351
     8  S   -0.554849
     9  C    0.328917
    10  C    0.290623
    11  C    0.007894
    12  H    0.126436
    13  S   -0.407458
    14  C   -0.141837
    15  C   -0.225713
    16  H    0.168813
    17  H    0.136227
    18  H    0.112384
    19  O   -0.271458
    20  H    0.251991
 Sum of Mulliken charges =  -0.00000

 Dipole moment (field-independent basis, Debye):
    X=             -1.2542    Y=              1.3492    Z=             -0.2373  Tot=              1.8573
 Quadrupole moment (field-independent basis, Debye-Ang):
   XX=            -98.0418   YY=            -91.6217   ZZ=           -108.5049
   XY=              5.6160   XZ=             -0.2391   YZ=             -0.9674

 Normal termination of Gaussian 16 at Sun Oct 17 20:01:36 2021.
