 Gaussian 16, Revision C.01,
 Gaussian 16:  ES64L-G16RevC.01  3-Jul-2019

 -------------------------------------
 # opt=modredundant b3lyp/6-311+g(d,p)
 -------------------------------------

 ---------------
 pg2T_TT_140.pdb
 ---------------
 Symbolic Z-matrix:
 Charge =  0 Multiplicity = 1

 SCF Done:  E(RB3LYP) =  -1654.46241852     A.U. after   17 cycles
 SCF Done:  E(RB3LYP) =  -1654.52734729     A.U. after   14 cycles
 SCF Done:  E(RB3LYP) =  -1654.60806263     A.U. after   15 cycles
 SCF Done:  E(RB3LYP) =  -1654.62283842     A.U. after   15 cycles
 SCF Done:  E(RB3LYP) =  -1654.62951783     A.U. after   14 cycles
 SCF Done:  E(RB3LYP) =  -1654.63090928     A.U. after   14 cycles
 SCF Done:  E(RB3LYP) =  -1654.63164868     A.U. after   13 cycles
 SCF Done:  E(RB3LYP) =  -1654.63164780     A.U. after   14 cycles
 SCF Done:  E(RB3LYP) =  -1654.63177406     A.U. after   12 cycles
 SCF Done:  E(RB3LYP) =  -1654.63179767     A.U. after   11 cycles
 SCF Done:  E(RB3LYP) =  -1654.63180529     A.U. after   11 cycles
 SCF Done:  E(RB3LYP) =  -1654.63185002     A.U. after   11 cycles
 SCF Done:  E(RB3LYP) =  -1654.63180805     A.U. after   10 cycles
 Optimization completed.
    -- Stationary point found.

                         Standard orientation:
 ---------------------------------------------------------------------
 Center     Atomic      Atomic             Coordinates (Angstroms)
 Number     Number       Type             X           Y           Z
 ---------------------------------------------------------------------
      1          6           0        3.762138    0.739361   -0.191735
      2          6           0        2.378057    1.034549   -0.360526
      3          6           0        1.556587    0.005557    0.035342
      4          6           0        3.991663   -0.509266    0.315388
      5         16           0        2.503223   -1.343696    0.619466
      6          1           0        4.942050   -0.974310    0.521465
      7          6           0        0.105685   -0.024873    0.017101
      8         16           0       -0.763669   -1.489031   -0.466830
      9          6           0       -2.296499   -0.688994   -0.253929
     10          6           0       -2.111860    0.629510    0.143246
     11          6           0       -0.753532    1.008571    0.304120
     12          1           0       -0.413026    1.976370    0.644902
     13         16           0       -3.647763    1.426507    0.359785
     14          6           0       -4.496055   -0.034768   -0.092419
     15          6           0       -3.660518   -1.073149   -0.388572
     16          1           0       -5.575165   -0.029485   -0.110849
     17          1           0       -4.006063   -2.053143   -0.686729
     18          1           0        2.002472    1.955350   -0.789736
     19          8           0        4.787067    1.586563   -0.511906
     20          1           0        4.430544    2.413239   -0.850635
 ---------------------------------------------------------------------

 The electronic state is 1-A.
 Alpha  occ. eigenvalues --  -88.88771 -88.88747 -88.88556 -19.16581 -10.24654
 Alpha  occ. eigenvalues --  -10.22843 -10.22700 -10.21552 -10.21492 -10.21360
 Alpha  occ. eigenvalues --  -10.19749 -10.19737 -10.19661 -10.19132  -7.97345
 Alpha  occ. eigenvalues --   -7.97321  -7.97149  -5.93658  -5.93641  -5.93453
 Alpha  occ. eigenvalues --   -5.93292  -5.93279  -5.93078  -5.92893  -5.92847
 Alpha  occ. eigenvalues --   -5.92720  -1.07576  -0.92087  -0.89466  -0.85293
 Alpha  occ. eigenvalues --   -0.77709  -0.76311  -0.74534  -0.71774  -0.70622
 Alpha  occ. eigenvalues --   -0.63239  -0.58976  -0.57826  -0.55205  -0.54760
 Alpha  occ. eigenvalues --   -0.53891  -0.50218  -0.48564  -0.44118  -0.43801
 Alpha  occ. eigenvalues --   -0.43242  -0.42014  -0.41588  -0.40399  -0.39674
 Alpha  occ. eigenvalues --   -0.38077  -0.37629  -0.36699  -0.35683  -0.34527
 Alpha  occ. eigenvalues --   -0.33973  -0.29519  -0.26699  -0.24512  -0.23955
 Alpha  occ. eigenvalues --   -0.21138
 Alpha virt. eigenvalues --   -0.06304  -0.02377  -0.01661  -0.00816  -0.00391
 Alpha virt. eigenvalues --    0.00396   0.00973   0.01597   0.01768   0.02560
 Alpha virt. eigenvalues --    0.02960   0.03271   0.04050   0.04211   0.04477

 Mulliken charges:
               1
     1  C   -0.689746
     2  C    0.331622
     3  C    0.286149
     4  C    0.344136
     5  S   -0.359289
     6  H    0.159335
     7  C    0.289042
     8  S   -0.479342
     9  C    0.358340
    10  C    0.134824
    11  C   -0.095518
    12  H    0.132261
    13  S   -0.398303
    14  C   -0.134079
    15  C   -0.281615
    16  H    0.168667
    17  H    0.136735
    18  H    0.117853
    19  O   -0.273029
    20  H    0.251957
 Sum of Mulliken charges =  -0.00000

 Dipole moment (field-independent basis, Debye):
    X=             -1.2251    Y=              1.2838    Z=             -0.5706  Tot=              1.8640
 Quadrupole moment (field-independent basis, Debye-Ang):
   XX=            -98.1782   YY=            -93.3096   ZZ=           -106.7264
   XY=              5.3569   XZ=              0.1121   YZ=             -1.5599

 Normal termination of Gaussian 16 at Sun Oct 17 19:56:20 2021.
