 Gaussian 16, Revision C.01,
 Gaussian 16:  ES64L-G16RevC.01  3-Jul-2019

 -------------------------------------
 # opt=modredundant b3lyp/6-311+g(d,p)
 -------------------------------------

 --------------
 pg2T_TT_40.pdb
 --------------
 Symbolic Z-matrix:
 Charge =  0 Multiplicity = 1

 SCF Done:  E(RB3LYP) =  -1654.46271326     A.U. after   17 cycles
 SCF Done:  E(RB3LYP) =  -1654.52772897     A.U. after   14 cycles
 SCF Done:  E(RB3LYP) =  -1654.60862791     A.U. after   15 cycles
 SCF Done:  E(RB3LYP) =  -1654.62347742     A.U. after   15 cycles
 SCF Done:  E(RB3LYP) =  -1654.63035601     A.U. after   16 cycles
 SCF Done:  E(RB3LYP) =  -1654.63175765     A.U. after   15 cycles
 SCF Done:  E(RB3LYP) =  -1654.63249509     A.U. after   14 cycles
 SCF Done:  E(RB3LYP) =  -1654.63247418     A.U. after   14 cycles
 SCF Done:  E(RB3LYP) =  -1654.63275825     A.U. after   12 cycles
 SCF Done:  E(RB3LYP) =  -1654.63276772     A.U. after   12 cycles
 SCF Done:  E(RB3LYP) =  -1654.63277185     A.U. after   11 cycles
 SCF Done:  E(RB3LYP) =  -1654.63277499     A.U. after   11 cycles
 SCF Done:  E(RB3LYP) =  -1654.63277522     A.U. after    9 cycles
 Optimization completed.
    -- Stationary point found.

                         Standard orientation:
 ---------------------------------------------------------------------
 Center     Atomic      Atomic             Coordinates (Angstroms)
 Number     Number       Type             X           Y           Z
 ---------------------------------------------------------------------
      1          6           0        3.824059    0.386449    0.272531
      2          6           0        2.480114    0.842787    0.402527
      3          6           0        1.554510   -0.089309   -0.003627
      4          6           0        3.919421   -0.885535   -0.219497
      5         16           0        2.351171   -1.542945   -0.557702
      6          1           0        4.814610   -1.456921   -0.404337
      7          6           0        0.107131    0.006433    0.009884
      8         16           0       -0.675266    1.529916   -0.439645
      9          6           0       -2.252738    0.831215   -0.194690
     10          6           0       -2.145141   -0.502372    0.179946
     11          6           0       -0.811448   -0.973752    0.298528
     12          1           0       -0.529494   -1.971160    0.606519
     13         16           0       -3.723833   -1.200282    0.426294
     14          6           0       -4.485408    0.319856    0.017288
     15          6           0       -3.591330    1.305918   -0.287522
     16          1           0       -5.562679    0.385086    0.026269
     17          1           0       -3.879456    2.310365   -0.564586
     18          1           0        2.206091    1.808698    0.809352
     19          8           0        4.931949    1.112213    0.613061
     20          1           0        4.667151    1.989058    0.906936
 ---------------------------------------------------------------------

 The electronic state is 1-A.
 Alpha  occ. eigenvalues --  -88.88788 -88.88761 -88.88578 -19.16552 -10.24654
 Alpha  occ. eigenvalues --  -10.22866 -10.22718 -10.21561 -10.21505 -10.21363
 Alpha  occ. eigenvalues --  -10.19740 -10.19715 -10.19675 -10.19110  -7.97361
 Alpha  occ. eigenvalues --   -7.97334  -7.97169  -5.93683  -5.93647  -5.93475
 Alpha  occ. eigenvalues --   -5.93321  -5.93281  -5.93099  -5.92885  -5.92883
 Alpha  occ. eigenvalues --   -5.92737  -1.07556  -0.92097  -0.89479  -0.85307
 Alpha  occ. eigenvalues --   -0.77638  -0.76422  -0.74530  -0.71780  -0.70631
 Alpha  occ. eigenvalues --   -0.63244  -0.58831  -0.57973  -0.55664  -0.54704
 Alpha  occ. eigenvalues --   -0.53434  -0.50150  -0.48527  -0.44215  -0.43807
 Alpha  occ. eigenvalues --   -0.43293  -0.42034  -0.41848  -0.40160  -0.39794
 Alpha  occ. eigenvalues --   -0.38079  -0.37558  -0.36769  -0.35563  -0.34575
 Alpha  occ. eigenvalues --   -0.33998  -0.29532  -0.26754  -0.24472  -0.24016
 Alpha  occ. eigenvalues --   -0.21109
 Alpha virt. eigenvalues --   -0.06362  -0.02095  -0.01603  -0.00793  -0.00488
 Alpha virt. eigenvalues --    0.00399   0.00918   0.01527   0.01775   0.02197
 Alpha virt. eigenvalues --    0.03138   0.03481   0.03728   0.04034   0.04330

 Mulliken charges:
               1
     1  C   -0.697033
     2  C    0.309945
     3  C    0.299252
     4  C    0.360808
     5  S   -0.376545
     6  H    0.160099
     7  C    0.339144
     8  S   -0.491333
     9  C    0.386639
    10  C    0.093891
    11  C   -0.129311
    12  H    0.143875
    13  S   -0.402123
    14  C   -0.139833
    15  C   -0.264881
    16  H    0.168503
    17  H    0.136340
    18  H    0.124043
    19  O   -0.273483
    20  H    0.252003
 Sum of Mulliken charges =  -0.00000

 Dipole moment (field-independent basis, Debye):
    X=             -1.0946    Y=              1.4173    Z=              0.5395  Tot=              1.8702
 Quadrupole moment (field-independent basis, Debye-Ang):
   XX=            -97.8240   YY=            -93.1882   ZZ=           -106.9551
   XY=              0.2580   XZ=              1.7614   YZ=              1.4883

 Normal termination of Gaussian 16 at Sun Oct 17 19:54:44 2021.
