 Gaussian 16, Revision C.01,
 Gaussian 16:  ES64L-G16RevC.01  3-Jul-2019

 -------------------------------------
 # opt=modredundant b3lyp/6-311+g(d,p)
 -------------------------------------

 ----------------
 pg2T_TT_-175.pdb
 ----------------
 Symbolic Z-matrix:
 Charge =  0 Multiplicity = 1

 SCF Done:  E(RB3LYP) =  -1654.46198471     A.U. after   17 cycles
 SCF Done:  E(RB3LYP) =  -1654.52675325     A.U. after   15 cycles
 SCF Done:  E(RB3LYP) =  -1654.60723622     A.U. after   15 cycles
 SCF Done:  E(RB3LYP) =  -1654.62182273     A.U. after   15 cycles
 SCF Done:  E(RB3LYP) =  -1654.62843295     A.U. after   14 cycles
 SCF Done:  E(RB3LYP) =  -1654.62982861     A.U. after   14 cycles
 SCF Done:  E(RB3LYP) =  -1654.63057831     A.U. after   12 cycles
 SCF Done:  E(RB3LYP) =  -1654.63059552     A.U. after   13 cycles
 SCF Done:  E(RB3LYP) =  -1654.63078012     A.U. after   12 cycles
 SCF Done:  E(RB3LYP) =  -1654.63080357     A.U. after   12 cycles
 SCF Done:  E(RB3LYP) =  -1654.63080503     A.U. after   10 cycles
 SCF Done:  E(RB3LYP) =  -1654.63080685     A.U. after   10 cycles
 SCF Done:  E(RB3LYP) =  -1654.63080701     A.U. after    9 cycles
 SCF Done:  E(RB3LYP) =  -1654.63080704     A.U. after    9 cycles
 Optimization completed.
    -- Stationary point found.

                         Standard orientation:
 ---------------------------------------------------------------------
 Center     Atomic      Atomic             Coordinates (Angstroms)
 Number     Number       Type             X           Y           Z
 ---------------------------------------------------------------------
      1          6           0        3.760788    0.787988    0.021374
      2          6           0        2.376130    1.113303    0.064891
      3          6           0        1.556776    0.006472    0.015679
      4          6           0        4.001113   -0.555415   -0.062207
      5         16           0        2.517923   -1.450699   -0.096394
      6          1           0        4.953392   -1.058280   -0.103386
      7          6           0        0.107390   -0.022802    0.018440
      8         16           0       -0.778633   -1.555134    0.081906
      9          6           0       -2.305213   -0.718113    0.037730
     10          6           0       -2.109430    0.655998   -0.016020
     11          6           0       -0.749520    1.054130   -0.030363
     12          1           0       -0.411507    2.079265   -0.085489
     13         16           0       -3.639608    1.491936   -0.060017
     14          6           0       -4.499321   -0.030661   -0.003342
     15          6           0       -3.671010   -1.115496    0.045165
     16          1           0       -5.578504   -0.023379   -0.009639
     17          1           0       -4.023785   -2.136613    0.083978
     18          1           0        2.004602    2.127519    0.142711
     19          8           0        4.779611    1.699154    0.061481
     20          1           0        4.417772    2.588179    0.123979
 ---------------------------------------------------------------------

 The electronic state is 1-A.
 Alpha  occ. eigenvalues --  -88.88809 -88.88799 -88.88614 -19.16598 -10.24694
 Alpha  occ. eigenvalues --  -10.23063 -10.22900 -10.21625 -10.21563 -10.21384
 Alpha  occ. eigenvalues --  -10.19780 -10.19757 -10.19709 -10.19087  -7.97384
 Alpha  occ. eigenvalues --   -7.97383  -7.97218  -5.93709  -5.93696  -5.93527
 Alpha  occ. eigenvalues --   -5.93347  -5.93331  -5.93150  -5.92929  -5.92900
 Alpha  occ. eigenvalues --   -5.92779  -1.07607  -0.92172  -0.89531  -0.85347
 Alpha  occ. eigenvalues --   -0.77828  -0.76388  -0.74648  -0.71786  -0.70648
 Alpha  occ. eigenvalues --   -0.63355  -0.59126  -0.57918  -0.55282  -0.54978
 Alpha  occ. eigenvalues --   -0.53713  -0.50338  -0.48599  -0.44239  -0.43785
 Alpha  occ. eigenvalues --   -0.43310  -0.42026  -0.41471  -0.40514  -0.39499
 Alpha  occ. eigenvalues --   -0.38208  -0.37631  -0.37460  -0.35925  -0.34311
 Alpha  occ. eigenvalues --   -0.33892  -0.29754  -0.27059  -0.24874  -0.23805
 Alpha  occ. eigenvalues --   -0.20563
 Alpha virt. eigenvalues --   -0.07001  -0.02520  -0.01506  -0.00989  -0.00432
 Alpha virt. eigenvalues --    0.00479   0.01473   0.01746   0.01956   0.02633
 Alpha virt. eigenvalues --    0.02839   0.03340   0.03992   0.04222   0.04848

 Mulliken charges:
               1
     1  C   -0.686635
     2  C    0.872019
     3  C    0.045658
     4  C    0.376343
     5  S   -0.524510
     6  H    0.157500
     7  C   -0.217604
     8  S   -0.599007
     9  C    0.292540
    10  C    0.311836
    11  C    0.143158
    12  H    0.124006
    13  S   -0.410794
    14  C   -0.150820
    15  C   -0.128807
    16  H    0.169010
    17  H    0.135859
    18  H    0.109472
    19  O   -0.271522
    20  H    0.252296
 Sum of Mulliken charges =  -0.00000

 Dipole moment (field-independent basis, Debye):
    X=             -1.2644    Y=              1.3668    Z=              0.0818  Tot=              1.8637
 Quadrupole moment (field-independent basis, Debye-Ang):
   XX=            -98.0802   YY=            -91.2257   ZZ=           -108.8960
   XY=              5.6200   XZ=              0.1213   YZ=              0.3836

 Normal termination of Gaussian 16 at Sun Oct 17 19:31:14 2021.
