 Gaussian 16, Revision C.01,
 Gaussian 16:  ES64L-G16RevC.01  3-Jul-2019

 -------------------------------------
 # opt=modredundant b3lyp/6-311+g(d,p)
 -------------------------------------

 ----------------
 pg2T_TT_-145.pdb
 ----------------
 Symbolic Z-matrix:
 Charge =  0 Multiplicity = 1

 SCF Done:  E(RB3LYP) =  -1654.46187149     A.U. after   17 cycles
 SCF Done:  E(RB3LYP) =  -1654.52681563     A.U. after   14 cycles
 SCF Done:  E(RB3LYP) =  -1654.60754453     A.U. after   15 cycles
 SCF Done:  E(RB3LYP) =  -1654.62244164     A.U. after   15 cycles
 SCF Done:  E(RB3LYP) =  -1654.62941395     A.U. after   14 cycles
 SCF Done:  E(RB3LYP) =  -1654.63087042     A.U. after   14 cycles
 SCF Done:  E(RB3LYP) =  -1654.63160752     A.U. after   13 cycles
 SCF Done:  E(RB3LYP) =  -1654.63156570     A.U. after   13 cycles
 SCF Done:  E(RB3LYP) =  -1654.63183754     A.U. after   12 cycles
 SCF Done:  E(RB3LYP) =  -1654.63185220     A.U. after   11 cycles
 SCF Done:  E(RB3LYP) =  -1654.63185761     A.U. after   11 cycles
 SCF Done:  E(RB3LYP) =  -1654.63186092     A.U. after   11 cycles
 SCF Done:  E(RB3LYP) =  -1654.63186116     A.U. after    9 cycles
 Optimization completed.
    -- Stationary point found.

                         Standard orientation:
 ---------------------------------------------------------------------
 Center     Atomic      Atomic             Coordinates (Angstroms)
 Number     Number       Type             X           Y           Z
 ---------------------------------------------------------------------
      1          6           0        3.762341    0.749015    0.166034
      2          6           0        2.379007    1.049249    0.329087
      3          6           0        1.556578    0.003051   -0.018507
      4          6           0        3.991514   -0.519023   -0.290767
      5         16           0        2.502712   -1.366470   -0.554543
      6          1           0        4.941386   -0.991700   -0.481025
      7          6           0        0.106431   -0.024347   -0.001929
      8         16           0       -0.768321   -1.502958    0.424808
      9          6           0       -2.298774   -0.694644    0.226639
     10          6           0       -2.109832    0.636091   -0.125089
     11          6           0       -0.750343    1.018557   -0.263361
     12          1           0       -0.407742    1.996330   -0.571951
     13         16           0       -3.643398    1.441818   -0.325454
     14          6           0       -4.496367   -0.032843    0.071355
     15          6           0       -3.663864   -1.081296    0.339625
     16          1           0       -5.575569   -0.027011    0.081719
     17          1           0       -4.012409   -2.070187    0.602858
     18          1           0        2.005628    1.987047    0.721757
     19          8           0        4.787613    1.609581    0.446803
     20          1           0        4.431758    2.447770    0.756723
 ---------------------------------------------------------------------

 The electronic state is 1-A.
 Alpha  occ. eigenvalues --  -88.88778 -88.88759 -88.88567 -19.16586 -10.24664
 Alpha  occ. eigenvalues --  -10.22878 -10.22729 -10.21566 -10.21505 -10.21364
 Alpha  occ. eigenvalues --  -10.19753 -10.19738 -10.19669 -10.19119  -7.97352
 Alpha  occ. eigenvalues --   -7.97334  -7.97161  -5.93665  -5.93655  -5.93466
 Alpha  occ. eigenvalues --   -5.93300  -5.93293  -5.93090  -5.92900  -5.92859
 Alpha  occ. eigenvalues --   -5.92730  -1.07583  -0.92104  -0.89477  -0.85304
 Alpha  occ. eigenvalues --   -0.77731  -0.76327  -0.74554  -0.71778  -0.70624
 Alpha  occ. eigenvalues --   -0.63261  -0.59002  -0.57839  -0.55210  -0.54804
 Alpha  occ. eigenvalues --   -0.53858  -0.50237  -0.48569  -0.44137  -0.43806
 Alpha  occ. eigenvalues --   -0.43242  -0.42016  -0.41565  -0.40424  -0.39656
 Alpha  occ. eigenvalues --   -0.38100  -0.37645  -0.36789  -0.35740  -0.34505
 Alpha  occ. eigenvalues --   -0.33957  -0.29553  -0.26764  -0.24578  -0.23946
 Alpha  occ. eigenvalues --   -0.21026
 Alpha virt. eigenvalues --   -0.06433  -0.02346  -0.01653  -0.00840  -0.00395
 Alpha virt. eigenvalues --    0.00422   0.01071   0.01605   0.01772   0.02601
 Alpha virt. eigenvalues --    0.02925   0.03279   0.04054   0.04209   0.04510

 Mulliken charges:
               1
     1  C   -0.687118
     2  C    0.385872
     3  C    0.251905
     4  C    0.355698
     5  S   -0.381077
     6  H    0.159041
     7  C    0.253953
     8  S   -0.492458
     9  C    0.358946
    10  C    0.153315
    11  C   -0.078078
    12  H    0.131623
    13  S   -0.399701
    14  C   -0.134239
    15  C   -0.279859
    16  H    0.168696
    17  H    0.136663
    18  H    0.117463
    19  O   -0.272482
    20  H    0.251839
 Sum of Mulliken charges =  -0.00000

 Dipole moment (field-independent basis, Debye):
    X=             -1.2305    Y=              1.2978    Z=              0.5085  Tot=              1.8594
 Quadrupole moment (field-independent basis, Debye-Ang):
   XX=            -98.1283   YY=            -92.9171   ZZ=           -107.1467
   XY=              5.4350   XZ=             -0.0097   YZ=              1.4914

 Normal termination of Gaussian 16 at Sun Oct 17 19:32:03 2021.
