 Gaussian 16, Revision C.01,
 Gaussian 16:  ES64L-G16RevC.01  3-Jul-2019

 -------------------------------------
 # opt=modredundant b3lyp/6-311+g(d,p)
 -------------------------------------

 --------------
 pg2T_TT_65.pdb
 --------------
 Symbolic Z-matrix:
 Charge =  0 Multiplicity = 1

 SCF Done:  E(RB3LYP) =  -1654.46056615     A.U. after   17 cycles
 SCF Done:  E(RB3LYP) =  -1654.52563086     A.U. after   14 cycles
 SCF Done:  E(RB3LYP) =  -1654.60652389     A.U. after   16 cycles
 SCF Done:  E(RB3LYP) =  -1654.62134698     A.U. after   15 cycles
 SCF Done:  E(RB3LYP) =  -1654.62824770     A.U. after   14 cycles
 SCF Done:  E(RB3LYP) =  -1654.62969447     A.U. after   14 cycles
 SCF Done:  E(RB3LYP) =  -1654.63045327     A.U. after   13 cycles
 SCF Done:  E(RB3LYP) =  -1654.63042541     A.U. after   14 cycles
 SCF Done:  E(RB3LYP) =  -1654.63081607     A.U. after   12 cycles
 SCF Done:  E(RB3LYP) =  -1654.63082366     A.U. after   12 cycles
 SCF Done:  E(RB3LYP) =  -1654.63083023     A.U. after   12 cycles
 SCF Done:  E(RB3LYP) =  -1654.63083485     A.U. after   11 cycles
 SCF Done:  E(RB3LYP) =  -1654.63083496     A.U. after    9 cycles
 Optimization completed.
    -- Stationary point found.

                         Standard orientation:
 ---------------------------------------------------------------------
 Center     Atomic      Atomic             Coordinates (Angstroms)
 Number     Number       Type             X           Y           Z
 ---------------------------------------------------------------------
      1          6           0        3.828720    0.307396    0.421557
      2          6           0        2.484779    0.724244    0.653392
      3          6           0        1.561253   -0.052017   -0.001692
      4          6           0        3.922044   -0.787630   -0.391935
      5         16           0        2.355025   -1.320381   -0.903407
      6          1           0        4.817504   -1.294142   -0.714451
      7          6           0        0.106086    0.037323    0.037644
      8         16           0       -0.704584    1.473631   -0.607475
      9          6           0       -2.268000    0.783793   -0.271769
     10          6           0       -2.135925   -0.486676    0.274960
     11          6           0       -0.792256   -0.915611    0.445523
     12          1           0       -0.488100   -1.865842    0.862316
     13         16           0       -3.700967   -1.175559    0.616139
     14          6           0       -4.490994    0.263681    0.014443
     15          6           0       -3.616489    1.217746   -0.419529
     16          1           0       -5.569347    0.309515    0.018299
     17          1           0       -3.923821    2.171764   -0.824619
     18          1           0        2.207467    1.553351    1.293280
     19          8           0        4.936836    0.905641    0.956019
     20          1           0        4.674724    1.683668    1.457357
 ---------------------------------------------------------------------

 The electronic state is 1-A.
 Alpha  occ. eigenvalues --  -88.88722 -88.88689 -88.88535 -19.16517 -10.24592
 Alpha  occ. eigenvalues --  -10.22689 -10.22555 -10.21488 -10.21425 -10.21342
 Alpha  occ. eigenvalues --  -10.19721 -10.19716 -10.19627 -10.19150  -7.97296
 Alpha  occ. eigenvalues --   -7.97255  -7.97120  -5.93608  -5.93573  -5.93421
 Alpha  occ. eigenvalues --   -5.93243  -5.93210  -5.93045  -5.92845  -5.92787
 Alpha  occ. eigenvalues --   -5.92699  -1.07506  -0.92003  -0.89411  -0.85235
 Alpha  occ. eigenvalues --   -0.77546  -0.76264  -0.74431  -0.71745  -0.70611
 Alpha  occ. eigenvalues --   -0.63102  -0.58711  -0.57883  -0.55506  -0.54546
 Alpha  occ. eigenvalues --   -0.53699  -0.50086  -0.48473  -0.44090  -0.43744
 Alpha  occ. eigenvalues --   -0.43337  -0.42050  -0.41759  -0.40180  -0.39746
 Alpha  occ. eigenvalues --   -0.37997  -0.37453  -0.36414  -0.35353  -0.34521
 Alpha  occ. eigenvalues --   -0.34013  -0.29427  -0.26288  -0.24421  -0.23576
 Alpha  occ. eigenvalues --   -0.21871
 Alpha virt. eigenvalues --   -0.05599  -0.02937  -0.01608  -0.00696  -0.00442
 Alpha virt. eigenvalues --    0.00062   0.00837   0.01533   0.01752   0.02218
 Alpha virt. eigenvalues --    0.03117   0.03410   0.03735   0.04088   0.04282

 Mulliken charges:
               1
     1  C   -0.504356
     2  C   -0.035846
     3  C    0.140382
     4  C    0.217887
     5  S   -0.141425
     6  H    0.161177
     7  C    0.054616
     8  S   -0.459669
     9  C    0.193535
    10  C   -0.573272
    11  C    0.698772
    12  H    0.142053
    13  S   -0.378997
    14  C   -0.204809
    15  C    0.283795
    16  H    0.168317
    17  H    0.136340
    18  H    0.124209
    19  O   -0.275892
    20  H    0.253183
 Sum of Mulliken charges =  -0.00000

 Dipole moment (field-independent basis, Debye):
    X=             -1.0696    Y=              1.2311    Z=              0.8412  Tot=              1.8350
 Quadrupole moment (field-independent basis, Debye-Ang):
   XX=            -97.8495   YY=            -96.0291   ZZ=           -103.9854
   XY=              0.0939   XZ=              2.9796   YZ=              2.2510

 Normal termination of Gaussian 16 at Sun Oct 17 19:47:03 2021.
