 Gaussian 16, Revision C.01,
 Gaussian 16:  ES64L-G16RevC.01  3-Jul-2019

 -------------------------------------
 # opt=modredundant b3lyp/6-311+g(d,p)
 -------------------------------------

 ---------------
 pg2T_TT_-65.pdb
 ---------------
 Symbolic Z-matrix:
 Charge =  0 Multiplicity = 1

 SCF Done:  E(RB3LYP) =  -1654.46070351     A.U. after   17 cycles
 SCF Done:  E(RB3LYP) =  -1654.52577426     A.U. after   14 cycles
 SCF Done:  E(RB3LYP) =  -1654.60665427     A.U. after   14 cycles
 SCF Done:  E(RB3LYP) =  -1654.62165584     A.U. after   15 cycles
 SCF Done:  E(RB3LYP) =  -1654.62849460     A.U. after   14 cycles
 SCF Done:  E(RB3LYP) =  -1654.62990160     A.U. after   14 cycles
 SCF Done:  E(RB3LYP) =  -1654.63061416     A.U. after   13 cycles
 SCF Done:  E(RB3LYP) =  -1654.63057179     A.U. after   13 cycles
 SCF Done:  E(RB3LYP) =  -1654.63080743     A.U. after   13 cycles
 SCF Done:  E(RB3LYP) =  -1654.63081650     A.U. after   12 cycles
 SCF Done:  E(RB3LYP) =  -1654.63083390     A.U. after   12 cycles
 SCF Done:  E(RB3LYP) =  -1654.63083592     A.U. after   10 cycles
 SCF Done:  E(RB3LYP) =  -1654.63083608     A.U. after    9 cycles
 Optimization completed.
    -- Stationary point found.

                         Standard orientation:
 ---------------------------------------------------------------------
 Center     Atomic      Atomic             Coordinates (Angstroms)
 Number     Number       Type             X           Y           Z
 ---------------------------------------------------------------------
      1          6           0       -3.828812    0.307226    0.421593
      2          6           0       -2.484937    0.724377    0.653307
      3          6           0       -1.561262   -0.051911   -0.001594
      4          6           0       -3.921943   -0.787753   -0.392028
      5         16           0       -2.354836   -1.320424   -0.903304
      6          1           0       -4.817359   -1.294315   -0.714591
      7          6           0       -0.106103    0.037421    0.037773
      8         16           0        0.704610    1.473805   -0.607251
      9          6           0        2.268007    0.783793   -0.271808
     10          6           0        2.135919   -0.486709    0.274795
     11          6           0        0.792242   -0.915618    0.445384
     12          1           0        0.488108   -1.865940    0.861984
     13         16           0        3.700953   -1.175573    0.616178
     14          6           0        4.490997    0.263569    0.014291
     15          6           0        3.616519    1.217740   -0.419505
     16          1           0        5.569356    0.309339    0.017920
     17          1           0        3.923872    2.171767   -0.824551
     18          1           0       -2.207835    1.553603    1.292986
     19          8           0       -4.937062    0.905548    0.955721
     20          1           0       -4.675066    1.683426    1.457276
 ---------------------------------------------------------------------

 The electronic state is 1-A.
 Alpha  occ. eigenvalues --  -88.88722 -88.88689 -88.88535 -19.16518 -10.24593
 Alpha  occ. eigenvalues --  -10.22689 -10.22555 -10.21488 -10.21425 -10.21342
 Alpha  occ. eigenvalues --  -10.19721 -10.19716 -10.19627 -10.19150  -7.97296
 Alpha  occ. eigenvalues --   -7.97255  -7.97120  -5.93608  -5.93573  -5.93421
 Alpha  occ. eigenvalues --   -5.93243  -5.93210  -5.93045  -5.92845  -5.92787
 Alpha  occ. eigenvalues --   -5.92699  -1.07507  -0.92002  -0.89410  -0.85235
 Alpha  occ. eigenvalues --   -0.77546  -0.76264  -0.74432  -0.71745  -0.70611
 Alpha  occ. eigenvalues --   -0.63103  -0.58711  -0.57883  -0.55506  -0.54547
 Alpha  occ. eigenvalues --   -0.53699  -0.50086  -0.48473  -0.44089  -0.43743
 Alpha  occ. eigenvalues --   -0.43338  -0.42050  -0.41759  -0.40180  -0.39746
 Alpha  occ. eigenvalues --   -0.37996  -0.37454  -0.36415  -0.35353  -0.34521
 Alpha  occ. eigenvalues --   -0.34013  -0.29427  -0.26289  -0.24421  -0.23576
 Alpha  occ. eigenvalues --   -0.21870
 Alpha virt. eigenvalues --   -0.05600  -0.02938  -0.01608  -0.00696  -0.00441
 Alpha virt. eigenvalues --    0.00061   0.00837   0.01533   0.01752   0.02218
 Alpha virt. eigenvalues --    0.03117   0.03411   0.03735   0.04088   0.04282

 Mulliken charges:
               1
     1  C   -0.504477
     2  C   -0.035322
     3  C    0.139952
     4  C    0.217968
     5  S   -0.141591
     6  H    0.161174
     7  C    0.054742
     8  S   -0.459655
     9  C    0.193608
    10  C   -0.572951
    11  C    0.698532
    12  H    0.142055
    13  S   -0.379013
    14  C   -0.204756
    15  C    0.283578
    16  H    0.168314
    17  H    0.136340
    18  H    0.124199
    19  O   -0.275875
    20  H    0.253176
 Sum of Mulliken charges =  -0.00000

 Dipole moment (field-independent basis, Debye):
    X=              1.0695    Y=              1.2308    Z=              0.8413  Tot=              1.8348
 Quadrupole moment (field-independent basis, Debye-Ang):
   XX=            -97.8486   YY=            -96.0293   ZZ=           -103.9851
   XY=             -0.0946   XZ=             -2.9829   YZ=              2.2516

 Normal termination of Gaussian 16 at Sun Oct 17 19:43:35 2021.
