 Gaussian 16, Revision C.01,
 Gaussian 16:  ES64L-G16RevC.01  3-Jul-2019

 -------------------------------------
 # opt=modredundant b3lyp/6-311+g(d,p)
 -------------------------------------

 -------------
 pg2T_TT_0.pdb
 -------------
 Symbolic Z-matrix:
 Charge =  0 Multiplicity = 1

 SCF Done:  E(RB3LYP) =  -1654.46381665     A.U. after   17 cycles
 SCF Done:  E(RB3LYP) =  -1654.52861290     A.U. after   14 cycles
 SCF Done:  E(RB3LYP) =  -1654.60911885     A.U. after   15 cycles
 SCF Done:  E(RB3LYP) =  -1654.62361999     A.U. after   15 cycles
 SCF Done:  E(RB3LYP) =  -1654.63025458     A.U. after   14 cycles
 SCF Done:  E(RB3LYP) =  -1654.63165753     A.U. after   13 cycles
 SCF Done:  E(RB3LYP) =  -1654.63240022     A.U. after   12 cycles
 SCF Done:  E(RB3LYP) =  -1654.63254069     A.U. after   12 cycles
 SCF Done:  E(RB3LYP) =  -1654.63253617     A.U. after   11 cycles
 SCF Done:  E(RB3LYP) =  -1654.63255438     A.U. after   11 cycles
 SCF Done:  E(RB3LYP) =  -1654.63257506     A.U. after   11 cycles
 SCF Done:  E(RB3LYP) =  -1654.63257528     A.U. after    9 cycles
 SCF Done:  E(RB3LYP) =  -1654.63257556     A.U. after    9 cycles
 Optimization completed.
    -- Stationary point found.

                         Standard orientation:
 ---------------------------------------------------------------------
 Center     Atomic      Atomic             Coordinates (Angstroms)
 Number     Number       Type             X           Y           Z
 ---------------------------------------------------------------------
      1          6           0       -3.829478    0.420841    0.000221
      2          6           0       -2.487601    0.899097    0.000079
      3          6           0       -1.551392   -0.109953    0.000055
      4          6           0       -3.918595   -0.942391   -0.000123
      5         16           0       -2.344169   -1.671451   -0.000119
      6          1           0       -4.809501   -1.548943   -0.000347
      7          6           0       -0.108192   -0.002777    0.000143
      8         16           0        0.660357    1.594712    0.000073
      9          6           0        2.246302    0.871623   -0.000186
     10          6           0        2.153173   -0.514003   -0.000081
     11          6           0        0.826034   -1.012877    0.000029
     12          1           0        0.563881   -2.062139   -0.000010
     13         16           0        3.740490   -1.235427    0.000196
     14          6           0        4.485097    0.346901   -0.000137
     15          6           0        3.578691    1.368998   -0.000229
     16          1           0        5.561908    0.419270   -0.000255
     17          1           0        3.855236    2.414068   -0.000385
     18          1           0       -2.229167    1.951242   -0.000040
     19          8           0       -4.941756    1.215887   -0.000109
     20          1           0       -4.679402    2.141339    0.000880
 ---------------------------------------------------------------------

 The electronic state is 1-A.
 Alpha  occ. eigenvalues --  -88.88826 -88.88825 -88.88551 -19.16578 -10.24686
 Alpha  occ. eigenvalues --  -10.23064 -10.22900 -10.21653 -10.21593 -10.21409
 Alpha  occ. eigenvalues --  -10.19790 -10.19786 -10.19742 -10.19135  -7.97411
 Alpha  occ. eigenvalues --   -7.97398  -7.97152  -5.93738  -5.93710  -5.93466
 Alpha  occ. eigenvalues --   -5.93377  -5.93345  -5.93088  -5.92946  -5.92922
 Alpha  occ. eigenvalues --   -5.92705  -1.07591  -0.92190  -0.89516  -0.85370
 Alpha  occ. eigenvalues --   -0.77750  -0.76558  -0.74609  -0.71807  -0.70675
 Alpha  occ. eigenvalues --   -0.63372  -0.58969  -0.58078  -0.55841  -0.54864
 Alpha  occ. eigenvalues --   -0.53239  -0.50245  -0.48574  -0.44329  -0.43821
 Alpha  occ. eigenvalues --   -0.43324  -0.42030  -0.41904  -0.40161  -0.39843
 Alpha  occ. eigenvalues --   -0.37970  -0.37668  -0.37524  -0.35636  -0.34533
 Alpha  occ. eigenvalues --   -0.33940  -0.29645  -0.27234  -0.24536  -0.24182
 Alpha  occ. eigenvalues --   -0.20543
 Alpha virt. eigenvalues --   -0.07027  -0.01669  -0.01590  -0.00946  -0.00549
 Alpha virt. eigenvalues --    0.00810   0.01075   0.01692   0.01847   0.02214
 Alpha virt. eigenvalues --    0.02954   0.03233   0.04042   0.04159   0.04470

 Mulliken charges:
               1
     1  C   -0.647586
     2  C    0.864057
     3  C    0.074637
     4  C    0.278458
     5  S   -0.549664
     6  H    0.159712
     7  C   -0.101673
     8  S   -0.627349
     9  C    0.071175
    10  C    0.471364
    11  C    0.204854
    12  H    0.139079
    13  S   -0.425131
    14  C   -0.168436
    15  C   -0.143958
    16  H    0.169033
    17  H    0.135027
    18  H    0.117616
    19  O   -0.273448
    20  H    0.252233
 Sum of Mulliken charges =  -0.00000

 Dipole moment (field-independent basis, Debye):
    X=              1.1412    Y=              1.4959    Z=              0.0013  Tot=              1.8815
 Quadrupole moment (field-independent basis, Debye-Ang):
   XX=            -97.6578   YY=            -91.3498   ZZ=           -108.9920
   XY=             -0.4985   XZ=             -0.0077   YZ=              0.0041

 Normal termination of Gaussian 16 at Sun Oct 17 19:45:24 2021.
