 Gaussian 16, Revision A.03,
 Gaussian 16:  ES64L-G16RevA.03 25-Dec-2016

 -----------------------------------
 #p opt b3lyp/6-311g(d,p) pop=chelpg
 -----------------------------------

 -------------------
 OBT_2m_opt_freq.gjf
 -------------------
 Symbolic Z-matrix:
 Charge =  0 Multiplicity = 1

 SCF Done:  E(RB3LYP) =  -1334.00579580     A.U. after   15 cycles
 SCF Done:  E(RB3LYP) =  -1334.03399478     A.U. after   13 cycles
 SCF Done:  E(RB3LYP) =  -1334.03816761     A.U. after   12 cycles
 SCF Done:  E(RB3LYP) =  -1334.03836523     A.U. after   10 cycles
 SCF Done:  E(RB3LYP) =  -1334.03838141     A.U. after    8 cycles
 SCF Done:  E(RB3LYP) =  -1334.03838294     A.U. after    8 cycles
 Optimization completed.
    -- Stationary point found.

                         Standard orientation:
 ---------------------------------------------------------------------
 Center     Atomic      Atomic             Coordinates (Angstroms)
 Number     Number       Type             X           Y           Z
 ---------------------------------------------------------------------
      1          6           0        2.724915    1.693538   -0.000058
      2          6           0        3.018711    0.354950   -0.000069
      3          6           0        1.854756   -0.470116   -0.000032
      4          6           0        0.680377    0.248021   -0.000000
      5         16           0        1.014824    1.964485   -0.000040
      6          8           0        4.311414   -0.068281   -0.000092
      7          1           0        1.876192   -1.550418   -0.000015
      8          6           0        4.543121   -1.471076   -0.000088
      9          1           0        5.624858   -1.594524   -0.000106
     10          1           0        4.126660   -1.947295    0.894664
     11          1           0        4.126629   -1.947305   -0.894821
     12          6           0       -2.724914   -1.693538   -0.000179
     13          6           0       -3.018711   -0.354950    0.000030
     14          6           0       -1.854757    0.470115    0.000159
     15          6           0       -0.680376   -0.248019    0.000059
     16         16           0       -1.014822   -1.964483    0.000136
     17          8           0       -4.311415    0.068280   -0.000002
     18          1           0       -1.876192    1.550418    0.000224
     19          6           0       -4.543122    1.471073    0.000080
     20          1           0       -4.126557    1.947367   -0.894582
     21          1           0       -4.126742    1.947234    0.894899
     22          1           0       -5.624861    1.594515   -0.000020
     23          1           0       -3.419075   -2.517729   -0.000375
     24          1           0        3.419075    2.517729   -0.000065
 ---------------------------------------------------------------------

 The electronic state is 1-A.
 Alpha  occ. eigenvalues --  -88.87869 -88.87869 -19.15190 -19.15190 -10.23697
 Alpha  occ. eigenvalues --  -10.23697 -10.22900 -10.22900 -10.21966 -10.21931
 Alpha  occ. eigenvalues --  -10.18972 -10.18971 -10.18117 -10.18117  -7.96496
 Alpha  occ. eigenvalues --   -7.96496  -5.92802  -5.92802  -5.92431  -5.92430
 Alpha  occ. eigenvalues --   -5.92065  -5.92065  -1.07093  -1.07091  -0.89903
 Alpha  occ. eigenvalues --   -0.87516  -0.77681  -0.75262  -0.73958  -0.73713
 Alpha  occ. eigenvalues --   -0.70097  -0.67119  -0.60722  -0.57693  -0.55333
 Alpha  occ. eigenvalues --   -0.54782  -0.53944  -0.51912  -0.47554  -0.47499
 Alpha  occ. eigenvalues --   -0.46796  -0.45316  -0.44399  -0.43819  -0.41256
 Alpha  occ. eigenvalues --   -0.41167  -0.40983  -0.39114  -0.38655  -0.36112
 Alpha  occ. eigenvalues --   -0.34574  -0.34488  -0.34267  -0.33897  -0.32219
 Alpha  occ. eigenvalues --   -0.27068  -0.25016  -0.22783  -0.19604
 Alpha virt. eigenvalues --   -0.05648   0.01381   0.01646   0.01982   0.03996
 Alpha virt. eigenvalues --    0.04379   0.06175   0.06517   0.07241   0.08183
 Alpha virt. eigenvalues --    0.08600   0.09102   0.09336   0.10321   0.10986

 Mulliken charges:
               1
     1  C   -0.293067
     2  C    0.190289
     3  C   -0.092127
     4  C   -0.205620
     5  S    0.288200
     6  O   -0.349458
     7  H    0.117039
     8  C   -0.138141
     9  H    0.129421
    10  H    0.111712
    11  H    0.111713
    12  C   -0.293066
    13  C    0.190289
    14  C   -0.092127
    15  C   -0.205619
    16  S    0.288200
    17  O   -0.349457
    18  H    0.117038
    19  C   -0.138141
    20  H    0.111712
    21  H    0.111713
    22  H    0.129421
    23  H    0.130039
    24  H    0.130039
 Sum of Mulliken charges =  -0.00000

 Dipole moment (field-independent basis, Debye):
    X=              0.0000    Y=             -0.0000    Z=              0.0001  Tot=              0.0001
 Quadrupole moment (field-independent basis, Debye-Ang):
   XX=            -87.5610   YY=            -86.6890   ZZ=           -101.3765
   XY=            -11.9967   XZ=              0.0001   YZ=              0.0006

 ESP charges:
               1
     1  C   -0.346410
     2  C    0.337584
     3  C   -0.186338
     4  C   -0.002705
     5  S   -0.000214
     6  O   -0.403345
     7  H    0.135133
     8  C    0.252970
     9  H    0.025455
    10  H   -0.013565
    11  H   -0.013562
    12  C   -0.346413
    13  C    0.337585
    14  C   -0.186340
    15  C   -0.002701
    16  S   -0.000215
    17  O   -0.403347
    18  H    0.135134
    19  C    0.252975
    20  H   -0.013567
    21  H   -0.013563
    22  H    0.025453
    23  H    0.214999
    24  H    0.214996
 Sum of ESP charges =   0.00000

 Normal termination of Gaussian 16 at Wed Feb  5 14:10:06 2020.
