 Gaussian 16, Revision A.03,
 Gaussian 16:  ES64L-G16RevA.03 25-Dec-2016

 ----------------------------
 #p Pop=CHelpG b3lyp/6-311g**
 ----------------------------

 -------------------
 OBT_2m_opt_freq.gjf
 -------------------
 Symbolic Z-matrix:
 Charge =  0 Multiplicity = 1

                         Standard orientation:
 ---------------------------------------------------------------------
 Center     Atomic      Atomic             Coordinates (Angstroms)
 Number     Number       Type             X           Y           Z
 ---------------------------------------------------------------------
      1          6           0        4.672030    0.134013    0.000000
      2          6           0        5.346033   -1.074985    0.000000
      3          6           0        6.773033   -0.986981    0.000000
      4          6           0        7.233029    0.295021    0.000000
      5         16           0        5.899026    1.500017    0.000000
      6          8           0        4.608036   -2.254987    0.000000
      7          1           0        7.427035   -1.844979    0.000000
      8          6           0        3.268029    0.380009    0.000000
      9          6           0        2.591025    1.588007    0.000000
     10          6           0        1.174026    1.508003    0.000000
     11          6           0        0.678029    0.224002    0.000000
     12         16           0        2.046033   -0.986994    0.000000
     13          8           0        3.331022    2.765010    0.000000
     14          1           0        0.530023    2.373002    0.000000
     15          6           0        5.317040   -3.521985    0.000000
     16          1           0        5.935040   -3.626983    0.895000
     17          1           0        5.935040   -3.626983   -0.895000
     18          1           0        4.542042   -4.280987    0.000000
     19          6           0        2.626018    4.036008    0.000000
     20          1           0        3.404016    4.791010    0.000000
     21          1           0        2.009018    4.142006   -0.895000
     22          1           0        2.009018    4.142006    0.895000
     23          1           0        8.251028    0.642024    0.000000
     24          6           0       -3.267969   -0.380009    0.000000
     25          6           0       -2.590966   -1.588007    0.000000
     26          6           0       -1.173966   -1.507003    0.000000
     27          6           0       -0.677969   -0.223002    0.000000
     28         16           0       -2.045973    0.986994    0.000000
     29          8           0       -3.330962   -2.765010    0.000000
     30          1           0       -0.529963   -2.372002    0.000000
     31          6           0       -4.671970   -0.134013    0.000000
     32          6           0       -5.345973    1.073985    0.000000
     33          6           0       -6.772973    0.985981    0.000000
     34          6           0       -7.232969   -0.295021    0.000000
     35         16           0       -5.898966   -1.500017    0.000000
     36          8           0       -4.608977    2.254987    0.000000
     37          1           0       -7.426975    1.843979    0.000000
     38          6           0       -2.624958   -4.036008    0.000000
     39          1           0       -2.007958   -4.142006    0.894000
     40          1           0       -2.008958   -4.142006   -0.895000
     41          1           0       -3.403956   -4.791010    0.000000
     42          6           0       -5.317980    3.521985    0.000000
     43          1           0       -4.542982    4.280987    0.000000
     44          1           0       -5.934981    3.626983   -0.894000
     45          1           0       -5.934981    3.626983    0.895000
     46          1           0       -8.249968   -0.642024    0.000000
 ---------------------------------------------------------------------

 SCF Done:  E(RB3LYP) =  -2666.86935674     A.U. after   15 cycles

 The electronic state is 1-A.
 Alpha  occ. eigenvalues --  -88.87035 -88.87026 -88.86815 -88.86813 -19.15318
 Alpha  occ. eigenvalues --  -19.15301 -19.15175 -19.15172 -10.23416 -10.23413
 Alpha  occ. eigenvalues --  -10.23387 -10.23376 -10.23112 -10.23089 -10.22888
 Alpha  occ. eigenvalues --  -10.22885 -10.21274 -10.21232 -10.20823 -10.20819
 Alpha  occ. eigenvalues --  -10.20763 -10.20755 -10.19956 -10.19937 -10.17886
 Alpha  occ. eigenvalues --  -10.17872 -10.17650 -10.17647  -7.95392  -7.95383
 Alpha  occ. eigenvalues --   -7.95190  -7.95189  -5.91734  -5.91725  -5.91548
 Alpha  occ. eigenvalues --   -5.91546  -5.91371  -5.91362  -5.91190  -5.91188
 Alpha  occ. eigenvalues --   -5.90923  -5.90914  -5.90680  -5.90679  -1.05469
 Alpha  occ. eigenvalues --   -1.05449  -1.05339  -1.05328  -0.88021  -0.87010
 Alpha  occ. eigenvalues --   -0.86096  -0.84770  -0.78591  -0.76345  -0.74981
 Alpha  occ. eigenvalues --   -0.74327  -0.73403  -0.73205  -0.71512  -0.71307
 Alpha  occ. eigenvalues --   -0.69559  -0.69090  -0.68365  -0.65928  -0.61876
 Alpha  occ. eigenvalues --   -0.59662  -0.58655  -0.56893  -0.54996  -0.54353
 Alpha  occ. eigenvalues --   -0.54198  -0.53363  -0.53240  -0.51428  -0.48661
 Alpha  occ. eigenvalues --   -0.47356  -0.47073  -0.47057  -0.46819  -0.46791
 Alpha  occ. eigenvalues --   -0.46628  -0.46577  -0.45657  -0.44625  -0.44341
 Alpha  occ. eigenvalues --   -0.44235  -0.43508  -0.42127  -0.41234  -0.40977
 Alpha  occ. eigenvalues --   -0.40663  -0.40549  -0.39853  -0.38155  -0.37903
 Alpha  occ. eigenvalues --   -0.37040  -0.36494  -0.36304  -0.35283  -0.34903
 Alpha  occ. eigenvalues --   -0.34439  -0.33982  -0.32873  -0.32613  -0.32381
 Alpha  occ. eigenvalues --   -0.32228  -0.32088  -0.31306  -0.31025  -0.28628
 Alpha  occ. eigenvalues --   -0.26183  -0.23982  -0.23853  -0.23367  -0.23199
 Alpha  occ. eigenvalues --   -0.19769  -0.16321
 Alpha virt. eigenvalues --   -0.06944  -0.02794  -0.00376   0.00250   0.00586
 Alpha virt. eigenvalues --    0.01325   0.01375   0.03404   0.04064   0.04151
 Alpha virt. eigenvalues --    0.04327   0.04657   0.05137   0.05792   0.06586

 Mulliken charges:
               1
     1  C   -0.220106
     2  C    0.235713
     3  C   -0.082617
     4  C   -0.290662
     5  S    0.269596
     6  O   -0.398281
     7  H    0.106976
     8  C   -0.200992
     9  C    0.233168
    10  C   -0.053408
    11  C   -0.227745
    12  S    0.298864
    13  O   -0.403201
    14  H    0.115872
    15  C   -0.121106
    16  H    0.115213
    17  H    0.115214
    18  H    0.132478
    19  C   -0.123598
    20  H    0.134090
    21  H    0.116931
    22  H    0.116932
    23  H    0.130684
    24  C   -0.201274
    25  C    0.233293
    26  C   -0.053636
    27  C   -0.227576
    28  S    0.298959
    29  O   -0.403269
    30  H    0.115772
    31  C   -0.219759
    32  C    0.235749
    33  C   -0.082578
    34  C   -0.290302
    35  S    0.269176
    36  O   -0.398692
    37  H    0.106892
    38  C   -0.123603
    39  H    0.117107
    40  H    0.117061
    41  H    0.134034
    42  C   -0.120844
    43  H    0.132368
    44  H    0.115304
    45  H    0.115173
    46  H    0.130628
 Sum of Mulliken charges =  -0.00000

 Dipole moment (field-independent basis, Debye):
    X=              0.0007    Y=             -0.0008    Z=             -0.0004  Tot=              0.0012
 Quadrupole moment (field-independent basis, Debye-Ang):
   XX=           -158.5336   YY=           -147.8390   ZZ=           -201.8213
   XY=            -21.2201   XZ=              0.0033   YZ=             -0.0014

 ESP charges:
               1
     1  C   -0.147536
     2  C    0.316467
     3  C   -0.242092
     4  C   -0.189728
     5  S   -0.026700
     6  O   -0.208010
     7  H    0.144311
     8  C    0.032634
     9  C    0.277149
    10  C   -0.374492
    11  C    0.106712
    12  S   -0.205674
    13  O   -0.277495
    14  H    0.257385
    15  C   -0.016246
    16  H    0.046741
    17  H    0.046745
    18  H    0.088796
    19  C    0.065577
    20  H    0.073233
    21  H    0.025411
    22  H    0.025407
    23  H    0.181495
    24  C    0.033532
    25  C    0.276331
    26  C   -0.374190
    27  C    0.106197
    28  S   -0.205174
    29  O   -0.276966
    30  H    0.257261
    31  C   -0.148335
    32  C    0.317885
    33  C   -0.242127
    34  C   -0.189251
    35  S   -0.027197
    36  O   -0.210092
    37  H    0.144132
    38  C    0.064079
    39  H    0.026087
    40  H    0.025932
    41  H    0.073432
    42  C   -0.014608
    43  H    0.088468
    44  H    0.046586
    45  H    0.046430
    46  H    0.181498
 Sum of ESP charges =  -0.00000

 Normal termination of Gaussian 16 at Fri Jan 10 16:04:13 2020.
