 Gaussian 16, Revision A.03,
 Gaussian 16:  ES64L-G16RevA.03 25-Dec-2016

 ------------------------------------------------------------------
 # opt=modredundant b3lyp/6-311+g(d,p) geom=connectivity pop=ChelpG
 ------------------------------------------------------------------

 -------------------
 Title Card Required
 -------------------
 Symbolic Z-matrix:
 Charge =  0 Multiplicity = 1

 SCF Done:  E(RB3LYP) =  -1255.42923307     A.U. after   14 cycles
 SCF Done:  E(RB3LYP) =  -1255.43236759     A.U. after   12 cycles
 SCF Done:  E(RB3LYP) =  -1255.43255130     A.U. after   11 cycles
 SCF Done:  E(RB3LYP) =  -1255.43256222     A.U. after   10 cycles
 Optimization completed.
    -- Stationary point found.
 SCF Done:  E(RB3LYP) =  -1255.43224580     A.U. after   13 cycles
 SCF Done:  E(RB3LYP) =  -1255.43230416     A.U. after   12 cycles
 SCF Done:  E(RB3LYP) =  -1255.43238977     A.U. after   12 cycles
 SCF Done:  E(RB3LYP) =  -1255.43239966     A.U. after   11 cycles
 SCF Done:  E(RB3LYP) =  -1255.43240142     A.U. after   10 cycles
 SCF Done:  E(RB3LYP) =  -1255.43240301     A.U. after   10 cycles
 Optimization completed.
 SCF Done:  E(RB3LYP) =  -1255.43199291     A.U. after   11 cycles
 SCF Done:  E(RB3LYP) =  -1255.43224017     A.U. after   13 cycles
 SCF Done:  E(RB3LYP) =  -1255.43241650     A.U. after   13 cycles
 SCF Done:  E(RB3LYP) =  -1255.43241752     A.U. after   10 cycles
    -- Stationary point found.
 SCF Done:  E(RB3LYP) =  -1255.43242259     A.U. after   14 cycles
 SCF Done:  E(RB3LYP) =  -1255.43256408     A.U. after   13 cycles
 SCF Done:  E(RB3LYP) =  -1255.43256536     A.U. after   11 cycles
 SCF Done:  E(RB3LYP) =  -1255.43256566     A.U. after   10 cycles
 SCF Done:  E(RB3LYP) =  -1255.43256549     A.U. after   11 cycles
 SCF Done:  E(RB3LYP) =  -1255.43256572     A.U. after   10 cycles
 Optimization completed on the basis of negligible forces.
    -- Stationary point found.

                         Standard orientation:
 ---------------------------------------------------------------------
 Center     Atomic      Atomic             Coordinates (Angstroms)
 Number     Number       Type             X           Y           Z
 ---------------------------------------------------------------------
      1          6           0        0.722526    0.004055   -0.003672
      2          6           0        1.571603    1.093889   -0.003414
      3          6           0        2.954444    0.764342    0.004450
      4          6           0        3.162803   -0.584415    0.008992
      5         16           0        1.681836   -1.473931    0.000567
      6          1           0        3.748675    1.501147    0.003856
      7          1           0        4.104304   -1.111419    0.013873
      8          6           0       -0.722521   -0.004079   -0.005058
      9          6           0       -1.571616   -1.093903   -0.003621
     10         16           0       -1.681786    1.473926    0.000665
     11          6           0       -2.954443   -0.764314    0.004509
     12          6           0       -3.162767    0.584452    0.009173
     13          1           0       -3.748711   -1.501084    0.004212
     14          1           0       -4.104276    1.111440    0.013946
     15          8           0        1.075899    2.371336   -0.016832
     16          8           0       -1.075930   -2.371341   -0.015741
     17          1           0       -1.796755   -3.002970    0.065567
     18          1           0        1.796029    3.002853    0.071262
 ---------------------------------------------------------------------

 The electronic state is 1-A.
 Alpha  occ. eigenvalues --  -88.87443 -88.87443 -19.16375 -19.16372 -10.23777
 Alpha  occ. eigenvalues --  -10.23775 -10.20835 -10.20798 -10.20114 -10.20113
 Alpha  occ. eigenvalues --  -10.18252 -10.18251  -7.96003  -7.96002  -5.92318
 Alpha  occ. eigenvalues --   -5.92317  -5.91927  -5.91926  -5.91563  -5.91563
 Alpha  occ. eigenvalues --   -1.07357  -1.07281  -0.89113  -0.87406  -0.77242
 Alpha  occ. eigenvalues --   -0.73692  -0.72905  -0.70848  -0.61055  -0.60444
 Alpha  occ. eigenvalues --   -0.59252  -0.55632  -0.53599  -0.49112  -0.48086
 Alpha  occ. eigenvalues --   -0.47028  -0.43519  -0.43426  -0.42907  -0.41462
 Alpha  occ. eigenvalues --   -0.38325  -0.38171  -0.37629  -0.35308  -0.35055
 Alpha  occ. eigenvalues --   -0.34493  -0.33423  -0.28084  -0.24246  -0.24020
 Alpha  occ. eigenvalues --   -0.19192
 Alpha virt. eigenvalues --   -0.04194  -0.01567  -0.00647   0.00062   0.00825
 Alpha virt. eigenvalues --    0.00844   0.02959   0.03009   0.03976   0.04103
 Alpha virt. eigenvalues --    0.04620   0.05541   0.05802   0.05975   0.06341

 Mulliken charges:
               1
     1  C    0.387219
     2  C    0.106247
     3  C   -0.328314
     4  C   -0.192237
     5  S   -0.283235
     6  H    0.113760
     7  H    0.158476
     8  C    0.391776
     9  C    0.109786
    10  S   -0.283796
    11  C   -0.328332
    12  C   -0.191247
    13  H    0.113733
    14  H    0.158475
    15  O   -0.228256
    16  O   -0.227654
    17  H    0.261743
    18  H    0.261859
 Sum of Mulliken charges =  -0.00000

 Dipole moment (field-independent basis, Debye):
    X=             -0.0017    Y=             -0.0010    Z=              0.2738  Tot=              0.2738
 Quadrupole moment (field-independent basis, Debye-Ang):
   XX=            -64.6766   YY=            -72.9626   ZZ=            -89.5963
   XY=             10.1834   XZ=              0.0188   YZ=              0.0403

 ESP charges:
               1
     1  C   -0.032540
     2  C    0.353094
     3  C   -0.300475
     4  C   -0.172096
     5  S   -0.007897
     6  H    0.143544
     7  H    0.176026
     8  C   -0.031363
     9  C    0.353003
    10  S   -0.008414
    11  C   -0.300622
    12  C   -0.171952
    13  H    0.143476
    14  H    0.176086
    15  O   -0.573311
    16  O   -0.574043
    17  H    0.414019
    18  H    0.413467
 Sum of ESP charges =   0.00000

 Normal termination of Gaussian 16 at Thu Feb  6 12:27:38 2020.
