 Gaussian 16, Revision A.03,
 Gaussian 16:  ES64L-G16RevA.03 25-Dec-2016

 -------------------------------------------------------------------
 # opt=modredundant wb97xd/6-311+g(d,p) geom=connectivity pop=ChelpG
 -------------------------------------------------------------------

 -------------------
 Title Card Required
 -------------------
 Symbolic Z-matrix:
 Charge =  0 Multiplicity = 1

 SCF Done:  E(RwB97XD) =  -1255.23037867     A.U. after   15 cycles
 SCF Done:  E(RwB97XD) =  -1255.23437127     A.U. after   14 cycles
 SCF Done:  E(RwB97XD) =  -1255.23458251     A.U. after   12 cycles
 SCF Done:  E(RwB97XD) =  -1255.23458995     A.U. after   11 cycles
 Optimization completed.
    -- Stationary point found.
 SCF Done:  E(RwB97XD) =  -1255.23428562     A.U. after   14 cycles
 SCF Done:  E(RwB97XD) =  -1255.23436187     A.U. after   14 cycles
 SCF Done:  E(RwB97XD) =  -1255.23446477     A.U. after   13 cycles
 SCF Done:  E(RwB97XD) =  -1255.23447844     A.U. after   12 cycles
 SCF Done:  E(RwB97XD) =  -1255.23448095     A.U. after   11 cycles
 SCF Done:  E(RwB97XD) =  -1255.23448332     A.U. after   11 cycles
 Optimization completed.
 SCF Done:  E(RwB97XD) =  -1255.23428449     A.U. after   14 cycles
 SCF Done:  E(RwB97XD) =  -1255.23450035     A.U. after   14 cycles
 SCF Done:  E(RwB97XD) =  -1255.23450232     A.U. after   11 cycles
    -- Stationary point found.
 SCF Done:  E(RwB97XD) =  -1255.23441645     A.U. after   14 cycles
 SCF Done:  E(RwB97XD) =  -1255.23459079     A.U. after   14 cycles
 SCF Done:  E(RwB97XD) =  -1255.23459225     A.U. after   11 cycles
 SCF Done:  E(RwB97XD) =  -1255.23459256     A.U. after   11 cycles
 SCF Done:  E(RwB97XD) =  -1255.23459253     A.U. after   11 cycles
 SCF Done:  E(RwB97XD) =  -1255.23459264     A.U. after    8 cycles
 SCF Done:  E(RwB97XD) =  -1255.23459264     A.U. after   10 cycles
 Optimization completed on the basis of negligible forces.
    -- Stationary point found.

                         Standard orientation:
 ---------------------------------------------------------------------
 Center     Atomic      Atomic             Coordinates (Angstroms)
 Number     Number       Type             X           Y           Z
 ---------------------------------------------------------------------
      1          6           0        0.725318    0.001996   -0.003657
      2          6           0        1.563808    1.089604   -0.003852
      3          6           0        2.945825    0.759046    0.004341
      4          6           0        3.145766   -0.586089    0.009560
      5         16           0        1.672216   -1.463969    0.001280
      6          1           0        3.743011    1.492313    0.003541
      7          1           0        4.087260   -1.113848    0.014803
      8          6           0       -0.725320   -0.001995   -0.005683
      9          6           0       -1.563808   -1.089603   -0.004359
     10         16           0       -1.672212    1.463969    0.001357
     11          6           0       -2.945821   -0.759044    0.004321
     12          6           0       -3.145757    0.586090    0.009940
     13          1           0       -3.743010   -1.492309    0.003649
     14          1           0       -4.087255    1.113844    0.015129
     15          8           0        1.071088    2.358636   -0.018145
     16          8           0       -1.071091   -2.358642   -0.017738
     17          1           0       -1.787176   -2.987638    0.071887
     18          1           0        1.787052    2.987670    0.072186
 ---------------------------------------------------------------------

 The electronic state is 1-A.
 Alpha  occ. eigenvalues --  -89.04102 -89.04102 -19.28625 -19.28624 -10.34931
 Alpha  occ. eigenvalues --  -10.34930 -10.31953 -10.31917 -10.31394 -10.31394
 Alpha  occ. eigenvalues --  -10.29358 -10.29358  -8.08130  -8.08130  -6.02978
 Alpha  occ. eigenvalues --   -6.02978  -6.02580  -6.02579  -6.02210  -6.02210
 Alpha  occ. eigenvalues --   -1.17681  -1.17596  -0.99529  -0.97814  -0.87142
 Alpha  occ. eigenvalues --   -0.83412  -0.82589  -0.80558  -0.70360  -0.69443
 Alpha  occ. eigenvalues --   -0.68368  -0.64601  -0.62509  -0.57794  -0.56772
 Alpha  occ. eigenvalues --   -0.55529  -0.52596  -0.51900  -0.51066  -0.50429
 Alpha  occ. eigenvalues --   -0.46300  -0.46244  -0.45586  -0.43936  -0.43798
 Alpha  occ. eigenvalues --   -0.42365  -0.41209  -0.35937  -0.31504  -0.31357
 Alpha  occ. eigenvalues --   -0.25979
 Alpha virt. eigenvalues --    0.02682   0.05106   0.05858   0.06763   0.06767
 Alpha virt. eigenvalues --    0.07334   0.08517   0.09761   0.09789   0.10037
 Alpha virt. eigenvalues --    0.10629   0.11877   0.12018   0.12142   0.12160

 Mulliken charges:
               1
     1  C    0.416660
     2  C    0.144845
     3  C   -0.367742
     4  C   -0.247553
     5  S   -0.310866
     6  H    0.139572
     7  H    0.185508
     8  C    0.419952
     9  C    0.146835
    10  S   -0.311121
    11  C   -0.367195
    12  C   -0.246909
    13  H    0.139562
    14  H    0.185510
    15  O   -0.241733
    16  O   -0.241694
    17  H    0.278201
    18  H    0.278166
 Sum of Mulliken charges =  -0.00000

 Dipole moment (field-independent basis, Debye):
    X=             -0.0003    Y=             -0.0001    Z=              0.2960  Tot=              0.2960
 Quadrupole moment (field-independent basis, Debye-Ang):
   XX=            -63.1435   YY=            -71.9312   ZZ=            -89.0509
   XY=             10.1973   XZ=             -0.0010   YZ=              0.0059

 ESP charges:
               1
     1  C   -0.035251
     2  C    0.351273
     3  C   -0.312647
     4  C   -0.183292
     5  S   -0.004783
     6  H    0.153513
     7  H    0.187460
     8  C   -0.033189
     9  C    0.353406
    10  S   -0.004687
    11  C   -0.316372
    12  C   -0.183777
    13  H    0.154783
    14  H    0.188149
    15  O   -0.581950
    16  O   -0.582853
    17  H    0.425343
    18  H    0.424875
 Sum of ESP charges =   0.00000

 Normal termination of Gaussian 16 at Thu Feb  6 13:17:22 2020.
