 Gaussian 16, Revision C.01,
 Gaussian 16:  ES64L-G16RevC.01  3-Jul-2019

 ---------------------------------
 # opt=modredundant hf/aug-cc-pvdz
 ---------------------------------

 -------------
 pBTTT_120.pdb
 -------------
 Symbolic Z-matrix:
 Charge =  0 Multiplicity = 1

 SCF Done:  E(RHF) =  -1649.50538917     A.U. after   18 cycles
 SCF Done:  E(RHF) =  -1649.57480395     A.U. after   15 cycles
 SCF Done:  E(RHF) =  -1649.62546060     A.U. after   16 cycles
 SCF Done:  E(RHF) =  -1649.63706021     A.U. after   15 cycles
 SCF Done:  E(RHF) =  -1649.64045588     A.U. after   15 cycles
 SCF Done:  E(RHF) =  -1649.64142687     A.U. after   15 cycles
 SCF Done:  E(RHF) =  -1649.64164837     A.U. after   14 cycles
 SCF Done:  E(RHF) =  -1649.64195219     A.U. after   14 cycles
 SCF Done:  E(RHF) =  -1649.64194156     A.U. after   13 cycles
 SCF Done:  E(RHF) =  -1649.64200383     A.U. after   12 cycles
 SCF Done:  E(RHF) =  -1649.64200748     A.U. after   11 cycles
 SCF Done:  E(RHF) =  -1649.64200949     A.U. after   10 cycles
 SCF Done:  E(RHF) =  -1649.64200962     A.U. after    9 cycles
 Optimization completed.
    -- Stationary point found.

                         Standard orientation:
 ---------------------------------------------------------------------
 Center     Atomic      Atomic             Coordinates (Angstroms)
 Number     Number       Type             X           Y           Z
 ---------------------------------------------------------------------
      1          6           0       -3.938486    0.773040    0.237589
      2          6           0       -2.532671    1.017050    0.414935
      3          6           0       -1.742967    0.038299   -0.086874
      4          6           0       -4.177271   -0.397277   -0.388205
      5          1           0       -4.711227    1.449391    0.571991
      6         16           0       -2.723582   -1.226559   -0.793826
      7          1           0       -5.135399   -0.817942   -0.641828
      8          6           0       -0.277033   -0.041387   -0.053531
      9         16           0        0.527081   -1.389348    0.744725
     10          6           0        2.083115   -0.716846    0.369389
     11          6           0        1.958311    0.463613   -0.302808
     12          6           0        0.602704    0.854715   -0.552753
     13          1           0        0.301223    1.748559   -1.072784
     14         16           0        3.514933    1.137576   -0.678865
     15          6           0        4.305576   -0.212497    0.092598
     16          6           0        3.442019   -1.116209    0.600676
     17          1           0        5.381221   -0.252435    0.122598
     18          1           0        3.744759   -2.014920    1.112832
     19          8           0       -2.036244    2.118523    1.018160
     20          1           0       -2.725329    2.617445    1.423270
 ---------------------------------------------------------------------

 The electronic state is 1-A.
 Alpha  occ. eigenvalues --  -91.99000 -91.98637 -91.98490 -20.61012 -11.31800
 Alpha  occ. eigenvalues --  -11.28420 -11.28396 -11.27391 -11.27030 -11.26848
 Alpha  occ. eigenvalues --  -11.26703 -11.25524 -11.25431 -11.25193  -8.99198
 Alpha  occ. eigenvalues --   -8.98820  -8.98657  -6.67365  -6.67273  -6.67074
 Alpha  occ. eigenvalues --   -6.66987  -6.66909  -6.66822  -6.66741  -6.66703
 Alpha  occ. eigenvalues --   -6.66532  -1.43002  -1.21279  -1.18450  -1.12587
 Alpha  occ. eigenvalues --   -1.02922  -1.01999  -0.98677  -0.95590  -0.94249
 Alpha  occ. eigenvalues --   -0.82628  -0.81160  -0.77010  -0.74997  -0.72290
 Alpha  occ. eigenvalues --   -0.69683  -0.66783  -0.66493  -0.62168  -0.61111
 Alpha  occ. eigenvalues --   -0.58306  -0.56322  -0.56012  -0.53931  -0.53033
 Alpha  occ. eigenvalues --   -0.52669  -0.50724  -0.49341  -0.48585  -0.46152
 Alpha  occ. eigenvalues --   -0.45806  -0.38477  -0.35167  -0.33380  -0.31760
 Alpha  occ. eigenvalues --   -0.28954
 Alpha virt. eigenvalues --    0.02752   0.03725   0.03942   0.05019   0.05096
 Alpha virt. eigenvalues --    0.06244   0.08084   0.08171   0.08571   0.09149
 Alpha virt. eigenvalues --    0.10080   0.10334   0.10501   0.10963   0.11315

 Mulliken charges:
               1
     1  C    0.619343
     2  C    0.277497
     3  C    0.739572
     4  C   -0.318907
     5  H   -0.452515
     6  S    0.417483
     7  H   -0.339713
     8  C    0.273890
     9  S    0.404895
    10  C   -0.811372
    11  C   -0.090340
    12  C    0.089054
    13  H   -0.430876
    14  S    0.623389
    15  C   -0.088568
    16  C    0.547239
    17  H   -0.377154
    18  H   -0.322622
    19  O   -0.924834
    20  H    0.164538
 Sum of Mulliken charges =  -0.00000

 Dipole moment (field-independent basis, Debye):
    X=             -2.1532    Y=              1.0714    Z=              0.7382  Tot=              2.5158
 Quadrupole moment (field-independent basis, Debye-Ang):
   XX=            -77.5534   YY=            -99.0292   ZZ=           -106.3522
   XY=             -9.7252   XZ=             -0.8925   YZ=              0.4493

 Normal termination of Gaussian 16 at Mon Oct 25 23:35:13 2021.
