 Gaussian 16, Revision C.01,
 Gaussian 16:  ES64L-G16RevC.01  3-Jul-2019

 ---------------------------------
 # opt=modredundant hf/aug-cc-pvdz
 ---------------------------------

 -------------
 pBTTT_175.pdb
 -------------
 Symbolic Z-matrix:
 Charge =  0 Multiplicity = 1

 SCF Done:  E(RHF) =  -1649.50777354     A.U. after   18 cycles
 SCF Done:  E(RHF) =  -1649.57628521     A.U. after   16 cycles
 SCF Done:  E(RHF) =  -1649.62557879     A.U. after   17 cycles
 SCF Done:  E(RHF) =  -1649.63732274     A.U. after   15 cycles
 SCF Done:  E(RHF) =  -1649.64074224     A.U. after   16 cycles
 SCF Done:  E(RHF) =  -1649.64171645     A.U. after   15 cycles
 SCF Done:  E(RHF) =  -1649.64195364     A.U. after   15 cycles
 SCF Done:  E(RHF) =  -1649.64226347     A.U. after   14 cycles
 SCF Done:  E(RHF) =  -1649.64225265     A.U. after   14 cycles
 SCF Done:  E(RHF) =  -1649.64230622     A.U. after   13 cycles
 SCF Done:  E(RHF) =  -1649.64230753     A.U. after   11 cycles
 SCF Done:  E(RHF) =  -1649.64230937     A.U. after   10 cycles
 Optimization completed.
    -- Stationary point found.

                         Standard orientation:
 ---------------------------------------------------------------------
 Center     Atomic      Atomic             Coordinates (Angstroms)
 Number     Number       Type             X           Y           Z
 ---------------------------------------------------------------------
      1          6           0        3.934850    0.869646   -0.017801
      2          6           0        2.528532    1.152205   -0.039028
      3          6           0        1.741301    0.046033    0.002426
      4          6           0        4.189462   -0.452742    0.041008
      5          1           0        4.698358    1.632790   -0.046274
      6         16           0        2.744187   -1.386876    0.077139
      7          1           0        5.150867   -0.935874    0.067642
      8          6           0        0.279009   -0.027726   -0.002062
      9         16           0       -0.531205   -1.592568   -0.075095
     10          6           0       -2.088104   -0.825756   -0.033932
     11          6           0       -1.960990    0.529789    0.026456
     12          6           0       -0.608537    0.998637    0.046151
     13          1           0       -0.318703    2.031948    0.094393
     14         16           0       -3.518160    1.299849    0.064873
     15          6           0       -4.309752   -0.253829   -0.002454
     16          6           0       -3.445059   -1.289013   -0.050959
     17          1           0       -5.385324   -0.303699   -0.001364
     18          1           0       -3.746887   -2.322701   -0.096336
     19          8           0        2.025266    2.405773   -0.094122
     20          1           0        2.718148    3.041402   -0.154585
 ---------------------------------------------------------------------

 The electronic state is 1-A.
 Alpha  occ. eigenvalues --  -91.99186 -91.98536 -91.98503 -20.61631 -11.31928
 Alpha  occ. eigenvalues --  -11.28849 -11.28515 -11.27587 -11.27247 -11.26764
 Alpha  occ. eigenvalues --  -11.26609 -11.25748 -11.25392 -11.24675  -8.99414
 Alpha  occ. eigenvalues --   -8.98718  -8.98708  -6.67586  -6.67494  -6.67291
 Alpha  occ. eigenvalues --   -6.66885  -6.66879  -6.66808  -6.66799  -6.66602
 Alpha  occ. eigenvalues --   -6.66585  -1.43571  -1.21265  -1.18692  -1.12562
 Alpha  occ. eigenvalues --   -1.03149  -1.02004  -0.98990  -0.95510  -0.94220
 Alpha  occ. eigenvalues --   -0.82867  -0.81651  -0.76943  -0.75290  -0.72276
 Alpha  occ. eigenvalues --   -0.70006  -0.67141  -0.66105  -0.62252  -0.61653
 Alpha  occ. eigenvalues --   -0.58489  -0.56264  -0.56104  -0.54259  -0.53212
 Alpha  occ. eigenvalues --   -0.51792  -0.51624  -0.49635  -0.48180  -0.46851
 Alpha  occ. eigenvalues --   -0.45504  -0.38977  -0.36066  -0.34180  -0.31782
 Alpha  occ. eigenvalues --   -0.27164
 Alpha virt. eigenvalues --    0.02623   0.03719   0.03836   0.05082   0.05125
 Alpha virt. eigenvalues --    0.06713   0.06938   0.08325   0.08893   0.09778
 Alpha virt. eigenvalues --    0.10415   0.10522   0.10987   0.11019   0.11974

 Mulliken charges:
               1
     1  C    0.677099
     2  C    0.168396
     3  C    0.779228
     4  C   -0.291201
     5  H   -0.494598
     6  S    0.503748
     7  H   -0.379059
     8  C   -0.188600
     9  S    0.532096
    10  C   -0.633269
    11  C    0.080063
    12  C    0.573961
    13  H   -0.496198
    14  S    0.473114
    15  C   -0.199232
    16  C    0.376505
    17  H   -0.381995
    18  H   -0.326097
    19  O   -0.982933
    20  H    0.208971
 Sum of Mulliken charges =  -0.00000

 Dipole moment (field-independent basis, Debye):
    X=              2.3714    Y=              1.3211    Z=             -0.0917  Tot=              2.7161
 Quadrupole moment (field-independent basis, Debye-Ang):
   XX=            -77.3560   YY=            -94.4956   ZZ=           -110.7017
   XY=             11.4878   XZ=             -0.1829   YZ=             -0.2260

 1\1\GINC-CX3-5-1\FOpt\RHF\Aug-CC-pVDZ\C10H6O1S3\NS5018\25-Oct-2021\0\\
 # opt=modredundant hf/aug-cc-pvdz\\pBTTT_175.pdb\\0,1\C,-4.1126168981,
 -1.2226150469,-0.0489776121\C,-2.8041103078,-0.9770936783,-0.583347304
 2\C,-2.0284085875,-2.0879951839,-0.6795303298\C,-4.3065309963,-2.52247
 95847,0.2505992858\H,-4.8538874776,-0.4506920016,0.0952362047\S,-2.922
 123504,-3.4804575266,-0.1077672185\H,-5.1911172522,-2.9765988459,0.662
 5557815\C,-0.6559856896,-2.1960374152,-1.178068924\S,0.2038982988,-3.7
 331500383,-1.0864460967\C,1.6075503733,-3.0301420616,-1.8275052771\C,1

 Normal termination of Gaussian 16 at Mon Oct 25 23:41:27 2021.
