 Gaussian 16, Revision C.01,
 Gaussian 16:  ES64L-G16RevC.01  3-Jul-2019

 ---------------------------------
 # opt=modredundant hf/aug-cc-pvdz
 ---------------------------------

 -------------
 pBTTT_-20.pdb
 -------------
 Symbolic Z-matrix:
 Charge =  0 Multiplicity = 1

 SCF Done:  E(RHF) =  -1649.50886959     A.U. after   18 cycles
 SCF Done:  E(RHF) =  -1649.57737400     A.U. after   16 cycles
 SCF Done:  E(RHF) =  -1649.62629188     A.U. after   16 cycles
 SCF Done:  E(RHF) =  -1649.63784318     A.U. after   16 cycles
 SCF Done:  E(RHF) =  -1649.64107680     A.U. after   16 cycles
 SCF Done:  E(RHF) =  -1649.64197534     A.U. after   15 cycles
 SCF Done:  E(RHF) =  -1649.64218529     A.U. after   15 cycles
 SCF Done:  E(RHF) =  -1649.64246414     A.U. after   14 cycles
 SCF Done:  E(RHF) =  -1649.64247985     A.U. after   12 cycles
 SCF Done:  E(RHF) =  -1649.64252124     A.U. after   12 cycles
 SCF Done:  E(RHF) =  -1649.64252274     A.U. after   12 cycles
 SCF Done:  E(RHF) =  -1649.64252504     A.U. after   11 cycles
 SCF Done:  E(RHF) =  -1649.64252483     A.U. after   10 cycles
 SCF Done:  E(RHF) =  -1649.64252518     A.U. after    9 cycles
 SCF Done:  E(RHF) =  -1649.64252523     A.U. after    8 cycles
 Optimization completed.
    -- Stationary point found.

                         Standard orientation:
 ---------------------------------------------------------------------
 Center     Atomic      Atomic             Coordinates (Angstroms)
 Number     Number       Type             X           Y           Z
 ---------------------------------------------------------------------
      1          6           0       -4.027202    0.356109    0.121885
      2          6           0       -2.676979    0.844660    0.172629
      3          6           0       -1.735699   -0.117336    0.007272
      4          6           0       -4.080683   -0.974068   -0.084407
      5          1           0       -4.895815    0.986955    0.238886
      6         16           0       -2.510812   -1.669260   -0.232821
      7          1           0       -4.959771   -1.590322   -0.163498
      8          6           0       -0.275971   -0.007714    0.020176
      9         16           0        0.537307    1.532639   -0.244303
     10          6           0        2.089298    0.762063   -0.136187
     11          6           0        1.962149   -0.576202    0.089750
     12          6           0        0.607593   -1.025150    0.181609
     13          1           0        0.315067   -2.046342    0.363265
     14         16           0        3.517093   -1.341367    0.217398
     15          6           0        4.311418    0.191328   -0.040170
     16          6           0        3.448797    1.215137   -0.209581
     17          1           0        5.387128    0.237360   -0.051791
     18          1           0        3.753555    2.234876   -0.380331
     19          8           0       -2.362031    2.142723    0.369428
     20          1           0       -3.137657    2.670532    0.455801
 ---------------------------------------------------------------------

 The electronic state is 1-A.
 Alpha  occ. eigenvalues --  -91.99169 -91.98473 -91.98339 -20.61374 -11.31972
 Alpha  occ. eigenvalues --  -11.28874 -11.28601 -11.27472 -11.27183 -11.26658
 Alpha  occ. eigenvalues --  -11.26399 -11.25770 -11.25283 -11.24969  -8.99389
 Alpha  occ. eigenvalues --   -8.98655  -8.98489  -6.67562  -6.67470  -6.67266
 Alpha  occ. eigenvalues --   -6.66823  -6.66746  -6.66649  -6.66568  -6.66539
 Alpha  occ. eigenvalues --   -6.66356  -1.43435  -1.21205  -1.18656  -1.12537
 Alpha  occ. eigenvalues --   -1.03133  -1.01942  -0.98933  -0.95632  -0.94068
 Alpha  occ. eigenvalues --   -0.82840  -0.81626  -0.77097  -0.75349  -0.71252
 Alpha  occ. eigenvalues --   -0.70177  -0.67238  -0.66332  -0.62079  -0.61540
 Alpha  occ. eigenvalues --   -0.58792  -0.56348  -0.56131  -0.53967  -0.52737
 Alpha  occ. eigenvalues --   -0.52444  -0.51472  -0.49614  -0.47917  -0.46700
 Alpha  occ. eigenvalues --   -0.45403  -0.38855  -0.35907  -0.34142  -0.31654
 Alpha  occ. eigenvalues --   -0.27342
 Alpha virt. eigenvalues --    0.02713   0.03708   0.03916   0.05016   0.05143
 Alpha virt. eigenvalues --    0.06284   0.06838   0.08563   0.09284   0.09517
 Alpha virt. eigenvalues --    0.10392   0.10629   0.10729   0.11010   0.11580

 Mulliken charges:
               1
     1  C    0.633538
     2  C    0.129170
     3  C    1.037845
     4  C   -0.320422
     5  H   -0.465592
     6  S    0.485317
     7  H   -0.371729
     8  C    0.069942
     9  S    0.486875
    10  C   -0.589657
    11  C   -0.111632
    12  C    0.312864
    13  H   -0.515122
    14  S    0.520227
    15  C   -0.163051
    16  C    0.317029
    17  H   -0.382510
    18  H   -0.327283
    19  O   -0.928331
    20  H    0.182523
 Sum of Mulliken charges =  -0.00000

 Dipole moment (field-independent basis, Debye):
    X=             -2.6626    Y=              1.1493    Z=              0.1893  Tot=              2.9063
 Quadrupole moment (field-independent basis, Debye-Ang):
   XX=            -75.7055   YY=            -96.3579   ZZ=           -110.3308
   XY=             -0.9616   XZ=             -1.9324   YZ=             -0.0837

 1\1\GINC-CX3-5-9\FOpt\RHF\Aug-CC-pVDZ\C10H6O1S3\NS5018\25-Oct-2021\0\\
 # opt=modredundant hf/aug-cc-pvdz\\pBTTT_-20.pdb\\0,1\C,-4.2130368946,
 -1.3743826981,-0.2781536805\C,-2.8653565929,-0.9676165763,-0.565658162
 1\C,-1.9626507561,-1.9785205071,-0.5211507778\C,-4.3037661975,-2.69390
 91138,-0.0224112296\H,-5.0527613353,-0.6954951718,-0.2671870214\S,-2.7
 742990897,-3.4805098714,-0.1310631937\H,-5.1896372969,-3.2550935204,0.
 2207443981\C,-0.514384153,-1.9473182297,-0.732199003\S,0.2653366681,-0
 .6237289579,-1.5948718038\C,1.81197682,-1.3963620439,-1.436466479\C,1.

 Normal termination of Gaussian 16 at Mon Oct 25 23:20:12 2021.
