 Gaussian 16, Revision C.01,
 Gaussian 16:  ES64L-G16RevC.01  3-Jul-2019

 ---------------------------------
 # opt=modredundant hf/aug-cc-pvdz
 ---------------------------------

 -------------
 pBTTT_180.pdb
 -------------
 Symbolic Z-matrix:
 Charge =  0 Multiplicity = 1

 SCF Done:  E(RHF) =  -1649.50798126     A.U. after   18 cycles
 SCF Done:  E(RHF) =  -1649.57640556     A.U. after   16 cycles
 SCF Done:  E(RHF) =  -1649.62556741     A.U. after   17 cycles
 SCF Done:  E(RHF) =  -1649.63732667     A.U. after   15 cycles
 SCF Done:  E(RHF) =  -1649.64072094     A.U. after   16 cycles
 SCF Done:  E(RHF) =  -1649.64167489     A.U. after   15 cycles
 SCF Done:  E(RHF) =  -1649.64193385     A.U. after   15 cycles
 SCF Done:  E(RHF) =  -1649.64223801     A.U. after   14 cycles
 SCF Done:  E(RHF) =  -1649.64222822     A.U. after   14 cycles
 SCF Done:  E(RHF) =  -1649.64228280     A.U. after   13 cycles
 SCF Done:  E(RHF) =  -1649.64228453     A.U. after   10 cycles
 SCF Done:  E(RHF) =  -1649.64228615     A.U. after   10 cycles
 Optimization completed.
    -- Stationary point found.

                         Standard orientation:
 ---------------------------------------------------------------------
 Center     Atomic      Atomic             Coordinates (Angstroms)
 Number     Number       Type             X           Y           Z
 ---------------------------------------------------------------------
      1          6           0        3.934848    0.870574    0.000004
      2          6           0        2.528462    1.153383    0.000045
      3          6           0        1.741324    0.046276    0.000119
      4          6           0        4.189860   -0.453029   -0.000088
      5          1           0        4.698117    1.634474   -0.000118
      6         16           0        2.744839   -1.388190    0.000022
      7          1           0        5.151383   -0.936642   -0.000273
      8          6           0        0.278991   -0.027650    0.000127
      9         16           0       -0.531201   -1.594290   -0.000043
     10          6           0       -2.088209   -0.826642   -0.000058
     11          6           0       -1.961223    0.530225    0.000024
     12          6           0       -0.608869    0.999732    0.000248
     13          1           0       -0.319385    2.034193    0.000241
     14         16           0       -3.518510    1.301036   -0.000040
     15          6           0       -4.309916   -0.254202   -0.000076
     16          6           0       -3.445082   -1.290411    0.000006
     17          1           0       -5.385485   -0.304116    0.000111
     18          1           0       -3.746748   -2.325140   -0.000006
     19          8           0        2.025067    2.408092   -0.000097
     20          1           0        2.718416    3.046065   -0.000306
 ---------------------------------------------------------------------

 The electronic state is 1-A.
 Alpha  occ. eigenvalues --  -91.99188 -91.98534 -91.98501 -20.61643 -11.31934
 Alpha  occ. eigenvalues --  -11.28857 -11.28519 -11.27595 -11.27245 -11.26762
 Alpha  occ. eigenvalues --  -11.26607 -11.25751 -11.25391 -11.24666  -8.99417
 Alpha  occ. eigenvalues --   -8.98717  -8.98707  -6.67588  -6.67497  -6.67293
 Alpha  occ. eigenvalues --   -6.66883  -6.66878  -6.66806  -6.66798  -6.66601
 Alpha  occ. eigenvalues --   -6.66584  -1.43585  -1.21263  -1.18695  -1.12560
 Alpha  occ. eigenvalues --   -1.03152  -1.02003  -0.98994  -0.95510  -0.94219
 Alpha  occ. eigenvalues --   -0.82870  -0.81662  -0.76942  -0.75296  -0.72275
 Alpha  occ. eigenvalues --   -0.70013  -0.67147  -0.66098  -0.62250  -0.61665
 Alpha  occ. eigenvalues --   -0.58494  -0.56260  -0.56111  -0.54260  -0.53216
 Alpha  occ. eigenvalues --   -0.51734  -0.51686  -0.49640  -0.48172  -0.46860
 Alpha  occ. eigenvalues --   -0.45496  -0.38984  -0.36076  -0.34186  -0.31779
 Alpha  occ. eigenvalues --   -0.27148
 Alpha virt. eigenvalues --    0.02619   0.03716   0.03835   0.05074   0.05125
 Alpha virt. eigenvalues --    0.06716   0.06938   0.08326   0.08901   0.09814
 Alpha virt. eigenvalues --    0.10410   0.10515   0.11003   0.11030   0.12018

 Mulliken charges:
               1
     1  C    0.688771
     2  C    0.141145
     3  C    0.795592
     4  C   -0.273480
     5  H   -0.499346
     6  S    0.504453
     7  H   -0.381343
     8  C   -0.253820
     9  S    0.545120
    10  C   -0.625450
    11  C    0.088967
    12  C    0.612189
    13  H   -0.497901
    14  S    0.467044
    15  C   -0.207053
    16  C    0.382177
    17  H   -0.382533
    18  H   -0.326833
    19  O   -0.988720
    20  H    0.211022
 Sum of Mulliken charges =  -0.00000

 Dipole moment (field-independent basis, Debye):
    X=              2.3765    Y=              1.3258    Z=             -0.0005  Tot=              2.7213
 Quadrupole moment (field-independent basis, Debye-Ang):
   XX=            -77.3463   YY=            -94.4366   ZZ=           -110.7564
   XY=             11.5110   XZ=             -0.0037   YZ=             -0.0009

 Normal termination of Gaussian 16 at Mon Oct 25 23:49:32 2021.
