 Gaussian 16, Revision C.01,
 Gaussian 16:  ES64L-G16RevC.01  3-Jul-2019

 ---------------------------------
 # opt=modredundant hf/aug-cc-pvdz
 ---------------------------------

 ------------
 pBTTT_65.pdb
 ------------
 Symbolic Z-matrix:
 Charge =  0 Multiplicity = 1

 SCF Done:  E(RHF) =  -1649.50495904     A.U. after   18 cycles
 SCF Done:  E(RHF) =  -1649.57421297     A.U. after   15 cycles
 SCF Done:  E(RHF) =  -1649.62493894     A.U. after   16 cycles
 SCF Done:  E(RHF) =  -1649.63663938     A.U. after   15 cycles
 SCF Done:  E(RHF) =  -1649.64011170     A.U. after   15 cycles
 SCF Done:  E(RHF) =  -1649.64106862     A.U. after   14 cycles
 SCF Done:  E(RHF) =  -1649.64141815     A.U. after   15 cycles
 SCF Done:  E(RHF) =  -1649.64171406     A.U. after   14 cycles
 SCF Done:  E(RHF) =  -1649.64171127     A.U. after   13 cycles
 SCF Done:  E(RHF) =  -1649.64177338     A.U. after   13 cycles
 SCF Done:  E(RHF) =  -1649.64177728     A.U. after   11 cycles
 SCF Done:  E(RHF) =  -1649.64177932     A.U. after   10 cycles
 SCF Done:  E(RHF) =  -1649.64177935     A.U. after    9 cycles
 Optimization completed.
    -- Stationary point found.

                         Standard orientation:
 ---------------------------------------------------------------------
 Center     Atomic      Atomic             Coordinates (Angstroms)
 Number     Number       Type             X           Y           Z
 ---------------------------------------------------------------------
      1          6           0        4.002681    0.342285    0.415791
      2          6           0        2.634646    0.753810    0.576360
      3          6           0        1.741685   -0.098961    0.021312
      4          6           0        4.109307   -0.820479   -0.259621
      5          1           0        4.844956    0.898711    0.799755
      6         16           0        2.573219   -1.443240   -0.725231
      7          1           0        5.013799   -1.348184   -0.510294
      8          6           0        0.273819   -0.010754    0.005396
      9         16           0       -0.535100    1.295792   -0.848391
     10          6           0       -2.088425    0.641645   -0.433907
     11          6           0       -1.960158   -0.504503    0.294930
     12          6           0       -0.602793   -0.885423    0.549638
     13          1           0       -0.297981   -1.753476    1.110965
     14         16           0       -3.514593   -1.157086    0.716465
     15          6           0       -4.309469    0.155772   -0.112754
     16          6           0       -3.449147    1.031658   -0.672178
     17          1           0       -5.385294    0.195982   -0.135845
     18          1           0       -3.755208    1.904868   -1.224873
     19          8           0        2.259901    1.873663    1.229184
     20          1           0        3.011236    2.355037    1.531528
 ---------------------------------------------------------------------

 The electronic state is 1-A.
 Alpha  occ. eigenvalues --  -91.99047 -91.98624 -91.98368 -20.60956 -11.31778
 Alpha  occ. eigenvalues --  -11.28501 -11.28380 -11.27393 -11.26963 -11.26815
 Alpha  occ. eigenvalues --  -11.26668 -11.25526 -11.25405 -11.25302  -8.99236
 Alpha  occ. eigenvalues --   -8.98808  -8.98535  -6.67402  -6.67310  -6.67111
 Alpha  occ. eigenvalues --   -6.66975  -6.66897  -6.66698  -6.66690  -6.66617
 Alpha  occ. eigenvalues --   -6.66408  -1.42994  -1.21271  -1.18450  -1.12588
 Alpha  occ. eigenvalues --   -1.02872  -1.01993  -0.98669  -0.95686  -0.94182
 Alpha  occ. eigenvalues --   -0.82588  -0.81209  -0.77052  -0.75097  -0.71828
 Alpha  occ. eigenvalues --   -0.69847  -0.66812  -0.66491  -0.62013  -0.61036
 Alpha  occ. eigenvalues --   -0.58572  -0.56382  -0.56061  -0.53759  -0.53131
 Alpha  occ. eigenvalues --   -0.52664  -0.50805  -0.49374  -0.48493  -0.46038
 Alpha  occ. eigenvalues --   -0.45736  -0.38408  -0.35125  -0.33120  -0.31720
 Alpha  occ. eigenvalues --   -0.29202
 Alpha virt. eigenvalues --    0.02784   0.03714   0.03988   0.04953   0.05101
 Alpha virt. eigenvalues --    0.06249   0.07897   0.08470   0.08657   0.08963
 Alpha virt. eigenvalues --    0.10128   0.10339   0.10474   0.10848   0.11290

 Mulliken charges:
               1
     1  C    0.530291
     2  C    0.529135
     3  C    0.532113
     4  C   -0.239986
     5  H   -0.455556
     6  S    0.380665
     7  H   -0.336924
     8  C    0.303217
     9  S    0.408663
    10  C   -0.730529
    11  C   -0.193809
    12  C    0.172392
    13  H   -0.468451
    14  S    0.622185
    15  C   -0.092444
    16  C    0.523022
    17  H   -0.376844
    18  H   -0.320553
    19  O   -0.954109
    20  H    0.167522
 Sum of Mulliken charges =  -0.00000

 Dipole moment (field-independent basis, Debye):
    X=              2.2943    Y=              0.9072    Z=              0.6222  Tot=              2.5444
 Quadrupole moment (field-independent basis, Debye-Ang):
   XX=            -76.3513   YY=            -99.8577   ZZ=           -106.3735
   XY=              0.7437   XZ=              6.1560   YZ=             -0.1352

 1\1\GINC-CX3-7-9\FOpt\RHF\Aug-CC-pVDZ\C10H6O1S3\NS5018\25-Oct-2021\0\\
 # opt=modredundant hf/aug-cc-pvdz\\pBTTT_65.pdb\\0,1\C,-4.1484227721,-
 1.2156551082,-0.2711235168\C,-2.7596396649,-1.0014543373,-0.5745276659
 \C,-2.0155626074,-2.131945587,-0.5426662349\C,-4.4207865761,-2.5122911
 496,-0.0178985166\H,-4.8870744095,-0.4278512649,-0.256140063\S,-3.0174
 615906,-3.5034896789,-0.1292330327\H,-5.3768613994,-2.9412856877,0.229
 6915635\C,-0.579417674,-2.2950602673,-0.8138589593\S,0.6195290466,-1.5
 489893709,0.2331690373\C,1.9071994813,-2.244651662,-0.69982876\C,1.418

 Normal termination of Gaussian 16 at Mon Oct 25 23:18:26 2021.
