 Gaussian 16, Revision C.01,
 Gaussian 16:  ES64L-G16RevC.01  3-Jul-2019

 ---------------------------------
 # opt=modredundant hf/aug-cc-pvdz
 ---------------------------------

 -------------
 pBTTT_-80.pdb
 -------------
 Symbolic Z-matrix:
 Charge =  0 Multiplicity = 1

 SCF Done:  E(RHF) =  -1649.50452753     A.U. after   18 cycles
 SCF Done:  E(RHF) =  -1649.57407678     A.U. after   15 cycles
 SCF Done:  E(RHF) =  -1649.62513009     A.U. after   16 cycles
 SCF Done:  E(RHF) =  -1649.63667629     A.U. after   15 cycles
 SCF Done:  E(RHF) =  -1649.63997696     A.U. after   15 cycles
 SCF Done:  E(RHF) =  -1649.64077067     A.U. after   14 cycles
 SCF Done:  E(RHF) =  -1649.64118806     A.U. after   15 cycles
 SCF Done:  E(RHF) =  -1649.64144538     A.U. after   13 cycles
 SCF Done:  E(RHF) =  -1649.64144317     A.U. after   13 cycles
 SCF Done:  E(RHF) =  -1649.64150694     A.U. after   12 cycles
 SCF Done:  E(RHF) =  -1649.64151058     A.U. after   11 cycles
 SCF Done:  E(RHF) =  -1649.64151241     A.U. after   10 cycles
 SCF Done:  E(RHF) =  -1649.64151251     A.U. after    9 cycles
 Optimization completed.
    -- Stationary point found.

                         Standard orientation:
 ---------------------------------------------------------------------
 Center     Atomic      Atomic             Coordinates (Angstroms)
 Number     Number       Type             X           Y           Z
 ---------------------------------------------------------------------
      1          6           0        3.984128    0.352534   -0.519142
      2          6           0        2.601811    0.707139   -0.697526
      3          6           0        1.743905   -0.098193   -0.029702
      4          6           0        4.134329   -0.719256    0.285924
      5          1           0        4.804027    0.882066   -0.981528
      6         16           0        2.624936   -1.325879    0.849671
      7          1           0        5.057655   -1.190087    0.578061
      8          6           0        0.273624   -0.025720    0.009896
      9         16           0       -0.532953    1.129938    1.061342
     10          6           0       -2.087273    0.558894    0.542026
     11          6           0       -1.960806   -0.451575   -0.366096
     12          6           0       -0.603528   -0.793286   -0.673793
     13          1           0       -0.298634   -1.560006   -1.367112
     14         16           0       -3.516175   -1.022988   -0.889732
     15          6           0       -4.308965    0.134834    0.146285
     16          6           0       -3.447660    0.905092    0.842716
     17          1           0       -5.384737    0.173022    0.175013
     18          1           0       -3.752538    1.675219    1.532306
     19          8           0        2.183541    1.736605   -1.462174
     20          1           0        2.915584    2.207037   -1.823383
 ---------------------------------------------------------------------

 The electronic state is 1-A.
 Alpha  occ. eigenvalues --  -91.98975 -91.98651 -91.98383 -20.60921 -11.31766
 Alpha  occ. eigenvalues --  -11.28394 -11.28364 -11.27435 -11.26853 -11.26841
 Alpha  occ. eigenvalues --  -11.26690 -11.25467 -11.25425 -11.25365  -8.99160
 Alpha  occ. eigenvalues --   -8.98835  -8.98548  -6.67326  -6.67234  -6.67036
 Alpha  occ. eigenvalues --   -6.67002  -6.66924  -6.66717  -6.66711  -6.66629
 Alpha  occ. eigenvalues --   -6.66422  -1.42962  -1.21270  -1.18389  -1.12583
 Alpha  occ. eigenvalues --   -1.02816  -1.01994  -0.98596  -0.95683  -0.94206
 Alpha  occ. eigenvalues --   -0.82528  -0.81132  -0.77043  -0.75023  -0.72013
 Alpha  occ. eigenvalues --   -0.69760  -0.66808  -0.66462  -0.62027  -0.60984
 Alpha  occ. eigenvalues --   -0.58455  -0.56383  -0.56049  -0.53677  -0.53299
 Alpha  occ. eigenvalues --   -0.52656  -0.50675  -0.49296  -0.48587  -0.45911
 Alpha  occ. eigenvalues --   -0.45779  -0.38351  -0.34921  -0.32471  -0.31743
 Alpha  occ. eigenvalues --   -0.30009
 Alpha virt. eigenvalues --    0.02779   0.03703   0.03994   0.04910   0.05097
 Alpha virt. eigenvalues --    0.06237   0.07988   0.08461   0.08818   0.08935
 Alpha virt. eigenvalues --    0.09760   0.10299   0.10426   0.10817   0.11428

 Mulliken charges:
               1
     1  C    0.629846
     2  C    0.466150
     3  C    0.441575
     4  C   -0.295637
     5  H   -0.452573
     6  S    0.355816
     7  H   -0.330807
     8  C    0.507917
     9  S    0.396973
    10  C   -0.791466
    11  C   -0.229601
    12  C    0.058529
    13  H   -0.442608
    14  S    0.645146
    15  C   -0.087424
    16  C    0.615667
    17  H   -0.377366
    18  H   -0.324937
    19  O   -0.950493
    20  H    0.165290
 Sum of Mulliken charges =  -0.00000

 Dipole moment (field-independent basis, Debye):
    X=              2.2005    Y=              0.8729    Z=             -0.7580  Tot=              2.4856
 Quadrupole moment (field-independent basis, Debye-Ang):
   XX=            -76.7396   YY=           -101.6330   ZZ=           -104.2950
   XY=              0.9984   XZ=             -7.4002   YZ=              0.0630

 Normal termination of Gaussian 16 at Mon Oct 25 22:54:03 2021.
