 Gaussian 16, Revision C.01,
 Gaussian 16:  ES64L-G16RevC.01  3-Jul-2019

 ---------------------------------
 # opt=modredundant hf/aug-cc-pvdz
 ---------------------------------

 ------------
 pBTTT_-5.pdb
 ------------
 Symbolic Z-matrix:
 Charge =  0 Multiplicity = 1

 SCF Done:  E(RHF) =  -1649.50893459     A.U. after   18 cycles
 SCF Done:  E(RHF) =  -1649.57740942     A.U. after   16 cycles
 SCF Done:  E(RHF) =  -1649.62618368     A.U. after   16 cycles
 SCF Done:  E(RHF) =  -1649.63781680     A.U. after   16 cycles
 SCF Done:  E(RHF) =  -1649.64111727     A.U. after   15 cycles
 SCF Done:  E(RHF) =  -1649.64207653     A.U. after   15 cycles
 SCF Done:  E(RHF) =  -1649.64228733     A.U. after   15 cycles
 SCF Done:  E(RHF) =  -1649.64257378     A.U. after   14 cycles
 SCF Done:  E(RHF) =  -1649.64259816     A.U. after   14 cycles
 SCF Done:  E(RHF) =  -1649.64263775     A.U. after   12 cycles
 SCF Done:  E(RHF) =  -1649.64263862     A.U. after   11 cycles
 SCF Done:  E(RHF) =  -1649.64264148     A.U. after   10 cycles
 SCF Done:  E(RHF) =  -1649.64264115     A.U. after    9 cycles
 SCF Done:  E(RHF) =  -1649.64264165     A.U. after    9 cycles
 SCF Done:  E(RHF) =  -1649.64264170     A.U. after    8 cycles
 Optimization completed.
    -- Stationary point found.

                         Standard orientation:
 ---------------------------------------------------------------------
 Center     Atomic      Atomic             Coordinates (Angstroms)
 Number     Number       Type             X           Y           Z
 ---------------------------------------------------------------------
      1          6           0       -4.027894    0.366090    0.030177
      2          6           0       -2.676230    0.853720    0.042980
      3          6           0       -1.735312   -0.122182    0.002003
      4          6           0       -4.083758   -0.978354   -0.021151
      5          1           0       -4.895172    1.008739    0.059221
      6         16           0       -2.514314   -1.690477   -0.058294
      7          1           0       -4.963555   -1.598261   -0.040993
      8          6           0       -0.276125   -0.012486    0.006061
      9         16           0        0.537528    1.550282   -0.059910
     10          6           0        2.089526    0.772710   -0.034206
     11          6           0        1.963240   -0.583201    0.022398
     12          6           0        0.609261   -1.040922    0.046172
     13          1           0        0.320035   -2.078027    0.091972
     14         16           0        3.518570   -1.357586    0.053875
     15          6           0        4.312167    0.195877   -0.010747
     16          6           0        3.448753    1.232114   -0.052727
     17          1           0        5.387842    0.243714   -0.014024
     18          1           0        3.752880    2.265367   -0.095480
     19          8           0       -2.359767    2.165177    0.091513
     20          1           0       -3.134205    2.701356    0.110709
 ---------------------------------------------------------------------

 The electronic state is 1-A.
 Alpha  occ. eigenvalues --  -91.99174 -91.98441 -91.98339 -20.61471 -11.32027
 Alpha  occ. eigenvalues --  -11.28925 -11.28660 -11.27557 -11.27141 -11.26637
 Alpha  occ. eigenvalues --  -11.26319 -11.25813 -11.25255 -11.24914  -8.99401
 Alpha  occ. eigenvalues --   -8.98624  -8.98482  -6.67575  -6.67483  -6.67279
 Alpha  occ. eigenvalues --   -6.66792  -6.66714  -6.66640  -6.66559  -6.66508
 Alpha  occ. eigenvalues --   -6.66347  -1.43548  -1.21182  -1.18684  -1.12519
 Alpha  occ. eigenvalues --   -1.03176  -1.01928  -0.98971  -0.95625  -0.94045
 Alpha  occ. eigenvalues --   -0.82877  -0.81711  -0.77108  -0.75394  -0.71170
 Alpha  occ. eigenvalues --   -0.70239  -0.67350  -0.66280  -0.62093  -0.61661
 Alpha  occ. eigenvalues --   -0.58808  -0.56348  -0.56145  -0.53996  -0.52721
 Alpha  occ. eigenvalues --   -0.52311  -0.51634  -0.49628  -0.47796  -0.46821
 Alpha  occ. eigenvalues --   -0.45310  -0.38951  -0.35982  -0.34224  -0.31650
 Alpha  occ. eigenvalues --   -0.27152
 Alpha virt. eigenvalues --    0.02691   0.03696   0.03897   0.05007   0.05142
 Alpha virt. eigenvalues --    0.06282   0.06713   0.08556   0.09439   0.09755
 Alpha virt. eigenvalues --    0.10382   0.10706   0.10820   0.11113   0.11677

 Mulliken charges:
               1
     1  C    0.745442
     2  C   -0.022233
     3  C    1.079070
     4  C   -0.323304
     5  H   -0.466720
     6  S    0.558516
     7  H   -0.388081
     8  C    0.021662
     9  S    0.456204
    10  C   -0.569715
    11  C   -0.054952
    12  C    0.331579
    13  H   -0.520736
    14  S    0.490725
    15  C   -0.183033
    16  C    0.314598
    17  H   -0.387103
    18  H   -0.332746
    19  O   -0.940610
    20  H    0.191436
 Sum of Mulliken charges =  -0.00000

 Dipole moment (field-independent basis, Debye):
    X=             -2.7322    Y=              1.1996    Z=              0.0441  Tot=              2.9842
 Quadrupole moment (field-independent basis, Debye-Ang):
   XX=            -75.6553   YY=            -95.9497   ZZ=           -110.7454
   XY=             -1.0554   XZ=             -0.4723   YZ=             -0.0324

 Normal termination of Gaussian 16 at Mon Oct 25 23:09:36 2021.
