 Gaussian 16, Revision C.01,
 Gaussian 16:  ES64L-G16RevC.01  3-Jul-2019

 ---------------------------------
 # opt=modredundant hf/aug-cc-pvdz
 ---------------------------------

 ------------
 pBTTT_20.pdb
 ------------
 Symbolic Z-matrix:
 Charge =  0 Multiplicity = 1

 SCF Done:  E(RHF) =  -1649.50827945     A.U. after   18 cycles
 SCF Done:  E(RHF) =  -1649.57673298     A.U. after   16 cycles
 SCF Done:  E(RHF) =  -1649.62560466     A.U. after   16 cycles
 SCF Done:  E(RHF) =  -1649.63746139     A.U. after   16 cycles
 SCF Done:  E(RHF) =  -1649.64087945     A.U. after   15 cycles
 SCF Done:  E(RHF) =  -1649.64188164     A.U. after   15 cycles
 SCF Done:  E(RHF) =  -1649.64216861     A.U. after   15 cycles
 SCF Done:  E(RHF) =  -1649.64247002     A.U. after   14 cycles
 SCF Done:  E(RHF) =  -1649.64247199     A.U. after   14 cycles
 SCF Done:  E(RHF) =  -1649.64252092     A.U. after   13 cycles
 SCF Done:  E(RHF) =  -1649.64252335     A.U. after   11 cycles
 SCF Done:  E(RHF) =  -1649.64252540     A.U. after   10 cycles
 SCF Done:  E(RHF) =  -1649.64252524     A.U. after    9 cycles
 SCF Done:  E(RHF) =  -1649.64252551     A.U. after    9 cycles
 Optimization completed.
    -- Stationary point found.

                         Standard orientation:
 ---------------------------------------------------------------------
 Center     Atomic      Atomic             Coordinates (Angstroms)
 Number     Number       Type             X           Y           Z
 ---------------------------------------------------------------------
      1          6           0       -4.027185    0.356146   -0.121827
      2          6           0       -2.676956    0.844687   -0.172397
      3          6           0       -1.735702   -0.117347   -0.007189
      4          6           0       -4.080700   -0.974049    0.084235
      5          1           0       -4.895788    0.987019   -0.238750
      6         16           0       -2.510855   -1.669304    0.232530
      7          1           0       -4.959800   -1.590311    0.163133
      8          6           0       -0.275980   -0.007727   -0.020068
      9         16           0        0.537312    1.532691    0.244049
     10          6           0        2.089296    0.762082    0.136049
     11          6           0        1.962149   -0.576227   -0.089582
     12          6           0        0.607593   -1.025197   -0.181272
     13          1           0        0.315091   -2.046455   -0.362597
     14         16           0        3.517088   -1.341422   -0.217166
     15          6           0        4.311416    0.191329    0.040065
     16          6           0        3.448801    1.215174    0.209248
     17          1           0        5.387127    0.237391    0.051526
     18          1           0        3.753560    2.234954    0.379746
     19          8           0       -2.361969    2.142763   -0.368999
     20          1           0       -3.137563    2.670633   -0.455250
 ---------------------------------------------------------------------

 The electronic state is 1-A.
 Alpha  occ. eigenvalues --  -91.99168 -91.98473 -91.98339 -20.61374 -11.31971
 Alpha  occ. eigenvalues --  -11.28874 -11.28600 -11.27472 -11.27182 -11.26658
 Alpha  occ. eigenvalues --  -11.26398 -11.25769 -11.25283 -11.24969  -8.99389
 Alpha  occ. eigenvalues --   -8.98655  -8.98489  -6.67562  -6.67470  -6.67266
 Alpha  occ. eigenvalues --   -6.66823  -6.66746  -6.66649  -6.66568  -6.66539
 Alpha  occ. eigenvalues --   -6.66356  -1.43436  -1.21205  -1.18656  -1.12537
 Alpha  occ. eigenvalues --   -1.03134  -1.01942  -0.98933  -0.95632  -0.94068
 Alpha  occ. eigenvalues --   -0.82840  -0.81626  -0.77097  -0.75349  -0.71251
 Alpha  occ. eigenvalues --   -0.70177  -0.67238  -0.66332  -0.62079  -0.61541
 Alpha  occ. eigenvalues --   -0.58792  -0.56348  -0.56131  -0.53967  -0.52737
 Alpha  occ. eigenvalues --   -0.52444  -0.51473  -0.49614  -0.47916  -0.46700
 Alpha  occ. eigenvalues --   -0.45403  -0.38855  -0.35907  -0.34142  -0.31654
 Alpha  occ. eigenvalues --   -0.27342
 Alpha virt. eigenvalues --    0.02713   0.03708   0.03916   0.05016   0.05143
 Alpha virt. eigenvalues --    0.06284   0.06838   0.08563   0.09285   0.09518
 Alpha virt. eigenvalues --    0.10392   0.10629   0.10730   0.11010   0.11580

 Mulliken charges:
               1
     1  C    0.633758
     2  C    0.128898
     3  C    1.037983
     4  C   -0.320483
     5  H   -0.465590
     6  S    0.485426
     7  H   -0.371771
     8  C    0.069775
     9  S    0.486836
    10  C   -0.589634
    11  C   -0.111520
    12  C    0.313037
    13  H   -0.515162
    14  S    0.520141
    15  C   -0.163089
    16  C    0.317009
    17  H   -0.382518
    18  H   -0.327302
    19  O   -0.928328
    20  H    0.182534
 Sum of Mulliken charges =  -0.00000

 Dipole moment (field-independent basis, Debye):
    X=             -2.6628    Y=              1.1495    Z=             -0.1893  Tot=              2.9065
 Quadrupole moment (field-independent basis, Debye-Ang):
   XX=            -75.7057   YY=            -96.3563   ZZ=           -110.3319
   XY=             -0.9619   XZ=              1.9298   YZ=              0.0833

 Normal termination of Gaussian 16 at Mon Oct 25 23:12:01 2021.
