 Gaussian 16, Revision C.01,
 Gaussian 16:  ES64L-G16RevC.01  3-Jul-2019

 ---------------------------------
 # opt=modredundant hf/aug-cc-pvdz
 ---------------------------------

 -------------
 pBTTT_-45.pdb
 -------------
 Symbolic Z-matrix:
 Charge =  0 Multiplicity = 1

 SCF Done:  E(RHF) =  -1649.50748774     A.U. after   18 cycles
 SCF Done:  E(RHF) =  -1649.57639044     A.U. after   15 cycles
 SCF Done:  E(RHF) =  -1649.62598576     A.U. after   16 cycles
 SCF Done:  E(RHF) =  -1649.63750247     A.U. after   16 cycles
 SCF Done:  E(RHF) =  -1649.64071850     A.U. after   15 cycles
 SCF Done:  E(RHF) =  -1649.64153610     A.U. after   15 cycles
 SCF Done:  E(RHF) =  -1649.64184425     A.U. after   15 cycles
 SCF Done:  E(RHF) =  -1649.64211206     A.U. after   14 cycles
 SCF Done:  E(RHF) =  -1649.64210117     A.U. after   12 cycles
 SCF Done:  E(RHF) =  -1649.64215127     A.U. after   13 cycles
 SCF Done:  E(RHF) =  -1649.64215489     A.U. after   12 cycles
 SCF Done:  E(RHF) =  -1649.64215606     A.U. after   10 cycles
 SCF Done:  E(RHF) =  -1649.64215605     A.U. after    9 cycles
 Optimization completed.
    -- Stationary point found.

                         Standard orientation:
 ---------------------------------------------------------------------
 Center     Atomic      Atomic             Coordinates (Angstroms)
 Number     Number       Type             X           Y           Z
 ---------------------------------------------------------------------
      1          6           0       -4.019348    0.338670    0.280814
      2          6           0       -2.665911    0.807298    0.395276
      3          6           0       -1.738336   -0.103530    0.013003
      4          6           0       -4.084917   -0.924188   -0.187396
      5          1           0       -4.882152    0.931238    0.546966
      6         16           0       -2.524225   -1.573962   -0.515399
      7          1           0       -4.970474   -1.510542   -0.363774
      8          6           0       -0.274969   -0.001027    0.017968
      9         16           0        0.537648    1.440912   -0.576826
     10          6           0        2.089569    0.713465   -0.300756
     11          6           0        1.959664   -0.547053    0.203366
     12          6           0        0.602892   -0.964418    0.388582
     13          1           0        0.300858   -1.920325    0.784164
     14         16           0        3.513239   -1.268301    0.496335
     15          6           0        4.310123    0.173985   -0.077365
     16          6           0        3.450271    1.139875   -0.462502
     17          1           0        5.385967    0.215671   -0.095026
     18          1           0        3.757207    2.100084   -0.844001
     19          8           0       -2.335810    2.034332    0.851538
     20          1           0       -3.105761    2.532379    1.067665
 ---------------------------------------------------------------------

 The electronic state is 1-A.
 Alpha  occ. eigenvalues --  -91.99129 -91.98564 -91.98354 -20.61094 -11.31838
 Alpha  occ. eigenvalues --  -11.28686 -11.28449 -11.27306 -11.27201 -11.26743
 Alpha  occ. eigenvalues --  -11.26590 -11.25635 -11.25360 -11.25153  -8.99330
 Alpha  occ. eigenvalues --   -8.98747  -8.98519  -6.67498  -6.67406  -6.67206
 Alpha  occ. eigenvalues --   -6.66915  -6.66837  -6.66682  -6.66630  -6.66601
 Alpha  occ. eigenvalues --   -6.66390  -1.43133  -1.21258  -1.18553  -1.12581
 Alpha  occ. eigenvalues --   -1.02993  -1.01979  -0.98798  -0.95664  -0.94139
 Alpha  occ. eigenvalues --   -0.82710  -0.81376  -0.77070  -0.75210  -0.71551
 Alpha  occ. eigenvalues --   -0.69990  -0.66930  -0.66470  -0.62031  -0.61211
 Alpha  occ. eigenvalues --   -0.58703  -0.56374  -0.56081  -0.53862  -0.52865
 Alpha  occ. eigenvalues --   -0.52669  -0.51078  -0.49510  -0.48267  -0.46325
 Alpha  occ. eigenvalues --   -0.45633  -0.38577  -0.35539  -0.33767  -0.31684
 Alpha  occ. eigenvalues --   -0.28162
 Alpha virt. eigenvalues --    0.02767   0.03723   0.03959   0.05012   0.05117
 Alpha virt. eigenvalues --    0.06270   0.07387   0.08532   0.08735   0.09218
 Alpha virt. eigenvalues --    0.10320   0.10493   0.10563   0.10947   0.11358

 Mulliken charges:
               1
     1  C    0.507785
     2  C    0.405303
     3  C    0.788479
     4  C   -0.250619
     5  H   -0.461287
     6  S    0.432155
     7  H   -0.343766
     8  C    0.141219
     9  S    0.453735
    10  C   -0.620803
    11  C   -0.196234
    12  C    0.230504
    13  H   -0.492788
    14  S    0.581911
    15  C   -0.117285
    16  C    0.403147
    17  H   -0.377823
    18  H   -0.319772
    19  O   -0.932348
    20  H    0.168487
 Sum of Mulliken charges =  -0.00000

 Dipole moment (field-independent basis, Debye):
    X=             -2.4525    Y=              0.9968    Z=              0.4464  Tot=              2.6847
 Quadrupole moment (field-independent basis, Debye-Ang):
   XX=            -75.9506   YY=            -97.9718   ZZ=           -108.5772
   XY=             -0.7076   XZ=             -4.3813   YZ=             -0.1035

 Normal termination of Gaussian 16 at Mon Oct 25 23:07:06 2021.
