 Gaussian 16, Revision C.01,
 Gaussian 16:  ES64L-G16RevC.01  3-Jul-2019

 ---------------------------------
 # opt=modredundant hf/aug-cc-pvdz
 ---------------------------------

 --------------
 pBTTT_-170.pdb
 --------------
 Symbolic Z-matrix:
 Charge =  0 Multiplicity = 1

 SCF Done:  E(RHF) =  -1649.50801169     A.U. after   18 cycles
 SCF Done:  E(RHF) =  -1649.57643564     A.U. after   16 cycles
 SCF Done:  E(RHF) =  -1649.62566955     A.U. after   16 cycles
 SCF Done:  E(RHF) =  -1649.63741663     A.U. after   16 cycles
 SCF Done:  E(RHF) =  -1649.64078959     A.U. after   15 cycles
 SCF Done:  E(RHF) =  -1649.64171656     A.U. after   15 cycles
 SCF Done:  E(RHF) =  -1649.64201759     A.U. after   15 cycles
 SCF Done:  E(RHF) =  -1649.64231326     A.U. after   14 cycles
 SCF Done:  E(RHF) =  -1649.64231043     A.U. after   14 cycles
 SCF Done:  E(RHF) =  -1649.64236694     A.U. after   13 cycles
 SCF Done:  E(RHF) =  -1649.64236921     A.U. after   11 cycles
 SCF Done:  E(RHF) =  -1649.64237064     A.U. after   10 cycles
 Optimization completed.
    -- Stationary point found.

                         Standard orientation:
 ---------------------------------------------------------------------
 Center     Atomic      Atomic             Coordinates (Angstroms)
 Number     Number       Type             X           Y           Z
 ---------------------------------------------------------------------
      1          6           0        3.934778    0.867069    0.036522
      2          6           0        2.528598    1.148772    0.077445
      3          6           0        1.741249    0.045325   -0.005842
      4          6           0        4.188429   -0.451684   -0.080421
      5          1           0        4.698850    1.628092    0.093308
      6         16           0        2.742533   -1.382983   -0.152676
      7          1           0        5.149560   -0.933276   -0.133027
      8          6           0        0.279061   -0.028082    0.003018
      9         16           0       -0.531233   -1.587646    0.147867
     10          6           0       -2.087807   -0.823176    0.067331
     11          6           0       -1.960321    0.528466   -0.052651
     12          6           0       -0.607576    0.995342   -0.091940
     13          1           0       -0.316708    2.025230   -0.187988
     14         16           0       -3.517165    1.296337   -0.128486
     15          6           0       -4.309283   -0.252706    0.005758
     16          6           0       -3.444998   -1.284862    0.102085
     17          1           0       -5.384869   -0.302342    0.004842
     18          1           0       -3.747260   -2.315465    0.192495
     19          8           0        2.025567    2.398982    0.186153
     20          1           0        2.716965    3.027802    0.306044
 ---------------------------------------------------------------------

 The electronic state is 1-A.
 Alpha  occ. eigenvalues --  -91.99182 -91.98541 -91.98507 -20.61596 -11.31912
 Alpha  occ. eigenvalues --  -11.28827 -11.28504 -11.27565 -11.27253 -11.26771
 Alpha  occ. eigenvalues --  -11.26615 -11.25739 -11.25395 -11.24700  -8.99408
 Alpha  occ. eigenvalues --   -8.98724  -8.98711  -6.67579  -6.67488  -6.67285
 Alpha  occ. eigenvalues --   -6.66891  -6.66881  -6.66814  -6.66801  -6.66608
 Alpha  occ. eigenvalues --   -6.66587  -1.43533  -1.21268  -1.18682  -1.12566
 Alpha  occ. eigenvalues --   -1.03141  -1.02006  -0.98976  -0.95510  -0.94225
 Alpha  occ. eigenvalues --   -0.82860  -0.81620  -0.76946  -0.75273  -0.72279
 Alpha  occ. eigenvalues --   -0.69986  -0.67122  -0.66125  -0.62256  -0.61620
 Alpha  occ. eigenvalues --   -0.58476  -0.56276  -0.56083  -0.54254  -0.53201
 Alpha  occ. eigenvalues --   -0.51865  -0.51540  -0.49624  -0.48204  -0.46825
 Alpha  occ. eigenvalues --   -0.45525  -0.38958  -0.36038  -0.34164  -0.31792
 Alpha  occ. eigenvalues --   -0.27211
 Alpha virt. eigenvalues --    0.02632   0.03725   0.03839   0.05094   0.05127
 Alpha virt. eigenvalues --    0.06696   0.06948   0.08321   0.08870   0.09698
 Alpha virt. eigenvalues --    0.10424   0.10529   0.10926   0.11027   0.11879

 Mulliken charges:
               1
     1  C    0.657386
     2  C    0.203809
     3  C    0.759206
     4  C   -0.315780
     5  H   -0.486844
     6  S    0.503631
     7  H   -0.373855
     8  C   -0.085323
     9  S    0.509545
    10  C   -0.646278
    11  C    0.065228
    12  C    0.499910
    13  H   -0.492204
    14  S    0.487501
    15  C   -0.185436
    16  C    0.371271
    17  H   -0.380963
    18  H   -0.324623
    19  O   -0.970086
    20  H    0.203907
 Sum of Mulliken charges =  -0.00000

 Dipole moment (field-independent basis, Debye):
    X=              2.3572    Y=              1.3077    Z=              0.1841  Tot=              2.7019
 Quadrupole moment (field-independent basis, Debye-Ang):
   XX=            -77.3858   YY=            -94.6648   ZZ=           -110.5435
   XY=             11.4188   XZ=              0.3571   YZ=              0.4396

 1\1\GINC-CX3-7-6\FOpt\RHF\Aug-CC-pVDZ\C10H6O1S3\NS5018\25-Oct-2021\0\\
 # opt=modredundant hf/aug-cc-pvdz\\pBTTT_-170.pdb\\0,1\C,-4.1156861877
 ,-1.2475862938,-0.0216668561\C,-2.8179076377,-0.9673460361,-0.56536771
 66\C,-2.0225651278,-2.0612252311,-0.6890995515\C,-4.2797605184,-2.5554
 396396,0.2606851325\H,-4.8713501216,-0.4934387117,0.1408762023\S,-2.87
 48481747,-3.477388534,-0.1126561161\H,-5.1509534008,-3.0336309658,0.67
 3997461\C,-0.6521609366,-2.1329382368,-1.1993067349\S,0.0974366297,-3.
 6976074922,-1.5150782802\C,1.5660188286,-2.9271281276,-2.0283500899\C,

 Normal termination of Gaussian 16 at Mon Oct 25 21:35:56 2021.
