 Gaussian 16, Revision C.01,
 Gaussian 16:  ES64L-G16RevC.01  3-Jul-2019

 ---------------------------------
 # opt=modredundant hf/aug-cc-pvdz
 ---------------------------------

 ------------
 pBTTT_90.pdb
 ------------
 Symbolic Z-matrix:
 Charge =  0 Multiplicity = 1

 SCF Done:  E(RHF) =  -1649.50420968     A.U. after   18 cycles
 SCF Done:  E(RHF) =  -1649.57375612     A.U. after   15 cycles
 SCF Done:  E(RHF) =  -1649.62481769     A.U. after   15 cycles
 SCF Done:  E(RHF) =  -1649.63645496     A.U. after   15 cycles
 SCF Done:  E(RHF) =  -1649.63986075     A.U. after   15 cycles
 SCF Done:  E(RHF) =  -1649.64078468     A.U. after   14 cycles
 SCF Done:  E(RHF) =  -1649.64107417     A.U. after   14 cycles
 SCF Done:  E(RHF) =  -1649.64137121     A.U. after   14 cycles
 SCF Done:  E(RHF) =  -1649.64137578     A.U. after   13 cycles
 SCF Done:  E(RHF) =  -1649.64143580     A.U. after   12 cycles
 SCF Done:  E(RHF) =  -1649.64143792     A.U. after   11 cycles
 SCF Done:  E(RHF) =  -1649.64144059     A.U. after   10 cycles
 SCF Done:  E(RHF) =  -1649.64144074     A.U. after    9 cycles
 Optimization completed.
    -- Stationary point found.

                         Standard orientation:
 ---------------------------------------------------------------------
 Center     Atomic      Atomic             Coordinates (Angstroms)
 Number     Number       Type             X           Y           Z
 ---------------------------------------------------------------------
      1          6           0       -3.970670    0.675759   -0.108466
      2          6           0       -2.579954    1.022661    0.012458
      3          6           0       -1.744688   -0.035956   -0.095866
      4          6           0       -4.149474   -0.647124   -0.301117
      5          1           0       -4.775553    1.393714   -0.052535
      6         16           0       -2.658098   -1.506184   -0.345405
      7          1           0       -5.084571   -1.166677   -0.424544
      8          6           0       -0.274090   -0.038845   -0.014252
      9         16           0        0.532176   -0.259711    1.533254
     10          6           0        2.086637   -0.144390    0.770347
     11          6           0        1.960468    0.048290   -0.574508
     12          6           0        0.603196    0.106779   -1.030999
     13          1           0        0.298170    0.252525   -2.054277
     14         16           0        3.516004    0.165637   -1.340208
     15          6           0        4.308406   -0.050984    0.198425
     16          6           0        3.446912   -0.202944    1.225505
     17          1           0        5.384164   -0.052658    0.246531
     18          1           0        3.751519   -0.348223    2.249063
     19          8           0       -2.135068    2.280658    0.209732
     20          1           0       -2.854957    2.880716    0.306483
 ---------------------------------------------------------------------

 The electronic state is 1-A.
 Alpha  occ. eigenvalues --  -91.98945 -91.98659 -91.98400 -20.60918 -11.31771
 Alpha  occ. eigenvalues --  -11.28367 -11.28354 -11.27445 -11.26866 -11.26817
 Alpha  occ. eigenvalues --  -11.26696 -11.25450 -11.25432 -11.25367  -8.99131
 Alpha  occ. eigenvalues --   -8.98843  -8.98564  -6.67297  -6.67205  -6.67010
 Alpha  occ. eigenvalues --   -6.67007  -6.66932  -6.66727  -6.66725  -6.66645
 Alpha  occ. eigenvalues --   -6.66438  -1.42958  -1.21270  -1.18372  -1.12580
 Alpha  occ. eigenvalues --   -1.02810  -1.01993  -0.98576  -0.95669  -0.94219
 Alpha  occ. eigenvalues --   -0.82517  -0.81108  -0.77037  -0.74987  -0.72114
 Alpha  occ. eigenvalues --   -0.69716  -0.66809  -0.66455  -0.62051  -0.60980
 Alpha  occ. eigenvalues --   -0.58388  -0.56371  -0.56043  -0.53667  -0.53337
 Alpha  occ. eigenvalues --   -0.52663  -0.50631  -0.49272  -0.48616  -0.45884
 Alpha  occ. eigenvalues --   -0.45806  -0.38344  -0.34874  -0.32302  -0.31706
 Alpha  occ. eigenvalues --   -0.30262
 Alpha virt. eigenvalues --    0.02772   0.03701   0.03988   0.04906   0.05095
 Alpha virt. eigenvalues --    0.06232   0.07990   0.08439   0.08818   0.09040
 Alpha virt. eigenvalues --    0.09642   0.10280   0.10391   0.10852   0.11489

 Mulliken charges:
               1
     1  C    0.681914
     2  C    0.396449
     3  C    0.480283
     4  C   -0.337143
     5  H   -0.451649
     6  S    0.351716
     7  H   -0.328654
     8  C    0.553497
     9  S    0.382310
    10  C   -0.806757
    11  C   -0.242522
    12  C    0.026362
    13  H   -0.432793
    14  S    0.650303
    15  C   -0.086330
    16  C    0.645719
    17  H   -0.377671
    18  H   -0.327531
    19  O   -0.938429
    20  H    0.160925
 Sum of Mulliken charges =  -0.00000

 Dipole moment (field-independent basis, Debye):
    X=             -2.1599    Y=              1.1953    Z=              0.1084  Tot=              2.4709
 Quadrupole moment (field-independent basis, Debye-Ang):
   XX=            -76.9880   YY=           -102.7517   ZZ=           -102.9937
   XY=             -6.9851   XZ=              4.3317   YZ=              0.0029

 Normal termination of Gaussian 16 at Mon Oct 25 23:42:44 2021.
