 Gaussian 16, Revision C.01,
 Gaussian 16:  ES64L-G16RevC.01  3-Jul-2019

 ---------------------------------
 # opt=modredundant hf/aug-cc-pvdz
 ---------------------------------

 --------------
 pBTTT_-155.pdb
 --------------
 Symbolic Z-matrix:
 Charge =  0 Multiplicity = 1

 SCF Done:  E(RHF) =  -1649.50804294     A.U. after   18 cycles
 SCF Done:  E(RHF) =  -1649.57653596     A.U. after   16 cycles
 SCF Done:  E(RHF) =  -1649.62606178     A.U. after   16 cycles
 SCF Done:  E(RHF) =  -1649.63763628     A.U. after   15 cycles
 SCF Done:  E(RHF) =  -1649.64100380     A.U. after   15 cycles
 SCF Done:  E(RHF) =  -1649.64189415     A.U. after   15 cycles
 SCF Done:  E(RHF) =  -1649.64223335     A.U. after   15 cycles
 SCF Done:  E(RHF) =  -1649.64253364     A.U. after   14 cycles
 SCF Done:  E(RHF) =  -1649.64254859     A.U. after   14 cycles
 SCF Done:  E(RHF) =  -1649.64260260     A.U. after   13 cycles
 SCF Done:  E(RHF) =  -1649.64260543     A.U. after   11 cycles
 SCF Done:  E(RHF) =  -1649.64260692     A.U. after   10 cycles
 Optimization completed.
    -- Stationary point found.

                         Standard orientation:
 ---------------------------------------------------------------------
 Center     Atomic      Atomic             Coordinates (Angstroms)
 Number     Number       Type             X           Y           Z
 ---------------------------------------------------------------------
      1          6           0        3.933945    0.852184    0.098240
      2          6           0        2.527812    1.127538    0.184921
      3          6           0        1.741119    0.042377   -0.026729
      4          6           0        4.184417   -0.442849   -0.180638
      5          1           0        4.699900    1.599913    0.241321
      6         16           0        2.736588   -1.357197   -0.362176
      7          1           0        5.144942   -0.914151   -0.298789
      8          6           0        0.279165   -0.031358   -0.008776
      9         16           0       -0.530649   -1.556551    0.344200
     10          6           0       -2.086116   -0.806657    0.162502
     11          6           0       -1.957605    0.518938   -0.129319
     12          6           0       -0.603525    0.972676   -0.232848
     13          1           0       -0.307737    1.980320   -0.464806
     14         16           0       -3.513349    1.272428   -0.304336
     15          6           0       -4.307154   -0.245929    0.025985
     16          6           0       -3.444312   -1.258270    0.254080
     17          1           0       -5.382816   -0.294011    0.030848
     18          1           0       -3.748065   -2.268508    0.475098
     19          8           0        2.024907    2.355383    0.445396
     20          1           0        2.706602    2.942602    0.725668
 ---------------------------------------------------------------------

 The electronic state is 1-A.
 Alpha  occ. eigenvalues --  -91.99152 -91.98571 -91.98529 -20.61403 -11.31838
 Alpha  occ. eigenvalues --  -11.28708 -11.28452 -11.27449 -11.27285 -11.26805
 Alpha  occ. eigenvalues --  -11.26646 -11.25686 -11.25409 -11.24837  -8.99369
 Alpha  occ. eigenvalues --   -8.98754  -8.98721  -6.67539  -6.67447  -6.67246
 Alpha  occ. eigenvalues --   -6.66920  -6.66890  -6.66843  -6.66810  -6.66637
 Alpha  occ. eigenvalues --   -6.66597  -1.43330  -1.21284  -1.18625  -1.12584
 Alpha  occ. eigenvalues --   -1.03096  -1.02016  -0.98902  -0.95516  -0.94246
 Alpha  occ. eigenvalues --   -0.82816  -0.81452  -0.76964  -0.75189  -0.72296
 Alpha  occ. eigenvalues --   -0.69883  -0.67014  -0.66242  -0.62261  -0.61457
 Alpha  occ. eigenvalues --   -0.58412  -0.56316  -0.56007  -0.54210  -0.53134
 Alpha  occ. eigenvalues --   -0.52078  -0.51268  -0.49556  -0.48329  -0.46673
 Alpha  occ. eigenvalues --   -0.45634  -0.38843  -0.35861  -0.34065  -0.31829
 Alpha  occ. eigenvalues --   -0.27514
 Alpha virt. eigenvalues --    0.02678   0.03743   0.03859   0.05108   0.05137
 Alpha virt. eigenvalues --    0.06514   0.07149   0.08289   0.08738   0.09513
 Alpha virt. eigenvalues --    0.10343   0.10506   0.10772   0.11053   0.11583

 Mulliken charges:
               1
     1  C    0.618890
     2  C    0.208032
     3  C    0.784084
     4  C   -0.329913
     5  H   -0.470342
     6  S    0.498125
     7  H   -0.355585
     8  C    0.066422
     9  S    0.467632
    10  C   -0.679754
    11  C    0.028020
    12  C    0.290075
    13  H   -0.474113
    14  S    0.543461
    15  C   -0.146725
    16  C    0.394602
    17  H   -0.378616
    18  H   -0.320968
    19  O   -0.926623
    20  H    0.183296
 Sum of Mulliken charges =  -0.00000

 Dipole moment (field-independent basis, Debye):
    X=              2.2815    Y=              1.2288    Z=              0.4574  Tot=              2.6314
 Quadrupole moment (field-independent basis, Debye-Ang):
   XX=            -77.5542   YY=            -95.6855   ZZ=           -109.5764
   XY=             10.9795   XZ=              0.8370   YZ=              0.8908

 Normal termination of Gaussian 16 at Mon Oct 25 21:41:05 2021.
