 Gaussian 16, Revision C.01,
 Gaussian 16:  ES64L-G16RevC.01  3-Jul-2019

 ---------------------------------
 # opt=modredundant hf/aug-cc-pvdz
 ---------------------------------

 -------------
 pBTTT_-65.pdb
 -------------
 Symbolic Z-matrix:
 Charge =  0 Multiplicity = 1

 SCF Done:  E(RHF) =  -1649.50539227     A.U. after   18 cycles
 SCF Done:  E(RHF) =  -1649.57482079     A.U. after   15 cycles
 SCF Done:  E(RHF) =  -1649.62552100     A.U. after   16 cycles
 SCF Done:  E(RHF) =  -1649.63701940     A.U. after   15 cycles
 SCF Done:  E(RHF) =  -1649.64028618     A.U. after   15 cycles
 SCF Done:  E(RHF) =  -1649.64107485     A.U. after   15 cycles
 SCF Done:  E(RHF) =  -1649.64147185     A.U. after   15 cycles
 SCF Done:  E(RHF) =  -1649.64172937     A.U. after   13 cycles
 SCF Done:  E(RHF) =  -1649.64171470     A.U. after   12 cycles
 SCF Done:  E(RHF) =  -1649.64177433     A.U. after   13 cycles
 SCF Done:  E(RHF) =  -1649.64177826     A.U. after   11 cycles
 SCF Done:  E(RHF) =  -1649.64177956     A.U. after   10 cycles
 SCF Done:  E(RHF) =  -1649.64177962     A.U. after    9 cycles
 Optimization completed.
    -- Stationary point found.

                         Standard orientation:
 ---------------------------------------------------------------------
 Center     Atomic      Atomic             Coordinates (Angstroms)
 Number     Number       Type             X           Y           Z
 ---------------------------------------------------------------------
      1          6           0       -4.002542    0.342714    0.416037
      2          6           0       -2.634384    0.753810    0.576620
      3          6           0       -1.741697   -0.098990    0.021176
      4          6           0       -4.109503   -0.820196   -0.259079
      5          1           0       -4.844643    0.899376    0.800040
      6         16           0       -2.573626   -1.443153   -0.725128
      7          1           0       -5.014143   -1.347679   -0.509686
      8          6           0       -0.273825   -0.011079    0.004881
      9         16           0        0.535118    1.295658   -0.848607
     10          6           0        2.088441    0.641697   -0.433792
     11          6           0        1.960148   -0.504734    0.294594
     12          6           0        0.602771   -0.886115    0.548562
     13          1           0        0.297969   -1.754275    1.109730
     14         16           0        3.514562   -1.156986    0.716716
     15          6           0        4.309474    0.155551   -0.112979
     16          6           0        3.449168    1.032011   -0.671534
     17          1           0        5.385299    0.195834   -0.135926
     18          1           0        3.755254    1.905491   -1.223789
     19          8           0       -2.259299    1.873668    1.229245
     20          1           0       -3.010507    2.355592    1.531041
 ---------------------------------------------------------------------

 The electronic state is 1-A.
 Alpha  occ. eigenvalues --  -91.99047 -91.98624 -91.98368 -20.60956 -11.31778
 Alpha  occ. eigenvalues --  -11.28501 -11.28380 -11.27393 -11.26963 -11.26815
 Alpha  occ. eigenvalues --  -11.26668 -11.25526 -11.25405 -11.25302  -8.99235
 Alpha  occ. eigenvalues --   -8.98808  -8.98535  -6.67402  -6.67309  -6.67111
 Alpha  occ. eigenvalues --   -6.66975  -6.66897  -6.66698  -6.66690  -6.66617
 Alpha  occ. eigenvalues --   -6.66408  -1.42994  -1.21271  -1.18450  -1.12588
 Alpha  occ. eigenvalues --   -1.02872  -1.01993  -0.98669  -0.95686  -0.94182
 Alpha  occ. eigenvalues --   -0.82589  -0.81209  -0.77052  -0.75097  -0.71828
 Alpha  occ. eigenvalues --   -0.69847  -0.66812  -0.66491  -0.62012  -0.61036
 Alpha  occ. eigenvalues --   -0.58572  -0.56382  -0.56060  -0.53759  -0.53132
 Alpha  occ. eigenvalues --   -0.52664  -0.50805  -0.49375  -0.48493  -0.46037
 Alpha  occ. eigenvalues --   -0.45737  -0.38408  -0.35126  -0.33121  -0.31720
 Alpha  occ. eigenvalues --   -0.29201
 Alpha virt. eigenvalues --    0.02784   0.03714   0.03988   0.04953   0.05101
 Alpha virt. eigenvalues --    0.06249   0.07897   0.08469   0.08658   0.08963
 Alpha virt. eigenvalues --    0.10129   0.10340   0.10473   0.10848   0.11290

 Mulliken charges:
               1
     1  C    0.530305
     2  C    0.529201
     3  C    0.532123
     4  C   -0.239932
     5  H   -0.455549
     6  S    0.380793
     7  H   -0.336957
     8  C    0.303064
     9  S    0.408526
    10  C   -0.730465
    11  C   -0.193864
    12  C    0.172807
    13  H   -0.468547
    14  S    0.621975
    15  C   -0.092528
    16  C    0.522953
    17  H   -0.376849
    18  H   -0.320527
    19  O   -0.954039
    20  H    0.167511
 Sum of Mulliken charges =  -0.00000

 Dipole moment (field-independent basis, Debye):
    X=             -2.2940    Y=              0.9088    Z=              0.6222  Tot=              2.5447
 Quadrupole moment (field-independent basis, Debye-Ang):
   XX=            -76.3544   YY=            -99.8507   ZZ=           -106.3792
   XY=             -0.7459   XZ=             -6.1508   YZ=             -0.1352

 Normal termination of Gaussian 16 at Mon Oct 25 23:02:29 2021.
