 Gaussian 16, Revision C.01,
 Gaussian 16:  ES64L-G16RevC.01  3-Jul-2019

 ---------------------------------
 # opt=modredundant hf/aug-cc-pvdz
 ---------------------------------

 -------------
 pBTTT_-15.pdb
 -------------
 Symbolic Z-matrix:
 Charge =  0 Multiplicity = 1

 SCF Done:  E(RHF) =  -1649.50884484     A.U. after   18 cycles
 SCF Done:  E(RHF) =  -1649.57736539     A.U. after   16 cycles
 SCF Done:  E(RHF) =  -1649.62629212     A.U. after   16 cycles
 SCF Done:  E(RHF) =  -1649.63784636     A.U. after   16 cycles
 SCF Done:  E(RHF) =  -1649.64110248     A.U. after   16 cycles
 SCF Done:  E(RHF) =  -1649.64202150     A.U. after   15 cycles
 SCF Done:  E(RHF) =  -1649.64223127     A.U. after   15 cycles
 SCF Done:  E(RHF) =  -1649.64251274     A.U. after   14 cycles
 SCF Done:  E(RHF) =  -1649.64253349     A.U. after   13 cycles
 SCF Done:  E(RHF) =  -1649.64257338     A.U. after   12 cycles
 SCF Done:  E(RHF) =  -1649.64257450     A.U. after   12 cycles
 SCF Done:  E(RHF) =  -1649.64257708     A.U. after   11 cycles
 SCF Done:  E(RHF) =  -1649.64257680     A.U. after   10 cycles
 SCF Done:  E(RHF) =  -1649.64257722     A.U. after    9 cycles
 SCF Done:  E(RHF) =  -1649.64257728     A.U. after    8 cycles
 Optimization completed.
    -- Stationary point found.

                         Standard orientation:
 ---------------------------------------------------------------------
 Center     Atomic      Atomic             Coordinates (Angstroms)
 Number     Number       Type             X           Y           Z
 ---------------------------------------------------------------------
      1          6           0       -4.027567    0.360470    0.091098
      2          6           0       -2.676782    0.848836    0.129281
      3          6           0       -1.735495   -0.119554    0.005751
      4          6           0       -4.081892   -0.976428   -0.063444
      5          1           0       -4.895704    0.996679    0.178649
      6         16           0       -2.512089   -1.679213   -0.174891
      7          1           0       -4.961204   -1.594530   -0.122920
      8          6           0       -0.276052   -0.009799    0.016598
      9         16           0        0.537342    1.541043   -0.181724
     10          6           0        2.089350    0.767049   -0.102490
     11          6           0        1.962632   -0.579450    0.067257
     12          6           0        0.608359   -1.032423    0.137322
     13          1           0        0.317349   -2.060991    0.274210
     14         16           0        3.517773   -1.348934    0.162564
     15          6           0        4.311720    0.193446   -0.031092
     16          6           0        3.448706    1.223088   -0.157831
     17          1           0        5.387412    0.240289   -0.040315
     18          1           0        3.753152    2.249138   -0.286094
     19          8           0       -2.361345    2.153305    0.276124
     20          1           0       -3.136535    2.685215    0.337600
 ---------------------------------------------------------------------

 The electronic state is 1-A.
 Alpha  occ. eigenvalues --  -91.99171 -91.98459 -91.98338 -20.61418 -11.31996
 Alpha  occ. eigenvalues --  -11.28897 -11.28627 -11.27509 -11.27164 -11.26648
 Alpha  occ. eigenvalues --  -11.26363 -11.25789 -11.25271 -11.24944  -8.99395
 Alpha  occ. eigenvalues --   -8.98641  -8.98486  -6.67568  -6.67476  -6.67272
 Alpha  occ. eigenvalues --   -6.66809  -6.66732  -6.66645  -6.66563  -6.66525
 Alpha  occ. eigenvalues --   -6.66351  -1.43485  -1.21195  -1.18668  -1.12529
 Alpha  occ. eigenvalues --   -1.03152  -1.01936  -0.98950  -0.95628  -0.94058
 Alpha  occ. eigenvalues --   -0.82857  -0.81664  -0.77101  -0.75369  -0.71214
 Alpha  occ. eigenvalues --   -0.70204  -0.67288  -0.66309  -0.62085  -0.61594
 Alpha  occ. eigenvalues --   -0.58800  -0.56346  -0.56138  -0.53980  -0.52730
 Alpha  occ. eigenvalues --   -0.52389  -0.51540  -0.49622  -0.47863  -0.46754
 Alpha  occ. eigenvalues --   -0.45362  -0.38898  -0.35943  -0.34180  -0.31651
 Alpha  occ. eigenvalues --   -0.27253
 Alpha virt. eigenvalues --    0.02704   0.03703   0.03908   0.05013   0.05144
 Alpha virt. eigenvalues --    0.06284   0.06779   0.08561   0.09390   0.09573
 Alpha virt. eigenvalues --    0.10393   0.10677   0.10761   0.11028   0.11619

 Mulliken charges:
               1
     1  C    0.668416
     2  C    0.077893
     3  C    1.060172
     4  C   -0.325675
     5  H   -0.466000
     6  S    0.506413
     7  H   -0.378419
     8  C    0.051481
     9  S    0.478920
    10  C   -0.586662
    11  C   -0.089004
    12  C    0.329209
    13  H   -0.517820
    14  S    0.508074
    15  C   -0.171144
    16  C    0.312717
    17  H   -0.384040
    18  H   -0.329431
    19  O   -0.931084
    20  H    0.185984
 Sum of Mulliken charges =  -0.00000

 Dipole moment (field-independent basis, Debye):
    X=             -2.6937    Y=              1.1724    Z=              0.1374  Tot=              2.9409
 Quadrupole moment (field-independent basis, Debye-Ang):
   XX=            -75.6837   YY=            -96.1678   ZZ=           -110.5250
   XY=             -1.0056   XZ=             -1.4347   YZ=             -0.0786

 Normal termination of Gaussian 16 at Mon Oct 25 23:07:17 2021.
