 Gaussian 16, Revision C.01,
 Gaussian 16:  ES64L-G16RevC.01  3-Jul-2019

 ---------------------------------
 # opt=modredundant hf/aug-cc-pvdz
 ---------------------------------

 -------------
 pBTTT_-90.pdb
 -------------
 Symbolic Z-matrix:
 Charge =  0 Multiplicity = 1

 SCF Done:  E(RHF) =  -1649.50403791     A.U. after   18 cycles
 SCF Done:  E(RHF) =  -1649.57364394     A.U. after   15 cycles
 SCF Done:  E(RHF) =  -1649.62494281     A.U. after   16 cycles
 SCF Done:  E(RHF) =  -1649.63652427     A.U. after   15 cycles
 SCF Done:  E(RHF) =  -1649.63986342     A.U. after   15 cycles
 SCF Done:  E(RHF) =  -1649.64066359     A.U. after   14 cycles
 SCF Done:  E(RHF) =  -1649.64109930     A.U. after   15 cycles
 SCF Done:  E(RHF) =  -1649.64136233     A.U. after   13 cycles
 SCF Done:  E(RHF) =  -1649.64137348     A.U. after   13 cycles
 SCF Done:  E(RHF) =  -1649.64143502     A.U. after   12 cycles
 SCF Done:  E(RHF) =  -1649.64143847     A.U. after   11 cycles
 SCF Done:  E(RHF) =  -1649.64144063     A.U. after   10 cycles
 SCF Done:  E(RHF) =  -1649.64144075     A.U. after    9 cycles
 Optimization completed.
    -- Stationary point found.

                         Standard orientation:
 ---------------------------------------------------------------------
 Center     Atomic      Atomic             Coordinates (Angstroms)
 Number     Number       Type             X           Y           Z
 ---------------------------------------------------------------------
      1          6           0        3.970661    0.674798   -0.114432
      2          6           0        2.579925    1.022764    0.003176
      3          6           0        1.744701   -0.036838   -0.095330
      4          6           0        4.149487   -0.649725   -0.295441
      5          1           0        4.775531    1.393235   -0.064851
      6         16           0        2.658124   -1.509194   -0.331889
      7          1           0        5.084589   -1.170365   -0.414162
      8          6           0        0.274091   -0.039120   -0.013781
      9         16           0       -0.532243   -0.245668    1.535650
     10          6           0       -2.086671   -0.137180    0.771671
     11          6           0       -1.960431    0.042777   -0.574943
     12          6           0       -0.603142    0.096666   -1.031942
     13          1           0       -0.298073    0.232821   -2.056527
     14         16           0       -3.515919    0.153415   -1.341737
     15          6           0       -4.308412   -0.049439    0.198724
     16          6           0       -3.446971   -0.191118    1.227322
     17          1           0       -5.384171   -0.050521    0.246805
     18          1           0       -3.751641   -0.326600    2.252205
     19          8           0        2.135007    2.282461    0.189187
     20          1           0        2.854889    2.883388    0.280508
 ---------------------------------------------------------------------

 The electronic state is 1-A.
 Alpha  occ. eigenvalues --  -91.98945 -91.98659 -91.98401 -20.60918 -11.31771
 Alpha  occ. eigenvalues --  -11.28366 -11.28355 -11.27445 -11.26866 -11.26817
 Alpha  occ. eigenvalues --  -11.26696 -11.25450 -11.25432 -11.25367  -8.99130
 Alpha  occ. eigenvalues --   -8.98843  -8.98564  -6.67297  -6.67204  -6.67010
 Alpha  occ. eigenvalues --   -6.67006  -6.66932  -6.66728  -6.66725  -6.66646
 Alpha  occ. eigenvalues --   -6.66438  -1.42958  -1.21270  -1.18372  -1.12580
 Alpha  occ. eigenvalues --   -1.02810  -1.01993  -0.98576  -0.95669  -0.94220
 Alpha  occ. eigenvalues --   -0.82517  -0.81108  -0.77037  -0.74987  -0.72114
 Alpha  occ. eigenvalues --   -0.69716  -0.66809  -0.66455  -0.62051  -0.60980
 Alpha  occ. eigenvalues --   -0.58388  -0.56371  -0.56042  -0.53667  -0.53337
 Alpha  occ. eigenvalues --   -0.52663  -0.50631  -0.49272  -0.48616  -0.45882
 Alpha  occ. eigenvalues --   -0.45807  -0.38344  -0.34874  -0.32302  -0.31706
 Alpha  occ. eigenvalues --   -0.30262
 Alpha virt. eigenvalues --    0.02772   0.03701   0.03988   0.04906   0.05095
 Alpha virt. eigenvalues --    0.06232   0.07990   0.08438   0.08819   0.09040
 Alpha virt. eigenvalues --    0.09642   0.10280   0.10391   0.10851   0.11489

 Mulliken charges:
               1
     1  C    0.681892
     2  C    0.396534
     3  C    0.480189
     4  C   -0.337083
     5  H   -0.451646
     6  S    0.351665
     7  H   -0.328651
     8  C    0.553756
     9  S    0.382322
    10  C   -0.806585
    11  C   -0.242778
    12  C    0.026255
    13  H   -0.432797
    14  S    0.650270
    15  C   -0.086352
    16  C    0.645716
    17  H   -0.377673
    18  H   -0.327523
    19  O   -0.938451
    20  H    0.160939
 Sum of Mulliken charges =  -0.00000

 Dipole moment (field-independent basis, Debye):
    X=              2.1598    Y=              1.1968    Z=              0.0976  Tot=              2.4711
 Quadrupole moment (field-independent basis, Debye-Ang):
   XX=            -76.9881   YY=           -102.7524   ZZ=           -102.9933
   XY=              6.9431   XZ=             -4.3948   YZ=              0.0039

 Normal termination of Gaussian 16 at Mon Oct 25 22:48:56 2021.
