 Gaussian 16, Revision C.01,
 Gaussian 16:  ES64L-G16RevC.01  3-Jul-2019

 ---------------------------------
 # opt=modredundant hf/aug-cc-pvdz
 ---------------------------------

 ------------
 pBTTT_30.pdb
 ------------
 Symbolic Z-matrix:
 Charge =  0 Multiplicity = 1

 SCF Done:  E(RHF) =  -1649.50738718     A.U. after   18 cycles
 SCF Done:  E(RHF) =  -1649.57600820     A.U. after   16 cycles
 SCF Done:  E(RHF) =  -1649.62539651     A.U. after   16 cycles
 SCF Done:  E(RHF) =  -1649.63723661     A.U. after   16 cycles
 SCF Done:  E(RHF) =  -1649.64070501     A.U. after   15 cycles
 SCF Done:  E(RHF) =  -1649.64170480     A.U. after   15 cycles
 SCF Done:  E(RHF) =  -1649.64204458     A.U. after   15 cycles
 SCF Done:  E(RHF) =  -1649.64234029     A.U. after   14 cycles
 SCF Done:  E(RHF) =  -1649.64233463     A.U. after   14 cycles
 SCF Done:  E(RHF) =  -1649.64238862     A.U. after   13 cycles
 SCF Done:  E(RHF) =  -1649.64239181     A.U. after   11 cycles
 SCF Done:  E(RHF) =  -1649.64239360     A.U. after   10 cycles
 SCF Done:  E(RHF) =  -1649.64239356     A.U. after    9 cycles
 Optimization completed.
    -- Stationary point found.

                         Standard orientation:
 ---------------------------------------------------------------------
 Center     Atomic      Atomic             Coordinates (Angstroms)
 Number     Number       Type             X           Y           Z
 ---------------------------------------------------------------------
      1          6           0       -4.025641    0.346533   -0.184035
      2          6           0       -2.675977    0.833073   -0.259901
      3          6           0       -1.736422   -0.111648   -0.009503
      4          6           0       -4.079216   -0.963853    0.126227
      5          1           0       -4.894310    0.963467   -0.360297
      6         16           0       -2.510385   -1.640500    0.347285
      7          1           0       -4.958710   -1.573384    0.244093
      8          6           0       -0.275705   -0.003162   -0.023179
      9         16           0        0.537528    1.507061    0.373419
     10          6           0        2.089389    0.747631    0.202483
     11          6           0        1.960982   -0.567031   -0.135089
     12          6           0        0.605601   -1.005062   -0.267510
     13          1           0        0.309197   -2.005707   -0.536385
     14         16           0        3.515308   -1.319725   -0.327781
     15          6           0        4.310816    0.185497    0.055757
     16          6           0        3.449361    1.192184    0.311450
     17          1           0        5.386583    0.229641    0.070429
     18          1           0        3.755062    2.193813    0.566662
     19          8           0       -2.360071    2.111328   -0.558875
     20          1           0       -3.135597    2.627209   -0.700464
 ---------------------------------------------------------------------

 The electronic state is 1-A.
 Alpha  occ. eigenvalues --  -91.99159 -91.98508 -91.98342 -20.61264 -11.31916
 Alpha  occ. eigenvalues --  -11.28811 -11.28539 -11.27376 -11.27229 -11.26686
 Alpha  occ. eigenvalues --  -11.26480 -11.25720 -11.25313 -11.25034  -8.99373
 Alpha  occ. eigenvalues --   -8.98691  -8.98500  -6.67544  -6.67452  -6.67249
 Alpha  occ. eigenvalues --   -6.66858  -6.66781  -6.66661  -6.66580  -6.66574
 Alpha  occ. eigenvalues --   -6.66369  -1.43314  -1.21228  -1.18622  -1.12557
 Alpha  occ. eigenvalues --   -1.03085  -1.01958  -0.98887  -0.95642  -0.94096
 Alpha  occ. eigenvalues --   -0.82796  -0.81532  -0.77086  -0.75298  -0.71354
 Alpha  occ. eigenvalues --   -0.70108  -0.67116  -0.66389  -0.62061  -0.61411
 Alpha  occ. eigenvalues --   -0.58767  -0.56358  -0.56109  -0.53930  -0.52760
 Alpha  occ. eigenvalues --   -0.52559  -0.51319  -0.49587  -0.48049  -0.46564
 Alpha  occ. eigenvalues --   -0.45499  -0.38749  -0.35798  -0.34033  -0.31662
 Alpha  occ. eigenvalues --   -0.27596
 Alpha virt. eigenvalues --    0.02736   0.03717   0.03933   0.05021   0.05136
 Alpha virt. eigenvalues --    0.06281   0.07011   0.08563   0.09015   0.09433
 Alpha virt. eigenvalues --    0.10364   0.10553   0.10652   0.11004   0.11492

 Mulliken charges:
               1
     1  C    0.572532
     2  C    0.233693
     3  C    0.967262
     4  C   -0.297293
     5  H   -0.464463
     6  S    0.459607
     7  H   -0.358197
     8  C    0.099259
     9  S    0.487526
    10  C   -0.592170
    11  C   -0.157858
    12  C    0.270493
    13  H   -0.507215
    14  S    0.546326
    15  C   -0.145903
    16  C    0.340412
    17  H   -0.379949
    18  H   -0.323271
    19  O   -0.926352
    20  H    0.175559
 Sum of Mulliken charges =  -0.00000

 Dipole moment (field-independent basis, Debye):
    X=             -2.5848    Y=              1.0892    Z=             -0.2995  Tot=              2.8209
 Quadrupole moment (field-independent basis, Debye-Ang):
   XX=            -75.7692   YY=            -96.8908   ZZ=           -109.7732
   XY=             -0.8456   XZ=              2.9441   YZ=              0.0735

 Normal termination of Gaussian 16 at Mon Oct 25 23:28:28 2021.
