 Gaussian 16, Revision C.01,
 Gaussian 16:  ES64L-G16RevC.01  3-Jul-2019

 ---------------------------------
 # opt=modredundant hf/aug-cc-pvdz
 ---------------------------------

 ------------
 pBTTT_80.pdb
 ------------
 Symbolic Z-matrix:
 Charge =  0 Multiplicity = 1

 SCF Done:  E(RHF) =  -1649.50416445     A.U. after   18 cycles
 SCF Done:  E(RHF) =  -1649.57368446     A.U. after   15 cycles
 SCF Done:  E(RHF) =  -1649.62479950     A.U. after   16 cycles
 SCF Done:  E(RHF) =  -1649.63646351     A.U. after   15 cycles
 SCF Done:  E(RHF) =  -1649.63989948     A.U. after   15 cycles
 SCF Done:  E(RHF) =  -1649.64083322     A.U. after   14 cycles
 SCF Done:  E(RHF) =  -1649.64114544     A.U. after   14 cycles
 SCF Done:  E(RHF) =  -1649.64144314     A.U. after   13 cycles
 SCF Done:  E(RHF) =  -1649.64144649     A.U. after   13 cycles
 SCF Done:  E(RHF) =  -1649.64150744     A.U. after   12 cycles
 SCF Done:  E(RHF) =  -1649.64151028     A.U. after   11 cycles
 SCF Done:  E(RHF) =  -1649.64151276     A.U. after   10 cycles
 SCF Done:  E(RHF) =  -1649.64151289     A.U. after    9 cycles
 Optimization completed.
    -- Stationary point found.

                         Standard orientation:
 ---------------------------------------------------------------------
 Center     Atomic      Atomic             Coordinates (Angstroms)
 Number     Number       Type             X           Y           Z
 ---------------------------------------------------------------------
      1          6           0        3.984199    0.352360    0.518934
      2          6           0        2.601938    0.707251    0.697200
      3          6           0        1.743890   -0.098329    0.029845
      4          6           0        4.134249   -0.719428   -0.286162
      5          1           0        4.804179    0.881840    0.981235
      6         16           0        2.624755   -1.326130   -0.849543
      7          1           0        5.057513   -1.190413   -0.578248
      8          6           0        0.273618   -0.025635   -0.009606
      9         16           0       -0.532886    1.130207   -1.060911
     10          6           0       -2.087238    0.558932   -0.541957
     11          6           0       -1.960845   -0.451511    0.366199
     12          6           0       -0.603586   -0.792996    0.674240
     13          1           0       -0.298726   -1.559774    1.367508
     14         16           0       -3.516264   -1.023248    0.889334
     15          6           0       -4.308960    0.135175   -0.146083
     16          6           0       -3.447600    0.904973   -0.842946
     17          1           0       -5.384731    0.173311   -0.174951
     18          1           0       -3.752413    1.675017   -1.532657
     19          8           0        2.183823    1.736851    1.461760
     20          1           0        2.915928    2.207178    1.822967
 ---------------------------------------------------------------------

 The electronic state is 1-A.
 Alpha  occ. eigenvalues --  -91.98976 -91.98651 -91.98383 -20.60921 -11.31766
 Alpha  occ. eigenvalues --  -11.28393 -11.28364 -11.27435 -11.26853 -11.26841
 Alpha  occ. eigenvalues --  -11.26690 -11.25467 -11.25425 -11.25364  -8.99160
 Alpha  occ. eigenvalues --   -8.98835  -8.98548  -6.67327  -6.67234  -6.67036
 Alpha  occ. eigenvalues --   -6.67002  -6.66924  -6.66717  -6.66711  -6.66629
 Alpha  occ. eigenvalues --   -6.66421  -1.42962  -1.21270  -1.18389  -1.12583
 Alpha  occ. eigenvalues --   -1.02816  -1.01994  -0.98597  -0.95683  -0.94206
 Alpha  occ. eigenvalues --   -0.82528  -0.81132  -0.77043  -0.75023  -0.72012
 Alpha  occ. eigenvalues --   -0.69760  -0.66808  -0.66462  -0.62027  -0.60983
 Alpha  occ. eigenvalues --   -0.58455  -0.56383  -0.56049  -0.53677  -0.53299
 Alpha  occ. eigenvalues --   -0.52656  -0.50675  -0.49296  -0.48587  -0.45913
 Alpha  occ. eigenvalues --   -0.45777  -0.38351  -0.34921  -0.32471  -0.31743
 Alpha  occ. eigenvalues --   -0.30009
 Alpha virt. eigenvalues --    0.02779   0.03703   0.03994   0.04910   0.05097
 Alpha virt. eigenvalues --    0.06237   0.07988   0.08461   0.08817   0.08936
 Alpha virt. eigenvalues --    0.09760   0.10299   0.10427   0.10818   0.11427

 Mulliken charges:
               1
     1  C    0.629763
     2  C    0.466143
     3  C    0.441546
     4  C   -0.295638
     5  H   -0.452575
     6  S    0.355820
     7  H   -0.330803
     8  C    0.507829
     9  S    0.397003
    10  C   -0.791548
    11  C   -0.229330
    12  C    0.058535
    13  H   -0.442605
    14  S    0.645215
    15  C   -0.087389
    16  C    0.615586
    17  H   -0.377364
    18  H   -0.324948
    19  O   -0.950529
    20  H    0.165289
 Sum of Mulliken charges =  -0.00000

 Dipole moment (field-independent basis, Debye):
    X=              2.2007    Y=              0.8723    Z=              0.7574  Tot=              2.4855
 Quadrupole moment (field-independent basis, Debye-Ang):
   XX=            -76.7384   YY=           -101.6329   ZZ=           -104.2956
   XY=              0.9986   XZ=              7.4003   YZ=             -0.0636

 Normal termination of Gaussian 16 at Mon Oct 25 23:40:14 2021.
