 Gaussian 16, Revision C.01,
 Gaussian 16:  ES64L-G16RevC.01  3-Jul-2019

 ---------------------------------
 # opt=modredundant hf/aug-cc-pvdz
 ---------------------------------

 -------------
 pBTTT_165.pdb
 -------------
 Symbolic Z-matrix:
 Charge =  0 Multiplicity = 1

 SCF Done:  E(RHF) =  -1649.50783782     A.U. after   18 cycles
 SCF Done:  E(RHF) =  -1649.57641003     A.U. after   16 cycles
 SCF Done:  E(RHF) =  -1649.62575794     A.U. after   16 cycles
 SCF Done:  E(RHF) =  -1649.63743309     A.U. after   16 cycles
 SCF Done:  E(RHF) =  -1649.64086930     A.U. after   16 cycles
 SCF Done:  E(RHF) =  -1649.64187716     A.U. after   15 cycles
 SCF Done:  E(RHF) =  -1649.64209443     A.U. after   15 cycles
 SCF Done:  E(RHF) =  -1649.64240746     A.U. after   14 cycles
 SCF Done:  E(RHF) =  -1649.64239764     A.U. after   13 cycles
 SCF Done:  E(RHF) =  -1649.64245079     A.U. after   13 cycles
 SCF Done:  E(RHF) =  -1649.64245149     A.U. after   11 cycles
 SCF Done:  E(RHF) =  -1649.64245381     A.U. after   10 cycles
 Optimization completed.
    -- Stationary point found.

                         Standard orientation:
 ---------------------------------------------------------------------
 Center     Atomic      Atomic             Coordinates (Angstroms)
 Number     Number       Type             X           Y           Z
 ---------------------------------------------------------------------
      1          6           0       -3.934654    0.863119    0.055904
      2          6           0       -2.528612    1.143402    0.114237
      3          6           0       -1.741179    0.044417   -0.011299
      4          6           0       -4.187059   -0.449828   -0.116524
      5          1           0       -4.699461    1.620731    0.141427
      6         16           0       -2.740377   -1.376666   -0.225161
      7          1           0       -5.147876   -0.929011   -0.192357
      8          6           0       -0.279120   -0.028712    0.001297
      9         16           0        0.531168   -1.579781    0.216872
     10          6           0        2.087353   -0.819029    0.099966
     11          6           0        1.959447    0.526241   -0.078481
     12          6           0        0.606305    0.989879   -0.138859
     13          1           0        0.313991    2.014261   -0.281388
     14         16           0        3.515899    1.290565   -0.189290
     15          6           0        4.308646   -0.250990    0.010910
     16          6           0        3.444864   -1.278262    0.152806
     17          1           0        5.384249   -0.300364    0.010455
     18          1           0        3.747658   -2.303876    0.287410
     19          8           0       -2.025848    2.388123    0.275357
     20          1           0       -2.714747    3.005974    0.453103
 ---------------------------------------------------------------------

 The electronic state is 1-A.
 Alpha  occ. eigenvalues --  -91.99174 -91.98549 -91.98514 -20.61542 -11.31889
 Alpha  occ. eigenvalues --  -11.28795 -11.28487 -11.27534 -11.27262 -11.26781
 Alpha  occ. eigenvalues --  -11.26623 -11.25725 -11.25399 -11.24738  -8.99398
 Alpha  occ. eigenvalues --   -8.98732  -8.98715  -6.67569  -6.67477  -6.67274
 Alpha  occ. eigenvalues --   -6.66899  -6.66884  -6.66822  -6.66804  -6.66616
 Alpha  occ. eigenvalues --   -6.66591  -1.43476  -1.21273  -1.18667  -1.12571
 Alpha  occ. eigenvalues --   -1.03129  -1.02010  -0.98956  -0.95511  -0.94231
 Alpha  occ. eigenvalues --   -0.82849  -0.81573  -0.76951  -0.75248  -0.72284
 Alpha  occ. eigenvalues --   -0.69957  -0.67092  -0.66156  -0.62261  -0.61573
 Alpha  occ. eigenvalues --   -0.58457  -0.56289  -0.56058  -0.54245  -0.53183
 Alpha  occ. eigenvalues --   -0.51936  -0.51452  -0.49606  -0.48239  -0.46784
 Alpha  occ. eigenvalues --   -0.45556  -0.38927  -0.35993  -0.34138  -0.31805
 Alpha  occ. eigenvalues --   -0.27286
 Alpha virt. eigenvalues --    0.02646   0.03733   0.03843   0.05104   0.05130
 Alpha virt. eigenvalues --    0.06652   0.06987   0.08313   0.08831   0.09618
 Alpha virt. eigenvalues --    0.10424   0.10523   0.10859   0.11042   0.11774

 Mulliken charges:
               1
     1  C    0.641782
     2  C    0.216383
     3  C    0.756234
     4  C   -0.328254
     5  H   -0.480528
     6  S    0.503763
     7  H   -0.367635
     8  C   -0.011292
     9  S    0.490973
    10  C   -0.657700
    11  C    0.052448
    12  C    0.424090
    13  H   -0.486852
    14  S    0.505886
    15  C   -0.172098
    16  C    0.373516
    17  H   -0.379967
    18  H   -0.323135
    19  O   -0.954836
    20  H    0.197221
 Sum of Mulliken charges =  -0.00000

 Dipole moment (field-independent basis, Debye):
    X=             -2.3361    Y=              1.2862    Z=              0.2784  Tot=              2.6812
 Quadrupole moment (field-independent basis, Debye-Ang):
   XX=            -77.4314   YY=            -94.9315   ZZ=           -110.2932
   XY=            -11.3060   XZ=             -0.5397   YZ=              0.6302

 Normal termination of Gaussian 16 at Mon Oct 25 23:46:41 2021.
