 Gaussian 16, Revision C.01,
 Gaussian 16:  ES64L-G16RevC.01  3-Jul-2019

 ---------------------------------
 # opt=modredundant hf/aug-cc-pvdz
 ---------------------------------

 --------------
 pBTTT_-100.pdb
 --------------
 Symbolic Z-matrix:
 Charge =  0 Multiplicity = 1

 SCF Done:  E(RHF) =  -1649.50417243     A.U. after   18 cycles
 SCF Done:  E(RHF) =  -1649.57367585     A.U. after   15 cycles
 SCF Done:  E(RHF) =  -1649.62488296     A.U. after   16 cycles
 SCF Done:  E(RHF) =  -1649.63650808     A.U. after   15 cycles
 SCF Done:  E(RHF) =  -1649.63988494     A.U. after   15 cycles
 SCF Done:  E(RHF) =  -1649.64071106     A.U. after   14 cycles
 SCF Done:  E(RHF) =  -1649.64112721     A.U. after   15 cycles
 SCF Done:  E(RHF) =  -1649.64140498     A.U. after   13 cycles
 SCF Done:  E(RHF) =  -1649.64142635     A.U. after   13 cycles
 SCF Done:  E(RHF) =  -1649.64148624     A.U. after   12 cycles
 SCF Done:  E(RHF) =  -1649.64148935     A.U. after   11 cycles
 SCF Done:  E(RHF) =  -1649.64149167     A.U. after   10 cycles
 SCF Done:  E(RHF) =  -1649.64149177     A.U. after    9 cycles
 Optimization completed.
    -- Stationary point found.

                         Standard orientation:
 ---------------------------------------------------------------------
 Center     Atomic      Atomic             Coordinates (Angstroms)
 Number     Number       Type             X           Y           Z
 ---------------------------------------------------------------------
      1          6           0        3.957312    0.682461    0.275749
      2          6           0        2.559466    0.908254    0.529148
      3          6           0        1.744727    0.028412   -0.097395
      4          6           0        4.162406   -0.375383   -0.535217
      5          1           0        4.748216    1.290510    0.689481
      6         16           0        2.687724   -1.120308   -1.019802
      7          1           0        5.107941   -0.757520   -0.880864
      8          6           0        0.274950   -0.034652   -0.043121
      9         16           0       -0.530946   -1.195684    1.004998
     10          6           0       -2.085672   -0.614213    0.498091
     11          6           0       -1.959783    0.400633   -0.405098
     12          6           0       -0.602770    0.734918   -0.722533
     13          1           0       -0.298240    1.504038   -1.413078
     14         16           0       -3.515495    0.984578   -0.913263
     15          6           0       -4.307557   -0.174596    0.121729
     16          6           0       -3.445690   -0.953435    0.807915
     17          1           0       -5.383289   -0.206388    0.158496
     18          1           0       -3.749938   -1.725126    1.496028
     19          8           0        2.091297    1.901376    1.313135
     20          1           0        2.800066    2.371686    1.718341
 ---------------------------------------------------------------------

 The electronic state is 1-A.
 Alpha  occ. eigenvalues --  -91.98939 -91.98659 -91.98425 -20.60930 -11.31783
 Alpha  occ. eigenvalues --  -11.28376 -11.28347 -11.27440 -11.26868 -11.26845
 Alpha  occ. eigenvalues --  -11.26701 -11.25456 -11.25435 -11.25336  -8.99127
 Alpha  occ. eigenvalues --   -8.98842  -8.98589  -6.67294  -6.67201  -6.67009
 Alpha  occ. eigenvalues --   -6.67003  -6.66931  -6.66753  -6.66725  -6.66671
 Alpha  occ. eigenvalues --   -6.66463  -1.42961  -1.21270  -1.18378  -1.12579
 Alpha  occ. eigenvalues --   -1.02830  -1.01991  -0.98585  -0.95646  -0.94231
 Alpha  occ. eigenvalues --   -0.82533  -0.81105  -0.77030  -0.74968  -0.72195
 Alpha  occ. eigenvalues --   -0.69687  -0.66804  -0.66462  -0.62086  -0.61000
 Alpha  occ. eigenvalues --   -0.58338  -0.56350  -0.56036  -0.53731  -0.53274
 Alpha  occ. eigenvalues --   -0.52681  -0.50623  -0.49272  -0.48624  -0.45916
 Alpha  occ. eigenvalues --   -0.45824  -0.38361  -0.34901  -0.32555  -0.31677
 Alpha  occ. eigenvalues --   -0.30033
 Alpha virt. eigenvalues --    0.02767   0.03707   0.03978   0.04926   0.05093
 Alpha virt. eigenvalues --    0.06230   0.08018   0.08405   0.08778   0.09007
 Alpha virt. eigenvalues --    0.09748   0.10261   0.10397   0.10896   0.11449

 Mulliken charges:
               1
     1  C    0.683972
     2  C    0.327948
     3  C    0.571941
     4  C   -0.347196
     5  H   -0.451861
     6  S    0.375501
     7  H   -0.331029
     8  C    0.469088
     9  S    0.383362
    10  C   -0.810344
    11  C   -0.225154
    12  C    0.060678
    13  H   -0.425654
    14  S    0.645790
    15  C   -0.087180
    16  C    0.635117
    17  H   -0.377299
    18  H   -0.327321
    19  O   -0.928939
    20  H    0.158580
 Sum of Mulliken charges =  -0.00000

 Dipole moment (field-independent basis, Debye):
    X=              2.1396    Y=              0.9999    Z=              0.7404  Tot=              2.4751
 Quadrupole moment (field-independent basis, Debye-Ang):
   XX=            -77.2146   YY=           -101.4276   ZZ=           -104.1598
   XY=              8.8426   XZ=              0.4571   YZ=              0.1077

 1\1\GINC-CX3-6-2\FOpt\RHF\Aug-CC-pVDZ\C10H6O1S3\NS5018\25-Oct-2021\0\\
 # opt=modredundant hf/aug-cc-pvdz\\pBTTT_-100.pdb\\0,1\C,-4.1759081361
 ,-1.3690488614,-0.0898125335\C,-2.8675797304,-0.9608245524,-0.52661354
 88\C,-1.9807761,-1.9791157234,-0.6111189702\C,-4.2445213706,-2.6965748
 752,0.1376264466\H,-5.0050868617,-0.6890826534,0.0387822495\S,-2.74366
 97348,-3.4866572406,-0.1584087409\H,-5.101650164,-3.2569796232,0.47051
 48837\C,-0.5724564876,-1.9145434782,-1.0349529815\S,-0.1091168644,-2.3
 786138807,-2.6677326682\C,1.5531698755,-2.012541435,-2.3285704637\C,1.

 Normal termination of Gaussian 16 at Mon Oct 25 22:55:11 2021.
