 Gaussian 16, Revision C.01,
 Gaussian 16:  ES64L-G16RevC.01  3-Jul-2019

 ---------------------------------
 # opt=modredundant hf/aug-cc-pvdz
 ---------------------------------

 --------------
 pBTTT_-150.pdb
 --------------
 Symbolic Z-matrix:
 Charge =  0 Multiplicity = 1

 SCF Done:  E(RHF) =  -1649.50778087     A.U. after   18 cycles
 SCF Done:  E(RHF) =  -1649.57636440     A.U. after   16 cycles
 SCF Done:  E(RHF) =  -1649.62610771     A.U. after   16 cycles
 SCF Done:  E(RHF) =  -1649.63764286     A.U. after   15 cycles
 SCF Done:  E(RHF) =  -1649.64102559     A.U. after   15 cycles
 SCF Done:  E(RHF) =  -1649.64190987     A.U. after   15 cycles
 SCF Done:  E(RHF) =  -1649.64225704     A.U. after   15 cycles
 SCF Done:  E(RHF) =  -1649.64256161     A.U. after   14 cycles
 SCF Done:  E(RHF) =  -1649.64258146     A.U. after   14 cycles
 SCF Done:  E(RHF) =  -1649.64263505     A.U. after   13 cycles
 SCF Done:  E(RHF) =  -1649.64263794     A.U. after   11 cycles
 SCF Done:  E(RHF) =  -1649.64263950     A.U. after   10 cycles
 Optimization completed.
    -- Stationary point found.

                         Standard orientation:
 ---------------------------------------------------------------------
 Center     Atomic      Atomic             Coordinates (Angstroms)
 Number     Number       Type             X           Y           Z
 ---------------------------------------------------------------------
      1          6           0        3.933450    0.845403    0.120577
      2          6           0        2.527062    1.117390    0.218621
      3          6           0        1.741160    0.041650   -0.036651
      4          6           0        4.183475   -0.437864   -0.208787
      5          1           0        4.699698    1.586680    0.292734
      6         16           0        2.735490   -1.344306   -0.426741
      7          1           0        5.144107   -0.904000   -0.345470
      8          6           0        0.279102   -0.033198   -0.016964
      9         16           0       -0.530010   -1.541392    0.402890
     10          6           0       -2.085368   -0.798575    0.192602
     11          6           0       -1.957001    0.513836   -0.154411
     12          6           0       -0.602559    0.961125   -0.280484
     13          1           0       -0.305305    1.957934   -0.555071
     14         16           0       -3.512641    1.260087   -0.358600
     15          6           0       -4.306476   -0.242826    0.035796
     16          6           0       -3.443796   -1.245255    0.304440
     17          1           0       -5.382157   -0.290073    0.044506
     18          1           0       -3.747710   -2.245266    0.567709
     19          8           0        2.023730    2.333851    0.527134
     20          1           0        2.701797    2.903584    0.849288
 ---------------------------------------------------------------------

 The electronic state is 1-A.
 Alpha  occ. eigenvalues --  -91.99136 -91.98582 -91.98534 -20.61328 -11.31817
 Alpha  occ. eigenvalues --  -11.28662 -11.28436 -11.27399 -11.27299 -11.26815
 Alpha  occ. eigenvalues --  -11.26658 -11.25663 -11.25414 -11.24891  -8.99351
 Alpha  occ. eigenvalues --   -8.98765  -8.98722  -6.67520  -6.67428  -6.67227
 Alpha  occ. eigenvalues --   -6.66932  -6.66890  -6.66854  -6.66810  -6.66648
 Alpha  occ. eigenvalues --   -6.66598  -1.43256  -1.21288  -1.18602  -1.12589
 Alpha  occ. eigenvalues --   -1.03076  -1.02018  -0.98871  -0.95522  -0.94252
 Alpha  occ. eigenvalues --   -0.82795  -0.81389  -0.76971  -0.75158  -0.72301
 Alpha  occ. eigenvalues --   -0.69844  -0.66968  -0.66292  -0.62256  -0.61398
 Alpha  occ. eigenvalues --   -0.58390  -0.56326  -0.55990  -0.54182  -0.53106
 Alpha  occ. eigenvalues --   -0.52153  -0.51174  -0.49527  -0.48377  -0.46607
 Alpha  occ. eigenvalues --   -0.45672  -0.38792  -0.35778  -0.34017  -0.31836
 Alpha  occ. eigenvalues --   -0.27662
 Alpha virt. eigenvalues --    0.02695   0.03744   0.03870   0.05107   0.05136
 Alpha virt. eigenvalues --    0.06444   0.07261   0.08274   0.08698   0.09476
 Alpha virt. eigenvalues --    0.10275   0.10506   0.10747   0.11040   0.11509

 Mulliken charges:
               1
     1  C    0.609674
     2  C    0.206932
     3  C    0.799028
     4  C   -0.325994
     5  H   -0.465796
     6  S    0.490915
     7  H   -0.350647
     8  C    0.089543
     9  S    0.459945
    10  C   -0.694979
    11  C    0.016046
    12  C    0.234065
    13  H   -0.467658
    14  S    0.560324
    15  C   -0.133906
    16  C    0.410767
    17  H   -0.378277
    18  H   -0.320377
    19  O   -0.917267
    20  H    0.177662
 Sum of Mulliken charges =  -0.00000

 Dipole moment (field-independent basis, Debye):
    X=              2.2531    Y=              1.1972    Z=              0.5376  Tot=              2.6075
 Quadrupole moment (field-independent basis, Debye-Ang):
   XX=            -77.6152   YY=            -96.1340   ZZ=           -109.1449
   XY=             10.7854   XZ=              0.9503   YZ=              0.9473

 1\1\GINC-CX3-7-6\FOpt\RHF\Aug-CC-pVDZ\C10H6O1S3\NS5018\25-Oct-2021\0\\
 # opt=modredundant hf/aug-cc-pvdz\\pBTTT_-150.pdb\\0,1\C,-4.1261220065
 ,-1.2857120275,-0.0126189728\C,-2.8291581243,-0.9586982963,-0.53459917
 74\C,-2.0063817798,-2.028672181,-0.6695724215\C,-4.2580792741,-2.60389
 65969,0.2378653694\H,-4.9040761327,-0.5562166429,0.1573518176\S,-2.821
 7007771,-3.4798381989,-0.1300283732\H,-5.1219430341,-3.1132100568,0.62
 91678274\C,-0.6321805076,-2.0527491649,-1.174146654\S,-0.0106266907,-3
 .4813475962,-1.9977749577\C,1.5298033851,-2.7135968056,-2.2274943922\C

 Normal termination of Gaussian 16 at Mon Oct 25 21:44:24 2021.
