 Gaussian 16, Revision C.01,
 Gaussian 16:  ES64L-G16RevC.01  3-Jul-2019

 ---------------------------------
 # opt=modredundant hf/aug-cc-pvdz
 ---------------------------------

 -------------
 pBTTT_140.pdb
 -------------
 Symbolic Z-matrix:
 Charge =  0 Multiplicity = 1

 SCF Done:  E(RHF) =  -1649.50692459     A.U. after   18 cycles
 SCF Done:  E(RHF) =  -1649.57594150     A.U. after   16 cycles
 SCF Done:  E(RHF) =  -1649.62589902     A.U. after   16 cycles
 SCF Done:  E(RHF) =  -1649.63750852     A.U. after   15 cycles
 SCF Done:  E(RHF) =  -1649.64094280     A.U. after   15 cycles
 SCF Done:  E(RHF) =  -1649.64199103     A.U. after   15 cycles
 SCF Done:  E(RHF) =  -1649.64216780     A.U. after   15 cycles
 SCF Done:  E(RHF) =  -1649.64251523     A.U. after   14 cycles
 SCF Done:  E(RHF) =  -1649.64248270     A.U. after   14 cycles
 SCF Done:  E(RHF) =  -1649.64256154     A.U. after   13 cycles
 SCF Done:  E(RHF) =  -1649.64256661     A.U. after   11 cycles
 SCF Done:  E(RHF) =  -1649.64256779     A.U. after   10 cycles
 SCF Done:  E(RHF) =  -1649.64256785     A.U. after    9 cycles
 Optimization completed.
    -- Stationary point found.

                         Standard orientation:
 ---------------------------------------------------------------------
 Center     Atomic      Atomic             Coordinates (Angstroms)
 Number     Number       Type             X           Y           Z
 ---------------------------------------------------------------------
      1          6           0       -3.932849    0.828526    0.164464
      2          6           0       -2.525877    1.092513    0.283911
      3          6           0       -1.741441    0.040916   -0.057260
      4          6           0       -4.182110   -0.425847   -0.262578
      5          1           0       -4.699626    1.553638    0.393704
      6         16           0       -2.734094   -1.312880   -0.550246
      7          1           0       -5.143081   -0.879627   -0.434539
      8          6           0       -0.278735   -0.037074   -0.034630
      9         16           0        0.528230   -1.503725    0.514665
     10          6           0        2.083859   -0.778468    0.251138
     11          6           0        1.956702    0.500946   -0.203802
     12          6           0        0.601854    0.932884   -0.374417
     13          1           0        0.302715    1.903428   -0.731092
     14         16           0        3.512635    1.229046   -0.463411
     15          6           0        4.305463   -0.235503    0.056702
     16          6           0        3.442469   -1.213191    0.403682
     17          1           0        5.381141   -0.280923    0.073566
     18          1           0        3.746026   -2.187765    0.749727
     19          8           0       -2.021885    2.280134    0.687602
     20          1           0       -2.696441    2.816897    1.068423
 ---------------------------------------------------------------------

 The electronic state is 1-A.
 Alpha  occ. eigenvalues --  -91.99097 -91.98603 -91.98535 -20.61192 -11.31794
 Alpha  occ. eigenvalues --  -11.28571 -11.28414 -11.27329 -11.27286 -11.26830
 Alpha  occ. eigenvalues --  -11.26679 -11.25615 -11.25422 -11.24997  -8.99306
 Alpha  occ. eigenvalues --   -8.98786  -8.98714  -6.67475  -6.67382  -6.67182
 Alpha  occ. eigenvalues --   -6.66953  -6.66881  -6.66875  -6.66800  -6.66669
 Alpha  occ. eigenvalues --   -6.66589  -1.43131  -1.21290  -1.18553  -1.12594
 Alpha  occ. eigenvalues --   -1.03031  -1.02016  -0.98807  -0.95538  -0.94258
 Alpha  occ. eigenvalues --   -0.82747  -0.81281  -0.76986  -0.75098  -0.72308
 Alpha  occ. eigenvalues --   -0.69773  -0.66878  -0.66390  -0.62236  -0.61291
 Alpha  occ. eigenvalues --   -0.58351  -0.56334  -0.55980  -0.54111  -0.53051
 Alpha  occ. eigenvalues --   -0.52323  -0.50995  -0.49465  -0.48465  -0.46464
 Alpha  occ. eigenvalues --   -0.45735  -0.38682  -0.35587  -0.33886  -0.31831
 Alpha  occ. eigenvalues --   -0.28013
 Alpha virt. eigenvalues --    0.02723   0.03739   0.03895   0.05103   0.05117
 Alpha virt. eigenvalues --    0.06333   0.07520   0.08241   0.08634   0.09392
 Alpha virt. eigenvalues --    0.10165   0.10504   0.10682   0.10994   0.11409

 Mulliken charges:
               1
     1  C    0.596342
     2  C    0.226843
     3  C    0.805194
     4  C   -0.316681
     5  H   -0.458362
     6  S    0.469905
     7  H   -0.343847
     8  C    0.134379
     9  S    0.443531
    10  C   -0.737050
    11  C   -0.006256
    12  C    0.150760
    13  H   -0.455529
    14  S    0.588070
    15  C   -0.110426
    16  C    0.451769
    17  H   -0.377990
    18  H   -0.320021
    19  O   -0.911403
    20  H    0.170774
 Sum of Mulliken charges =  -0.00000

 Dipole moment (field-independent basis, Debye):
    X=             -2.2048    Y=              1.1396    Z=              0.6609  Tot=              2.5684
 Quadrupole moment (field-independent basis, Debye-Ang):
   XX=            -77.6911   YY=            -97.0825   ZZ=           -108.2240
   XY=            -10.3953   XZ=             -1.0736   YZ=              0.9093

 Normal termination of Gaussian 16 at Mon Oct 25 23:32:43 2021.
