 Gaussian 16, Revision C.01,
 Gaussian 16:  ES64L-G16RevC.01  3-Jul-2019

 ---------------------------------
 # opt=modredundant hf/aug-cc-pvdz
 ---------------------------------

 --------------
 pBTTT_-120.pdb
 --------------
 Symbolic Z-matrix:
 Charge =  0 Multiplicity = 1

 SCF Done:  E(RHF) =  -1649.50546314     A.U. after   18 cycles
 SCF Done:  E(RHF) =  -1649.57462693     A.U. after   15 cycles
 SCF Done:  E(RHF) =  -1649.62533382     A.U. after   16 cycles
 SCF Done:  E(RHF) =  -1649.63694919     A.U. after   15 cycles
 SCF Done:  E(RHF) =  -1649.64037421     A.U. after   15 cycles
 SCF Done:  E(RHF) =  -1649.64124226     A.U. after   14 cycles
 SCF Done:  E(RHF) =  -1649.64161042     A.U. after   15 cycles
 SCF Done:  E(RHF) =  -1649.64191903     A.U. after   13 cycles
 SCF Done:  E(RHF) =  -1649.64194922     A.U. after   13 cycles
 SCF Done:  E(RHF) =  -1649.64200440     A.U. after   12 cycles
 SCF Done:  E(RHF) =  -1649.64200718     A.U. after   11 cycles
 SCF Done:  E(RHF) =  -1649.64200942     A.U. after   10 cycles
 Optimization completed.
    -- Stationary point found.

                         Standard orientation:
 ---------------------------------------------------------------------
 Center     Atomic      Atomic             Coordinates (Angstroms)
 Number     Number       Type             X           Y           Z
 ---------------------------------------------------------------------
      1          6           0        3.938472    0.773060    0.237701
      2          6           0        2.532626    1.016911    0.415173
      3          6           0        1.742987    0.038129   -0.086730
      4          6           0        4.177313   -0.397082   -0.388443
      5          1           0        4.711162    1.449486    0.572074
      6         16           0        2.723636   -1.226456   -0.794080
      7          1           0        5.135420   -0.817629   -0.642338
      8          6           0        0.277032   -0.041503   -0.053338
      9         16           0       -0.527190   -1.389356    0.744924
     10          6           0       -2.083167   -0.716847    0.369382
     11          6           0       -1.958257    0.463542   -0.302948
     12          6           0       -0.602606    0.854647   -0.552660
     13          1           0       -0.301011    1.748332   -1.072900
     14         16           0       -3.514827    1.137512   -0.679183
     15          6           0       -4.305589   -0.212335    0.092563
     16          6           0       -3.442095   -1.116007    0.600863
     17          1           0       -5.381234   -0.251932    0.122979
     18          1           0       -3.744911   -2.014627    1.113137
     19          8           0        2.036140    2.118347    1.018443
     20          1           0        2.725243    2.617302    1.423541
 ---------------------------------------------------------------------

 The electronic state is 1-A.
 Alpha  occ. eigenvalues --  -91.99001 -91.98637 -91.98490 -20.61012 -11.31800
 Alpha  occ. eigenvalues --  -11.28420 -11.28397 -11.27391 -11.27031 -11.26849
 Alpha  occ. eigenvalues --  -11.26703 -11.25525 -11.25431 -11.25193  -8.99198
 Alpha  occ. eigenvalues --   -8.98820  -8.98657  -6.67366  -6.67273  -6.67074
 Alpha  occ. eigenvalues --   -6.66987  -6.66909  -6.66822  -6.66741  -6.66703
 Alpha  occ. eigenvalues --   -6.66532  -1.43001  -1.21279  -1.18449  -1.12587
 Alpha  occ. eigenvalues --   -1.02922  -1.01999  -0.98676  -0.95589  -0.94249
 Alpha  occ. eigenvalues --   -0.82627  -0.81159  -0.77009  -0.74996  -0.72290
 Alpha  occ. eigenvalues --   -0.69683  -0.66783  -0.66493  -0.62167  -0.61110
 Alpha  occ. eigenvalues --   -0.58306  -0.56323  -0.56011  -0.53930  -0.53033
 Alpha  occ. eigenvalues --   -0.52668  -0.50723  -0.49341  -0.48585  -0.46151
 Alpha  occ. eigenvalues --   -0.45806  -0.38477  -0.35167  -0.33379  -0.31759
 Alpha  occ. eigenvalues --   -0.28954
 Alpha virt. eigenvalues --    0.02752   0.03725   0.03942   0.05019   0.05096
 Alpha virt. eigenvalues --    0.06244   0.08084   0.08171   0.08572   0.09148
 Alpha virt. eigenvalues --    0.10080   0.10333   0.10501   0.10963   0.11315

 Mulliken charges:
               1
     1  C    0.619200
     2  C    0.277400
     3  C    0.739696
     4  C   -0.318809
     5  H   -0.452497
     6  S    0.417407
     7  H   -0.339712
     8  C    0.274127
     9  S    0.404797
    10  C   -0.811271
    11  C   -0.090346
    12  C    0.088964
    13  H   -0.430846
    14  S    0.623362
    15  C   -0.088547
    16  C    0.547119
    17  H   -0.377155
    18  H   -0.322612
    19  O   -0.924861
    20  H    0.164583
 Sum of Mulliken charges =  -0.00000

 Dipole moment (field-independent basis, Debye):
    X=              2.1531    Y=              1.0718    Z=              0.7382  Tot=              2.5159
 Quadrupole moment (field-independent basis, Debye-Ang):
   XX=            -77.5540   YY=            -99.0313   ZZ=           -106.3503
   XY=              9.7245   XZ=              0.8879   YZ=              0.4494

 1\1\GINC-CX3-6-6\FOpt\RHF\Aug-CC-pVDZ\C10H6O1S3\NS5018\25-Oct-2021\0\\
 # opt=modredundant hf/aug-cc-pvdz\\pBTTT_-120.pdb\\0,1\C,-4.1533424523
 ,-1.3392071169,-0.0497580392\C,-2.8464977045,-0.9599949226,-0.51421240
 81\C,-1.9852597414,-1.9990866005,-0.6237885843\C,-4.2502294935,-2.6659
 478241,0.1709365398\H,-4.9625902128,-0.6398845673,0.100151141\S,-2.773
 9203555,-3.4895793145,-0.1572739341\H,-5.1130514121,-3.2083856455,0.51
 82006969\C,-0.5924763382,-1.968625619,-1.0882323973\S,-0.0982893255,-2
 .9059125288,-2.4946370915\C,1.5249045278,-2.3054689302,-2.3565212838\C

 Normal termination of Gaussian 16 at Mon Oct 25 22:44:25 2021.
