 Gaussian 16, Revision C.01,
 Gaussian 16:  ES64L-G16RevC.01  3-Jul-2019

 ---------------------------------
 # opt=modredundant hf/aug-cc-pvdz
 ---------------------------------

 -------------
 pBTTT_-85.pdb
 -------------
 Symbolic Z-matrix:
 Charge =  0 Multiplicity = 1

 SCF Done:  E(RHF) =  -1649.50418833     A.U. after   18 cycles
 SCF Done:  E(RHF) =  -1649.57378594     A.U. after   15 cycles
 SCF Done:  E(RHF) =  -1649.62501651     A.U. after   16 cycles
 SCF Done:  E(RHF) =  -1649.63657919     A.U. after   15 cycles
 SCF Done:  E(RHF) =  -1649.63990269     A.U. after   15 cycles
 SCF Done:  E(RHF) =  -1649.64070399     A.U. after   14 cycles
 SCF Done:  E(RHF) =  -1649.64112958     A.U. after   15 cycles
 SCF Done:  E(RHF) =  -1649.64138994     A.U. after   13 cycles
 SCF Done:  E(RHF) =  -1649.64139402     A.U. after   13 cycles
 SCF Done:  E(RHF) =  -1649.64145752     A.U. after   12 cycles
 SCF Done:  E(RHF) =  -1649.64146105     A.U. after   11 cycles
 SCF Done:  E(RHF) =  -1649.64146307     A.U. after   10 cycles
 SCF Done:  E(RHF) =  -1649.64146318     A.U. after    9 cycles
 Optimization completed.
    -- Stationary point found.

                         Standard orientation:
 ---------------------------------------------------------------------
 Center     Atomic      Atomic             Coordinates (Angstroms)
 Number     Number       Type             X           Y           Z
 ---------------------------------------------------------------------
      1          6           0        3.977377    0.372193   -0.541028
      2          6           0        2.590651    0.713307   -0.712519
      3          6           0        1.744387   -0.096366   -0.035422
      4          6           0        4.142235   -0.692939    0.269891
      5          1           0        4.789613    0.906780   -1.011048
      6         16           0        2.642031   -1.311023    0.845622
      7          1           0        5.071650   -1.153263    0.559483
      8          6           0        0.273797   -0.031479    0.014320
      9         16           0       -0.532521    1.029238    1.162041
     10          6           0       -2.086951    0.507951    0.593161
     11          6           0       -1.960716   -0.417098   -0.401867
     12          6           0       -0.603442   -0.732773   -0.736561
     13          1           0       -0.298475   -1.435640   -1.494474
     14         16           0       -3.516206   -0.938857   -0.974629
     15          6           0       -4.308712    0.121433    0.161153
     16          6           0       -3.447275    0.825696    0.924103
     17          1           0       -5.384475    0.157458    0.192903
     18          1           0       -3.751975    1.530825    1.680091
     19          8           0        2.158548    1.736251   -1.478148
     20          1           0        2.884311    2.214550   -1.841700
 ---------------------------------------------------------------------

 The electronic state is 1-A.
 Alpha  occ. eigenvalues --  -91.98957 -91.98656 -91.98391 -20.60918 -11.31768
 Alpha  occ. eigenvalues --  -11.28370 -11.28364 -11.27442 -11.26861 -11.26822
 Alpha  occ. eigenvalues --  -11.26694 -11.25456 -11.25429 -11.25370  -8.99142
 Alpha  occ. eigenvalues --   -8.98840  -8.98555  -6.67308  -6.67216  -6.67018
 Alpha  occ. eigenvalues --   -6.67007  -6.66929  -6.66723  -6.66718  -6.66637
 Alpha  occ. eigenvalues --   -6.66429  -1.42959  -1.21270  -1.18378  -1.12581
 Alpha  occ. eigenvalues --   -1.02810  -1.01994  -0.98583  -0.95677  -0.94213
 Alpha  occ. eigenvalues --   -0.82519  -0.81117  -0.77040  -0.75003  -0.72066
 Alpha  occ. eigenvalues --   -0.69736  -0.66809  -0.66457  -0.62038  -0.60979
 Alpha  occ. eigenvalues --   -0.58420  -0.56379  -0.56045  -0.53663  -0.53330
 Alpha  occ. eigenvalues --   -0.52658  -0.50648  -0.49281  -0.48604  -0.45891
 Alpha  occ. eigenvalues --   -0.45792  -0.38344  -0.34888  -0.32330  -0.31734
 Alpha  occ. eigenvalues --   -0.30189
 Alpha virt. eigenvalues --    0.02775   0.03701   0.03991   0.04905   0.05096
 Alpha virt. eigenvalues --    0.06234   0.07987   0.08451   0.08822   0.09001
 Alpha virt. eigenvalues --    0.09676   0.10289   0.10405   0.10832   0.11469

 Mulliken charges:
               1
     1  C    0.660997
     2  C    0.432936
     3  C    0.451206
     4  C   -0.318936
     5  H   -0.451956
     6  S    0.350245
     7  H   -0.329248
     8  C    0.548365
     9  S    0.388849
    10  C   -0.801450
    11  C   -0.238682
    12  C    0.032614
    13  H   -0.437043
    14  S    0.649053
    15  C   -0.086563
    16  C    0.635380
    17  H   -0.377612
    18  H   -0.326484
    19  O   -0.944851
    20  H    0.163180
 Sum of Mulliken charges =  -0.00000

 Dipole moment (field-independent basis, Debye):
    X=              2.1774    Y=              0.8898    Z=             -0.7728  Tot=              2.4759
 Quadrupole moment (field-independent basis, Debye-Ang):
   XX=            -76.8678   YY=           -102.2635   ZZ=           -103.5692
   XY=              1.3578   XZ=             -7.7380   YZ=              0.0281

 Normal termination of Gaussian 16 at Mon Oct 25 22:53:08 2021.
