 Gaussian 16, Revision C.01,
 Gaussian 16:  ES64L-G16RevC.01  3-Jul-2019

 ---------------------------------
 # opt=modredundant hf/aug-cc-pvdz
 ---------------------------------

 ------------
 pBTTT_75.pdb
 ------------
 Symbolic Z-matrix:
 Charge =  0 Multiplicity = 1

 SCF Done:  E(RHF) =  -1649.50448356     A.U. after   18 cycles
 SCF Done:  E(RHF) =  -1649.57388898     A.U. after   15 cycles
 SCF Done:  E(RHF) =  -1649.62483049     A.U. after   16 cycles
 SCF Done:  E(RHF) =  -1649.63650386     A.U. after   15 cycles
 SCF Done:  E(RHF) =  -1649.63995073     A.U. after   15 cycles
 SCF Done:  E(RHF) =  -1649.64089744     A.U. after   14 cycles
 SCF Done:  E(RHF) =  -1649.64122110     A.U. after   15 cycles
 SCF Done:  E(RHF) =  -1649.64151675     A.U. after   13 cycles
 SCF Done:  E(RHF) =  -1649.64151870     A.U. after   13 cycles
 SCF Done:  E(RHF) =  -1649.64158087     A.U. after   13 cycles
 SCF Done:  E(RHF) =  -1649.64158409     A.U. after   11 cycles
 SCF Done:  E(RHF) =  -1649.64158646     A.U. after   10 cycles
 SCF Done:  E(RHF) =  -1649.64158656     A.U. after    9 cycles
 Optimization completed.
    -- Stationary point found.

                         Standard orientation:
 ---------------------------------------------------------------------
 Center     Atomic      Atomic             Coordinates (Angstroms)
 Number     Number       Type             X           Y           Z
 ---------------------------------------------------------------------
      1          6           0        3.990797    0.347058    0.486176
      2          6           0        2.613251    0.720608    0.661357
      3          6           0        1.743263   -0.098673    0.026515
      4          6           0        4.125880   -0.753218   -0.282384
      5          1           0        4.818527    0.884027    0.925469
      6         16           0        2.607115   -1.363491   -0.816219
      7          1           0        5.042797   -1.242697   -0.563803
      8          6           0        0.273576   -0.020197   -0.004298
      9         16           0       -0.533540    1.194721   -0.985881
     10          6           0       -2.087627    0.591322   -0.503595
     11          6           0       -1.960718   -0.472839    0.340862
     12          6           0       -0.603415   -0.829939    0.629911
     13          1           0       -0.298534   -1.636732    1.276179
     14         16           0       -3.515864   -1.076294    0.827946
     15          6           0       -4.309167    0.143338   -0.134208
     16          6           0       -3.448108    0.954975   -0.782280
     17          1           0       -5.384954    0.182466   -0.160963
     18          1           0       -3.753282    1.765877   -1.423297
     19          8           0        2.209672    1.777869    1.395563
     20          1           0        2.948304    2.250520    1.740054
 ---------------------------------------------------------------------

 The electronic state is 1-A.
 Alpha  occ. eigenvalues --  -91.98998 -91.98644 -91.98377 -20.60928 -11.31767
 Alpha  occ. eigenvalues --  -11.28424 -11.28367 -11.27424 -11.26872 -11.26843
 Alpha  occ. eigenvalues --  -11.26685 -11.25483 -11.25419 -11.25351  -8.99183
 Alpha  occ. eigenvalues --   -8.98828  -8.98543  -6.67349  -6.67257  -6.67059
 Alpha  occ. eigenvalues --   -6.66995  -6.66917  -6.66710  -6.66706  -6.66624
 Alpha  occ. eigenvalues --   -6.66416  -1.42968  -1.21270  -1.18406  -1.12585
 Alpha  occ. eigenvalues --   -1.02829  -1.01995  -0.98616  -0.95687  -0.94198
 Alpha  occ. eigenvalues --   -0.82543  -0.81153  -0.77046  -0.75046  -0.71955
 Alpha  occ. eigenvalues --   -0.69786  -0.66807  -0.66471  -0.62019  -0.60994
 Alpha  occ. eigenvalues --   -0.58494  -0.56385  -0.56052  -0.53701  -0.53251
 Alpha  occ. eigenvalues --   -0.52657  -0.50710  -0.49318  -0.48563  -0.45944
 Alpha  occ. eigenvalues --   -0.45764  -0.38363  -0.34973  -0.32677  -0.31738
 Alpha  occ. eigenvalues --   -0.29763
 Alpha virt. eigenvalues --    0.02782   0.03707   0.03994   0.04921   0.05098
 Alpha virt. eigenvalues --    0.06240   0.07983   0.08467   0.08772   0.08906
 Alpha virt. eigenvalues --    0.09873   0.10311   0.10449   0.10814   0.11374

 Mulliken charges:
               1
     1  C    0.594223
     2  C    0.494383
     3  C    0.454778
     4  C   -0.272613
     5  H   -0.453405
     6  S    0.364098
     7  H   -0.332875
     8  C    0.444191
     9  S    0.403223
    10  C   -0.776169
    11  C   -0.217204
    12  C    0.096561
    13  H   -0.450182
    14  S    0.638981
    15  C   -0.088821
    16  C    0.588668
    17  H   -0.377058
    18  H   -0.323272
    19  O   -0.954248
    20  H    0.166742
 Sum of Mulliken charges =  -0.00000

 Dipole moment (field-independent basis, Debye):
    X=              2.2285    Y=              0.8785    Z=              0.7164  Tot=              2.5002
 Quadrupole moment (field-independent basis, Debye-Ang):
   XX=            -76.6060   YY=           -101.0137   ZZ=           -105.0158
   XY=              0.8668   XZ=              7.0048   YZ=             -0.0938

 Normal termination of Gaussian 16 at Mon Oct 25 23:40:59 2021.
