 Gaussian 16, Revision C.01,
 Gaussian 16:  ES64L-G16RevC.01  3-Jul-2019

 ---------------------------------
 # opt=modredundant hf/aug-cc-pvdz
 ---------------------------------

 --------------
 pBTTT_-130.pdb
 --------------
 Symbolic Z-matrix:
 Charge =  0 Multiplicity = 1

 SCF Done:  E(RHF) =  -1649.50618907     A.U. after   18 cycles
 SCF Done:  E(RHF) =  -1649.57520052     A.U. after   16 cycles
 SCF Done:  E(RHF) =  -1649.62567652     A.U. after   16 cycles
 SCF Done:  E(RHF) =  -1649.63726611     A.U. after   15 cycles
 SCF Done:  E(RHF) =  -1649.64069917     A.U. after   15 cycles
 SCF Done:  E(RHF) =  -1649.64157939     A.U. after   15 cycles
 SCF Done:  E(RHF) =  -1649.64192519     A.U. after   15 cycles
 SCF Done:  E(RHF) =  -1649.64224336     A.U. after   13 cycles
 SCF Done:  E(RHF) =  -1649.64227168     A.U. after   13 cycles
 SCF Done:  E(RHF) =  -1649.64232606     A.U. after   12 cycles
 SCF Done:  E(RHF) =  -1649.64232887     A.U. after   11 cycles
 SCF Done:  E(RHF) =  -1649.64233089     A.U. after   10 cycles
 Optimization completed.
    -- Stationary point found.

                         Standard orientation:
 ---------------------------------------------------------------------
 Center     Atomic      Atomic             Coordinates (Angstroms)
 Number     Number       Type             X           Y           Z
 ---------------------------------------------------------------------
      1          6           0        3.934119    0.804948    0.204531
      2          6           0        2.527072    1.059431    0.349692
      3          6           0        1.742078    0.040000   -0.074539
      4          6           0        4.180463   -0.411864   -0.321636
      5          1           0        4.702602    1.508659    0.488381
      6         16           0        2.731098   -1.273519   -0.672557
      7          1           0        5.140905   -0.850374   -0.532320
      8          6           0        0.278011   -0.040330   -0.047786
      9         16           0       -0.527054   -1.453820    0.627745
     10          6           0       -2.083021   -0.751605    0.309881
     11          6           0       -1.957250    0.484290   -0.253416
     12          6           0       -0.602059    0.897377   -0.465735
     13          1           0       -0.301675    1.833848   -0.904363
     14         16           0       -3.513629    1.188556   -0.569927
     15          6           0       -4.305158   -0.225530    0.076100
     16          6           0       -3.441715   -1.170680    0.502681
     17          1           0       -5.380811   -0.268217    0.100920
     18          1           0       -3.744711   -2.111844    0.931719
     19          8           0        2.024729    2.208815    0.852037
     20          1           0        2.703974    2.721711    1.256554
 ---------------------------------------------------------------------

 The electronic state is 1-A.
 Alpha  occ. eigenvalues --  -91.99050 -91.98621 -91.98519 -20.61086 -11.31794
 Alpha  occ. eigenvalues --  -11.28488 -11.28404 -11.27360 -11.27159 -11.26840
 Alpha  occ. eigenvalues --  -11.26695 -11.25569 -11.25427 -11.25099  -8.99253
 Alpha  occ. eigenvalues --   -8.98804  -8.98691  -6.67421  -6.67329  -6.67129
 Alpha  occ. eigenvalues --   -6.66971  -6.66893  -6.66857  -6.66776  -6.66687
 Alpha  occ. eigenvalues --   -6.66566  -1.43047  -1.21286  -1.18500  -1.12592
 Alpha  occ. eigenvalues --   -1.02978  -1.02008  -0.98740  -0.95561  -0.94256
 Alpha  occ. eigenvalues --   -0.82689  -0.81206  -0.76998  -0.75042  -0.72306
 Alpha  occ. eigenvalues --   -0.69717  -0.66808  -0.66467  -0.62204  -0.61193
 Alpha  occ. eigenvalues --   -0.58321  -0.56330  -0.55991  -0.54025  -0.53011
 Alpha  occ. eigenvalues --   -0.52518  -0.50839  -0.49400  -0.48537  -0.46307
 Alpha  occ. eigenvalues --   -0.45779  -0.38572  -0.35374  -0.33681  -0.31803
 Alpha  occ. eigenvalues --   -0.28447
 Alpha virt. eigenvalues --    0.02741   0.03732   0.03919   0.05075   0.05099
 Alpha virt. eigenvalues --    0.06270   0.07813   0.08203   0.08589   0.09276
 Alpha virt. eigenvalues --    0.10114   0.10471   0.10568   0.10970   0.11345

 Mulliken charges:
               1
     1  C    0.597389
     2  C    0.258647
     3  C    0.780090
     4  C   -0.312135
     5  H   -0.453977
     6  S    0.443302
     7  H   -0.341000
     8  C    0.198792
     9  S    0.421571
    10  C   -0.783978
    11  C   -0.035178
    12  C    0.103873
    13  H   -0.442850
    14  S    0.608537
    15  C   -0.094190
    16  C    0.499371
    17  H   -0.377673
    18  H   -0.320710
    19  O   -0.917630
    20  H    0.167749
 Sum of Mulliken charges =  -0.00000

 Dipole moment (field-independent basis, Debye):
    X=              2.1728    Y=              1.0987    Z=              0.7228  Tot=              2.5398
 Quadrupole moment (field-independent basis, Debye-Ang):
   XX=            -77.6652   YY=            -98.0479   ZZ=           -107.2875
   XY=             10.0476   XZ=              1.0337   YZ=              0.7071

 Normal termination of Gaussian 16 at Mon Oct 25 22:32:35 2021.
