 Gaussian 16, Revision C.01,
 Gaussian 16:  ES64L-G16RevC.01  3-Jul-2019

 ---------------------------------
 # opt=modredundant hf/aug-cc-pvdz
 ---------------------------------

 -------------
 pBTTT_135.pdb
 -------------
 Symbolic Z-matrix:
 Charge =  0 Multiplicity = 1

 SCF Done:  E(RHF) =  -1649.50677600     A.U. after   18 cycles
 SCF Done:  E(RHF) =  -1649.57583425     A.U. after   16 cycles
 SCF Done:  E(RHF) =  -1649.62584054     A.U. after   16 cycles
 SCF Done:  E(RHF) =  -1649.63743748     A.U. after   15 cycles
 SCF Done:  E(RHF) =  -1649.64085544     A.U. after   15 cycles
 SCF Done:  E(RHF) =  -1649.64189264     A.U. after   15 cycles
 SCF Done:  E(RHF) =  -1649.64206746     A.U. after   15 cycles
 SCF Done:  E(RHF) =  -1649.64241379     A.U. after   14 cycles
 SCF Done:  E(RHF) =  -1649.64238052     A.U. after   14 cycles
 SCF Done:  E(RHF) =  -1649.64245954     A.U. after   13 cycles
 SCF Done:  E(RHF) =  -1649.64246489     A.U. after   11 cycles
 SCF Done:  E(RHF) =  -1649.64246601     A.U. after   10 cycles
 SCF Done:  E(RHF) =  -1649.64246607     A.U. after    9 cycles
 Optimization completed.
    -- Stationary point found.

                         Standard orientation:
 ---------------------------------------------------------------------
 Center     Atomic      Atomic             Coordinates (Angstroms)
 Number     Number       Type             X           Y           Z
 ---------------------------------------------------------------------
      1          6           0       -3.933154    0.817713    0.185197
      2          6           0       -2.526038    1.077163    0.316606
      3          6           0       -1.741708    0.040602   -0.066570
      4          6           0       -4.181393   -0.419085   -0.290981
      5          1           0       -4.700549    1.532823    0.442166
      6         16           0       -2.732992   -1.294222   -0.611279
      7          1           0       -5.142287   -0.865630   -0.481563
      8          6           0       -0.278415   -0.038829   -0.042159
      9         16           0        0.527453   -1.480482    0.570596
     10          6           0        2.083299   -0.765993    0.280381
     11          6           0        1.956916    0.493116   -0.228531
     12          6           0        0.601926    0.916082   -0.420537
     13          1           0        0.302176    1.870712   -0.818030
     14         16           0        3.513103    1.210069   -0.516115
     15          6           0        4.305205   -0.230960    0.066768
     16          6           0        3.441933   -1.193447    0.453157
     17          1           0        5.380870   -0.275209    0.087652
     18          1           0        3.745164   -2.152429    0.840567
     19          8           0       -2.022439    2.246930    0.769026
     20          1           0       -2.698301    2.770285    1.165806
 ---------------------------------------------------------------------

 The electronic state is 1-A.
 Alpha  occ. eigenvalues --  -91.99074 -91.98612 -91.98529 -20.61135 -11.31792
 Alpha  occ. eigenvalues --  -11.28528 -11.28408 -11.27344 -11.27224 -11.26836
 Alpha  occ. eigenvalues --  -11.26688 -11.25592 -11.25425 -11.25049  -8.99280
 Alpha  occ. eigenvalues --   -8.98795  -8.98704  -6.67448  -6.67356  -6.67156
 Alpha  occ. eigenvalues --   -6.66962  -6.66885  -6.66871  -6.66790  -6.66678
 Alpha  occ. eigenvalues --   -6.66579  -1.43084  -1.21289  -1.18527  -1.12594
 Alpha  occ. eigenvalues --   -1.03005  -1.02012  -0.98774  -0.95549  -0.94258
 Alpha  occ. eigenvalues --   -0.82719  -0.81240  -0.76992  -0.75070  -0.72308
 Alpha  occ. eigenvalues --   -0.69742  -0.66839  -0.66434  -0.62221  -0.61241
 Alpha  occ. eigenvalues --   -0.58335  -0.56333  -0.55984  -0.54070  -0.53028
 Alpha  occ. eigenvalues --   -0.52419  -0.50913  -0.49432  -0.48504  -0.46386
 Alpha  occ. eigenvalues --   -0.45760  -0.38627  -0.35482  -0.33794  -0.31820
 Alpha  occ. eigenvalues --   -0.28219
 Alpha virt. eigenvalues --    0.02733   0.03736   0.03907   0.05099   0.05101
 Alpha virt. eigenvalues --    0.06296   0.07664   0.08223   0.08609   0.09338
 Alpha virt. eigenvalues --    0.10133   0.10497   0.10628   0.10978   0.11374

 Mulliken charges:
               1
     1  C    0.594379
     2  C    0.243312
     3  C    0.795337
     4  C   -0.313316
     5  H   -0.455760
     6  S    0.457090
     7  H   -0.341991
     8  C    0.163638
     9  S    0.432892
    10  C   -0.761435
    11  C   -0.018647
    12  C    0.123140
    13  H   -0.449333
    14  S    0.599162
    15  C   -0.101064
    16  C    0.475288
    17  H   -0.377868
    18  H   -0.320220
    19  O   -0.913643
    20  H    0.169042
 Sum of Mulliken charges =  -0.00000

 Dipole moment (field-independent basis, Debye):
    X=             -2.1867    Y=              1.1167    Z=              0.6996  Tot=              2.5531
 Quadrupole moment (field-independent basis, Debye-Ang):
   XX=            -77.6918   YY=            -97.5648   ZZ=           -107.7549
   XY=            -10.2150   XZ=             -1.0743   YZ=              0.8237

 Normal termination of Gaussian 16 at Mon Oct 25 23:32:59 2021.
