 Gaussian 16, Revision C.01,
 Gaussian 16:  ES64L-G16RevC.01  3-Jul-2019

 ---------------------------------
 # opt=modredundant hf/aug-cc-pvdz
 ---------------------------------

 ------------
 pBTTT_15.pdb
 ------------
 Symbolic Z-matrix:
 Charge =  0 Multiplicity = 1

 SCF Done:  E(RHF) =  -1649.50838280     A.U. after   18 cycles
 SCF Done:  E(RHF) =  -1649.57686108     A.U. after   16 cycles
 SCF Done:  E(RHF) =  -1649.62571421     A.U. after   16 cycles
 SCF Done:  E(RHF) =  -1649.63754989     A.U. after   16 cycles
 SCF Done:  E(RHF) =  -1649.64095063     A.U. after   15 cycles
 SCF Done:  E(RHF) =  -1649.64194958     A.U. after   15 cycles
 SCF Done:  E(RHF) =  -1649.64221471     A.U. after   15 cycles
 SCF Done:  E(RHF) =  -1649.64252013     A.U. after   14 cycles
 SCF Done:  E(RHF) =  -1649.64252676     A.U. after   14 cycles
 SCF Done:  E(RHF) =  -1649.64257310     A.U. after   13 cycles
 SCF Done:  E(RHF) =  -1649.64257516     A.U. after   11 cycles
 SCF Done:  E(RHF) =  -1649.64257737     A.U. after   10 cycles
 SCF Done:  E(RHF) =  -1649.64257717     A.U. after    9 cycles
 SCF Done:  E(RHF) =  -1649.64257745     A.U. after    9 cycles
 SCF Done:  E(RHF) =  -1649.64257750     A.U. after    8 cycles
 Optimization completed.
    -- Stationary point found.

                         Standard orientation:
 ---------------------------------------------------------------------
 Center     Atomic      Atomic             Coordinates (Angstroms)
 Number     Number       Type             X           Y           Z
 ---------------------------------------------------------------------
      1          6           0       -4.027566    0.360488   -0.091029
      2          6           0       -2.676777    0.848852   -0.129099
      3          6           0       -1.735493   -0.119573   -0.005762
      4          6           0       -4.081902   -0.976426    0.063377
      5          1           0       -4.895698    0.996725   -0.178434
      6         16           0       -2.512101   -1.679251    0.174644
      7          1           0       -4.961214   -1.594529    0.122847
      8          6           0       -0.276055   -0.009809   -0.016601
      9         16           0        0.537345    1.541079    0.181390
     10          6           0        2.089352    0.767063    0.102365
     11          6           0        1.962630   -0.579464   -0.067138
     12          6           0        0.608359   -1.032460   -0.137050
     13          1           0        0.317359   -2.061065   -0.273682
     14         16           0        3.517772   -1.348958   -0.162369
     15          6           0        4.311721    0.193451    0.031073
     16          6           0        3.448709    1.223105    0.157697
     17          1           0        5.387414    0.240302    0.040215
     18          1           0        3.753156    2.249174    0.285799
     19          8           0       -2.361328    2.153351   -0.275694
     20          1           0       -3.136510    2.685310   -0.336828
 ---------------------------------------------------------------------

 The electronic state is 1-A.
 Alpha  occ. eigenvalues --  -91.99171 -91.98458 -91.98338 -20.61418 -11.31996
 Alpha  occ. eigenvalues --  -11.28897 -11.28627 -11.27510 -11.27164 -11.26648
 Alpha  occ. eigenvalues --  -11.26363 -11.25789 -11.25270 -11.24944  -8.99395
 Alpha  occ. eigenvalues --   -8.98641  -8.98486  -6.67568  -6.67476  -6.67272
 Alpha  occ. eigenvalues --   -6.66809  -6.66732  -6.66645  -6.66563  -6.66525
 Alpha  occ. eigenvalues --   -6.66351  -1.43485  -1.21195  -1.18668  -1.12529
 Alpha  occ. eigenvalues --   -1.03153  -1.01936  -0.98950  -0.95628  -0.94057
 Alpha  occ. eigenvalues --   -0.82857  -0.81664  -0.77101  -0.75369  -0.71214
 Alpha  occ. eigenvalues --   -0.70205  -0.67288  -0.66309  -0.62085  -0.61594
 Alpha  occ. eigenvalues --   -0.58800  -0.56346  -0.56138  -0.53981  -0.52730
 Alpha  occ. eigenvalues --   -0.52389  -0.51541  -0.49622  -0.47863  -0.46755
 Alpha  occ. eigenvalues --   -0.45362  -0.38898  -0.35943  -0.34180  -0.31651
 Alpha  occ. eigenvalues --   -0.27253
 Alpha virt. eigenvalues --    0.02704   0.03703   0.03908   0.05013   0.05144
 Alpha virt. eigenvalues --    0.06284   0.06779   0.08561   0.09390   0.09574
 Alpha virt. eigenvalues --    0.10393   0.10677   0.10761   0.11028   0.11619

 Mulliken charges:
               1
     1  C    0.668640
     2  C    0.077528
     3  C    1.060334
     4  C   -0.325677
     5  H   -0.465992
     6  S    0.506580
     7  H   -0.378453
     8  C    0.051349
     9  S    0.478934
    10  C   -0.586547
    11  C   -0.088935
    12  C    0.329243
    13  H   -0.517838
    14  S    0.507990
    15  C   -0.171197
    16  C    0.312642
    17  H   -0.384051
    18  H   -0.329443
    19  O   -0.931098
    20  H    0.185990
 Sum of Mulliken charges =  -0.00000

 Dipole moment (field-independent basis, Debye):
    X=             -2.6938    Y=              1.1725    Z=             -0.1367  Tot=              2.9411
 Quadrupole moment (field-independent basis, Debye-Ang):
   XX=            -75.6837   YY=            -96.1668   ZZ=           -110.5261
   XY=             -1.0059   XZ=              1.4303   YZ=              0.0795

 1\1\GINC-CX3-7-1\FOpt\RHF\Aug-CC-pVDZ\C10H6O1S3\NS5018\25-Oct-2021\0\\
 # opt=modredundant hf/aug-cc-pvdz\\pBTTT_15.pdb\\0,1\C,-4.1941222328,-
 1.3112912221,-0.3115155852\C,-2.8184855215,-0.9830348894,-0.5653883125
 \C,-1.9780351495,-2.0460191883,-0.5126591382\C,-4.3680838801,-2.624550
 8363,-0.068161001\H,-4.9928938032,-0.5846481609,-0.3181046794\S,-2.882
 649729,-3.4964637731,-0.1303670618\H,-5.2906265879,-3.1345130655,0.150
 0825147\C,-0.5319970923,-2.1046274653,-0.7309854589\S,0.4622310337,-0.
 6494917664,-0.7437340354\C,1.8952270883,-1.5988774222,-0.987169323\C,1

 Normal termination of Gaussian 16 at Mon Oct 25 23:13:55 2021.
