 Gaussian 16, Revision C.01,
 Gaussian 16:  ES64L-G16RevC.01  3-Jul-2019

 ---------------------------------
 # opt=modredundant hf/aug-cc-pvdz
 ---------------------------------

 --------------
 pBTTT_-125.pdb
 --------------
 Symbolic Z-matrix:
 Charge =  0 Multiplicity = 1

 SCF Done:  E(RHF) =  -1649.50583227     A.U. after   18 cycles
 SCF Done:  E(RHF) =  -1649.57492091     A.U. after   15 cycles
 SCF Done:  E(RHF) =  -1649.62551160     A.U. after   16 cycles
 SCF Done:  E(RHF) =  -1649.63711184     A.U. after   15 cycles
 SCF Done:  E(RHF) =  -1649.64054380     A.U. after   15 cycles
 SCF Done:  E(RHF) =  -1649.64141960     A.U. after   14 cycles
 SCF Done:  E(RHF) =  -1649.64177035     A.U. after   15 cycles
 SCF Done:  E(RHF) =  -1649.64208668     A.U. after   13 cycles
 SCF Done:  E(RHF) =  -1649.64211590     A.U. after   13 cycles
 SCF Done:  E(RHF) =  -1649.64217049     A.U. after   12 cycles
 SCF Done:  E(RHF) =  -1649.64217328     A.U. after   11 cycles
 SCF Done:  E(RHF) =  -1649.64217541     A.U. after   10 cycles
 Optimization completed.
    -- Stationary point found.

                         Standard orientation:
 ---------------------------------------------------------------------
 Center     Atomic      Atomic             Coordinates (Angstroms)
 Number     Number       Type             X           Y           Z
 ---------------------------------------------------------------------
      1          6           0        3.935884    0.790142    0.221922
      2          6           0        2.529253    1.039456    0.382456
      3          6           0        1.742503    0.039245   -0.081241
      4          6           0        4.179128   -0.404569   -0.354052
      5          1           0        4.706123    1.480975    0.531535
      6         16           0        2.728037   -1.251018   -0.733261
      7          1           0        5.138671   -0.834464   -0.585740
      8          6           0        0.277544   -0.041213   -0.051518
      9         16           0       -0.526941   -1.423641    0.685581
     10          6           0       -2.082971   -0.735320    0.339435
     11          6           0       -1.957732    0.474526   -0.278103
     12          6           0       -0.602336    0.877029   -0.509627
     13          1           0       -0.301377    1.793334   -0.988977
     14         16           0       -3.514254    1.164554   -0.624036
     15          6           0       -4.305293   -0.219388    0.084626
     16          6           0       -3.441754   -1.145068    0.551666
     17          1           0       -5.380939   -0.260609    0.112468
     18          1           0       -3.744588   -2.066264    1.022140
     19          8           0        2.029258    2.166059    0.935153
     20          1           0        2.713205    2.671204    1.341406
 ---------------------------------------------------------------------

 The electronic state is 1-A.
 Alpha  occ. eigenvalues --  -91.99025 -91.98629 -91.98506 -20.61046 -11.31798
 Alpha  occ. eigenvalues --  -11.28452 -11.28401 -11.27375 -11.27094 -11.26844
 Alpha  occ. eigenvalues --  -11.26700 -11.25547 -11.25429 -11.25147  -8.99225
 Alpha  occ. eigenvalues --   -8.98812  -8.98675  -6.67393  -6.67300  -6.67101
 Alpha  occ. eigenvalues --   -6.66979  -6.66902  -6.66840  -6.66760  -6.66695
 Alpha  occ. eigenvalues --   -6.66550  -1.43020  -1.21283  -1.18474  -1.12590
 Alpha  occ. eigenvalues --   -1.02950  -1.02003  -0.98708  -0.95575  -0.94253
 Alpha  occ. eigenvalues --   -0.82658  -0.81180  -0.77004  -0.75017  -0.72300
 Alpha  occ. eigenvalues --   -0.69697  -0.66790  -0.66487  -0.62186  -0.61150
 Alpha  occ. eigenvalues --   -0.58312  -0.56325  -0.56001  -0.53979  -0.53010
 Alpha  occ. eigenvalues --   -0.52606  -0.50776  -0.49369  -0.48564  -0.46228
 Alpha  occ. eigenvalues --   -0.45794  -0.38522  -0.35267  -0.33543  -0.31782
 Alpha  occ. eigenvalues --   -0.28691
 Alpha virt. eigenvalues --    0.02748   0.03729   0.03930   0.05048   0.05097
 Alpha virt. eigenvalues --    0.06253   0.07959   0.08182   0.08575   0.09212
 Alpha virt. eigenvalues --    0.10101   0.10411   0.10528   0.10967   0.11324

 Mulliken charges:
               1
     1  C    0.605988
     2  C    0.270045
     3  C    0.761764
     4  C   -0.313962
     5  H   -0.452967
     6  S    0.429681
     7  H   -0.340450
     8  C    0.236397
     9  S    0.411909
    10  C   -0.801128
    11  C   -0.058659
    12  C    0.092724
    13  H   -0.436494
    14  S    0.616444
    15  C   -0.090173
    16  C    0.523238
    17  H   -0.377416
    18  H   -0.321528
    19  O   -0.921765
    20  H    0.166351
 Sum of Mulliken charges =  -0.00000

 Dipole moment (field-independent basis, Debye):
    X=              2.1620    Y=              1.0844    Z=              0.7340  Tot=              2.5277
 Quadrupole moment (field-independent basis, Debye-Ang):
   XX=            -77.6166   YY=            -98.5302   ZZ=           -106.8249
   XY=              9.8887   XZ=              0.9694   YZ=              0.5771

 Normal termination of Gaussian 16 at Mon Oct 25 22:36:56 2021.
