 Gaussian 16, Revision C.01,
 Gaussian 16:  ES64L-G16RevC.01  3-Jul-2019

 ---------------------------------
 # opt=modredundant hf/aug-cc-pvdz
 ---------------------------------

 -------------
 pBTTT_100.pdb
 -------------
 Symbolic Z-matrix:
 Charge =  0 Multiplicity = 1

 SCF Done:  E(RHF) =  -1649.50433872     A.U. after   18 cycles
 SCF Done:  E(RHF) =  -1649.57390688     A.U. after   15 cycles
 SCF Done:  E(RHF) =  -1649.62492454     A.U. after   15 cycles
 SCF Done:  E(RHF) =  -1649.63655140     A.U. after   15 cycles
 SCF Done:  E(RHF) =  -1649.63994122     A.U. after   15 cycles
 SCF Done:  E(RHF) =  -1649.64086628     A.U. after   14 cycles
 SCF Done:  E(RHF) =  -1649.64113138     A.U. after   14 cycles
 SCF Done:  E(RHF) =  -1649.64142633     A.U. after   13 cycles
 SCF Done:  E(RHF) =  -1649.64142495     A.U. after   13 cycles
 SCF Done:  E(RHF) =  -1649.64148730     A.U. after   12 cycles
 SCF Done:  E(RHF) =  -1649.64148920     A.U. after   11 cycles
 SCF Done:  E(RHF) =  -1649.64149171     A.U. after   10 cycles
 SCF Done:  E(RHF) =  -1649.64149182     A.U. after    9 cycles
 Optimization completed.
    -- Stationary point found.

                         Standard orientation:
 ---------------------------------------------------------------------
 Center     Atomic      Atomic             Coordinates (Angstroms)
 Number     Number       Type             X           Y           Z
 ---------------------------------------------------------------------
      1          6           0       -3.957357    0.682445    0.275471
      2          6           0       -2.559553    0.908285    0.529021
      3          6           0       -1.744706    0.028553   -0.097547
      4          6           0       -4.162353   -0.375689   -0.535138
      5          1           0       -4.748318    1.290576    0.688973
      6         16           0       -2.687611   -1.120557   -1.019583
      7          1           0       -5.107857   -0.757905   -0.880783
      8          6           0       -0.274949   -0.034421   -0.043091
      9         16           0        0.530875   -1.195651    1.004902
     10          6           0        2.085641   -0.614321    0.497948
     11          6           0        1.959824    0.400875   -0.404847
     12          6           0        0.602830    0.735550   -0.721957
     13          1           0        0.298360    1.504898   -1.412274
     14         16           0        3.515584    0.984545   -0.913182
     15          6           0        4.307555   -0.174552    0.121967
     16          6           0        3.445633   -0.953948    0.807440
     17          1           0        5.383285   -0.206495    0.158659
     18          1           0        3.749817   -1.725986    1.495192
     19          8           0       -2.091492    1.901627    1.312799
     20          1           0       -2.800298    2.371840    1.718035
 ---------------------------------------------------------------------

 The electronic state is 1-A.
 Alpha  occ. eigenvalues --  -91.98939 -91.98659 -91.98425 -20.60930 -11.31783
 Alpha  occ. eigenvalues --  -11.28376 -11.28347 -11.27439 -11.26868 -11.26845
 Alpha  occ. eigenvalues --  -11.26701 -11.25456 -11.25435 -11.25336  -8.99127
 Alpha  occ. eigenvalues --   -8.98842  -8.98589  -6.67294  -6.67202  -6.67009
 Alpha  occ. eigenvalues --   -6.67004  -6.66931  -6.66752  -6.66725  -6.66671
 Alpha  occ. eigenvalues --   -6.66463  -1.42962  -1.21270  -1.18378  -1.12579
 Alpha  occ. eigenvalues --   -1.02830  -1.01991  -0.98585  -0.95646  -0.94231
 Alpha  occ. eigenvalues --   -0.82533  -0.81105  -0.77030  -0.74968  -0.72195
 Alpha  occ. eigenvalues --   -0.69686  -0.66804  -0.66462  -0.62086  -0.61000
 Alpha  occ. eigenvalues --   -0.58338  -0.56350  -0.56036  -0.53731  -0.53274
 Alpha  occ. eigenvalues --   -0.52681  -0.50623  -0.49271  -0.48624  -0.45915
 Alpha  occ. eigenvalues --   -0.45824  -0.38361  -0.34901  -0.32556  -0.31678
 Alpha  occ. eigenvalues --   -0.30032
 Alpha virt. eigenvalues --    0.02767   0.03707   0.03978   0.04926   0.05093
 Alpha virt. eigenvalues --    0.06230   0.08018   0.08405   0.08779   0.09005
 Alpha virt. eigenvalues --    0.09749   0.10260   0.10397   0.10896   0.11449

 Mulliken charges:
               1
     1  C    0.683778
     2  C    0.328049
     3  C    0.572228
     4  C   -0.347104
     5  H   -0.451868
     6  S    0.375592
     7  H   -0.331051
     8  C    0.468252
     9  S    0.383412
    10  C   -0.810552
    11  C   -0.224740
    12  C    0.060963
    13  H   -0.425642
    14  S    0.645760
    15  C   -0.087185
    16  C    0.635046
    17  H   -0.377297
    18  H   -0.327317
    19  O   -0.928897
    20  H    0.158575
 Sum of Mulliken charges =  -0.00000

 Dipole moment (field-independent basis, Debye):
    X=             -2.1398    Y=              0.9993    Z=              0.7401  Tot=              2.4749
 Quadrupole moment (field-independent basis, Debye-Ang):
   XX=            -77.2138   YY=           -101.4246   ZZ=           -104.1630
   XY=             -8.8441   XZ=             -0.4585   YZ=              0.1074

 1\1\GINC-CX3-6-2\FOpt\RHF\Aug-CC-pVDZ\C10H6O1S3\NS5018\25-Oct-2021\0\\
 # opt=modredundant hf/aug-cc-pvdz\\pBTTT_100.pdb\\0,1\C,-4.1148269973,
 -1.1722472379,-0.2097548811\C,-2.7415335429,-1.0308283678,-0.613749209
 5\C,-2.0491007,-2.1930974832,-0.6011366145\C,-4.4224569777,-2.44625495
 57,0.1080910409\H,-4.8151548889,-0.3512519011,-0.1657606829\S,-3.07844
 66238,-3.506423552,-0.0764499155\H,-5.3754579594,-2.8231868472,0.43861
 98761\C,-0.6319636619,-2.4012433139,-0.941011745\S,0.5787902753,-2.545
 090095,0.3276411907\C,1.8346075367,-2.7330645366,-0.8555044544\C,1.328

 Normal termination of Gaussian 16 at Mon Oct 25 23:36:41 2021.
