 Gaussian 16, Revision C.01,
 Gaussian 16:  ES64L-G16RevC.01  3-Jul-2019

 ---------------------------------
 # opt=modredundant hf/aug-cc-pvdz
 ---------------------------------

 -------------
 pBTTT_115.pdb
 -------------
 Symbolic Z-matrix:
 Charge =  0 Multiplicity = 1

 SCF Done:  E(RHF) =  -1649.50501780     A.U. after   18 cycles
 SCF Done:  E(RHF) =  -1649.57450580     A.U. after   15 cycles
 SCF Done:  E(RHF) =  -1649.62530828     A.U. after   16 cycles
 SCF Done:  E(RHF) =  -1649.63690938     A.U. after   15 cycles
 SCF Done:  E(RHF) =  -1649.64030131     A.U. after   15 cycles
 SCF Done:  E(RHF) =  -1649.64125610     A.U. after   15 cycles
 SCF Done:  E(RHF) =  -1649.64148453     A.U. after   14 cycles
 SCF Done:  E(RHF) =  -1649.64178609     A.U. after   13 cycles
 SCF Done:  E(RHF) =  -1649.64177693     A.U. after   13 cycles
 SCF Done:  E(RHF) =  -1649.64183916     A.U. after   12 cycles
 SCF Done:  E(RHF) =  -1649.64184297     A.U. after   11 cycles
 SCF Done:  E(RHF) =  -1649.64184496     A.U. after   10 cycles
 SCF Done:  E(RHF) =  -1649.64184510     A.U. after    9 cycles
 Optimization completed.
    -- Stationary point found.

                         Standard orientation:
 ---------------------------------------------------------------------
 Center     Atomic      Atomic             Coordinates (Angstroms)
 Number     Number       Type             X           Y           Z
 ---------------------------------------------------------------------
      1          6           0       -3.941876    0.753631    0.251728
      2          6           0       -2.537247    0.992039    0.447144
      3          6           0       -1.743478    0.036750   -0.091238
      4          6           0       -4.174880   -0.389778   -0.424065
      5          1           0       -4.717785    1.414118    0.609699
      6         16           0       -2.717690   -1.200059   -0.854346
      7          1           0       -5.130994   -0.800466   -0.700746
      8          6           0       -0.276502   -0.041027   -0.053591
      9         16           0        0.527651   -1.350592    0.805569
     10          6           0        2.083518   -0.696041    0.399769
     11          6           0        1.958817    0.451192   -0.327813
     12          6           0        0.602910    0.830021   -0.595103
     13          1           0        0.300739    1.698594   -1.156194
     14         16           0        3.515386    1.107131   -0.734901
     15          6           0        4.305981   -0.204529    0.100105
     16          6           0        3.442620   -1.083397    0.650255
     17          1           0        5.381636   -0.242706    0.132289
     18          1           0        3.745490   -1.956645    1.204626
     19          8           0       -2.045529    2.066381    1.100225
     20          1           0       -2.739586    2.559208    1.504230
 ---------------------------------------------------------------------

 The electronic state is 1-A.
 Alpha  occ. eigenvalues --  -91.98978 -91.98644 -91.98473 -20.60984 -11.31800
 Alpha  occ. eigenvalues --  -11.28392 -11.28392 -11.27406 -11.26972 -11.26854
 Alpha  occ. eigenvalues --  -11.26704 -11.25503 -11.25432 -11.25236  -8.99173
 Alpha  occ. eigenvalues --   -8.98827  -8.98639  -6.67340  -6.67248  -6.67049
 Alpha  occ. eigenvalues --   -6.66994  -6.66917  -6.66803  -6.66722  -6.66710
 Alpha  occ. eigenvalues --   -6.66513  -1.42987  -1.21276  -1.18427  -1.12584
 Alpha  occ. eigenvalues --   -1.02895  -1.01995  -0.98647  -0.95604  -0.94245
 Alpha  occ. eigenvalues --   -0.82599  -0.81141  -0.77015  -0.74981  -0.72275
 Alpha  occ. eigenvalues --   -0.69675  -0.66786  -0.66489  -0.62148  -0.61075
 Alpha  occ. eigenvalues --   -0.58306  -0.56323  -0.56020  -0.53881  -0.53084
 Alpha  occ. eigenvalues --   -0.52697  -0.50683  -0.49316  -0.48602  -0.46079
 Alpha  occ. eigenvalues --   -0.45814  -0.38437  -0.35077  -0.33191  -0.31735
 Alpha  occ. eigenvalues --   -0.29231
 Alpha virt. eigenvalues --    0.02757   0.03721   0.03952   0.04991   0.05094
 Alpha virt. eigenvalues --    0.06237   0.08103   0.08244   0.08589   0.09090
 Alpha virt. eigenvalues --    0.10031   0.10276   0.10474   0.10954   0.11324

 Mulliken charges:
               1
     1  C    0.635537
     2  C    0.283180
     3  C    0.710311
     4  C   -0.326105
     5  H   -0.452333
     6  S    0.407439
     7  H   -0.338286
     8  C    0.312367
     9  S    0.399693
    10  C   -0.815151
    11  C   -0.127971
    12  C    0.089784
    13  H   -0.426609
    14  S    0.629760
    15  C   -0.088285
    16  C    0.571378
    17  H   -0.376979
    18  H   -0.323856
    19  O   -0.926353
    20  H    0.162481
 Sum of Mulliken charges =  -0.00000

 Dipole moment (field-independent basis, Debye):
    X=             -2.1455    Y=              1.0576    Z=              0.7404  Tot=              2.5040
 Quadrupole moment (field-independent basis, Debye-Ang):
   XX=            -77.4831   YY=            -99.5649   ZZ=           -105.8515
   XY=             -9.5434   XZ=             -0.8047   YZ=              0.3370

 Normal termination of Gaussian 16 at Mon Oct 25 23:44:52 2021.
