 Gaussian 16, Revision C.01,
 Gaussian 16:  ES64L-G16RevC.01  3-Jul-2019

 ---------------------------------
 # opt=modredundant hf/aug-cc-pvdz
 ---------------------------------

 -------------
 pBTTT_-75.pdb
 -------------
 Symbolic Z-matrix:
 Charge =  0 Multiplicity = 1

 SCF Done:  E(RHF) =  -1649.50465127     A.U. after   18 cycles
 SCF Done:  E(RHF) =  -1649.57420243     A.U. after   15 cycles
 SCF Done:  E(RHF) =  -1649.62523203     A.U. after   16 cycles
 SCF Done:  E(RHF) =  -1649.63676693     A.U. after   15 cycles
 SCF Done:  E(RHF) =  -1649.64006202     A.U. after   15 cycles
 SCF Done:  E(RHF) =  -1649.64085115     A.U. after   14 cycles
 SCF Done:  E(RHF) =  -1649.64126920     A.U. after   15 cycles
 SCF Done:  E(RHF) =  -1649.64152608     A.U. after   13 cycles
 SCF Done:  E(RHF) =  -1649.64151789     A.U. after   12 cycles
 SCF Done:  E(RHF) =  -1649.64158120     A.U. after   13 cycles
 SCF Done:  E(RHF) =  -1649.64158499     A.U. after   11 cycles
 SCF Done:  E(RHF) =  -1649.64158663     A.U. after   10 cycles
 SCF Done:  E(RHF) =  -1649.64158673     A.U. after    9 cycles
 Optimization completed.
    -- Stationary point found.

                         Standard orientation:
 ---------------------------------------------------------------------
 Center     Atomic      Atomic             Coordinates (Angstroms)
 Number     Number       Type             X           Y           Z
 ---------------------------------------------------------------------
      1          6           0        3.990751    0.347263   -0.486174
      2          6           0        2.613165    0.720608   -0.661440
      3          6           0        1.743273   -0.098577   -0.026351
      4          6           0        4.125930   -0.753244    0.282042
      5          1           0        4.818430    0.884378   -0.925386
      6         16           0        2.607233   -1.363523    0.816071
      7          1           0        5.042887   -1.242676    0.563410
      8          6           0        0.273583   -0.020304    0.004606
      9         16           0       -0.533601    1.194880    0.985805
     10          6           0       -2.087661    0.591503    0.503384
     11          6           0       -1.960683   -0.473062   -0.340555
     12          6           0       -0.603361   -0.830533   -0.629053
     13          1           0       -0.298457   -1.637542   -1.275040
     14         16           0       -3.515783   -1.076393   -0.827939
     15          6           0       -4.309172    0.143066    0.134361
     16          6           0       -3.448163    0.955441    0.781583
     17          1           0       -5.384961    0.182259    0.160955
     18          1           0       -3.753397    1.766713    1.422103
     19          8           0        2.209484    1.777954   -1.395467
     20          1           0        2.948080    2.250847   -1.739715
 ---------------------------------------------------------------------

 The electronic state is 1-A.
 Alpha  occ. eigenvalues --  -91.98997 -91.98644 -91.98377 -20.60928 -11.31767
 Alpha  occ. eigenvalues --  -11.28424 -11.28367 -11.27424 -11.26872 -11.26843
 Alpha  occ. eigenvalues --  -11.26685 -11.25483 -11.25419 -11.25351  -8.99183
 Alpha  occ. eigenvalues --   -8.98828  -8.98543  -6.67349  -6.67257  -6.67058
 Alpha  occ. eigenvalues --   -6.66995  -6.66917  -6.66710  -6.66706  -6.66624
 Alpha  occ. eigenvalues --   -6.66416  -1.42968  -1.21270  -1.18406  -1.12585
 Alpha  occ. eigenvalues --   -1.02830  -1.01995  -0.98616  -0.95687  -0.94198
 Alpha  occ. eigenvalues --   -0.82543  -0.81153  -0.77046  -0.75046  -0.71954
 Alpha  occ. eigenvalues --   -0.69787  -0.66807  -0.66471  -0.62019  -0.60995
 Alpha  occ. eigenvalues --   -0.58494  -0.56385  -0.56052  -0.53701  -0.53251
 Alpha  occ. eigenvalues --   -0.52657  -0.50710  -0.49318  -0.48563  -0.45942
 Alpha  occ. eigenvalues --   -0.45766  -0.38364  -0.34973  -0.32678  -0.31738
 Alpha  occ. eigenvalues --   -0.29762
 Alpha virt. eigenvalues --    0.02782   0.03707   0.03994   0.04921   0.05098
 Alpha virt. eigenvalues --    0.06240   0.07983   0.08467   0.08773   0.08906
 Alpha virt. eigenvalues --    0.09874   0.10312   0.10448   0.10813   0.11374

 Mulliken charges:
               1
     1  C    0.594051
     2  C    0.494645
     3  C    0.454859
     4  C   -0.272437
     5  H   -0.453408
     6  S    0.364181
     7  H   -0.332901
     8  C    0.443768
     9  S    0.403216
    10  C   -0.775996
    11  C   -0.217362
    12  C    0.096927
    13  H   -0.450265
    14  S    0.638836
    15  C   -0.088880
    16  C    0.588546
    17  H   -0.377057
    18  H   -0.323244
    19  O   -0.954227
    20  H    0.166748
 Sum of Mulliken charges =  -0.00000

 Dipole moment (field-independent basis, Debye):
    X=              2.2284    Y=              0.8793    Z=             -0.7166  Tot=              2.5005
 Quadrupole moment (field-independent basis, Debye-Ang):
   XX=            -76.6067   YY=           -101.0083   ZZ=           -105.0213
   XY=              0.8665   XZ=             -7.0009   YZ=              0.0934

 Normal termination of Gaussian 16 at Mon Oct 25 22:56:14 2021.
