 Gaussian 16, Revision C.01,
 Gaussian 16:  ES64L-G16RevC.01  3-Jul-2019

 ---------------------------------
 # opt=modredundant hf/aug-cc-pvdz
 ---------------------------------

 ------------
 pBTTT_95.pdb
 ------------
 Symbolic Z-matrix:
 Charge =  0 Multiplicity = 1

 SCF Done:  E(RHF) =  -1649.50405621     A.U. after   18 cycles
 SCF Done:  E(RHF) =  -1649.57367728     A.U. after   15 cycles
 SCF Done:  E(RHF) =  -1649.62484487     A.U. after   15 cycles
 SCF Done:  E(RHF) =  -1649.63647853     A.U. after   15 cycles
 SCF Done:  E(RHF) =  -1649.63988093     A.U. after   15 cycles
 SCF Done:  E(RHF) =  -1649.64080465     A.U. after   14 cycles
 SCF Done:  E(RHF) =  -1649.64108396     A.U. after   14 cycles
 SCF Done:  E(RHF) =  -1649.64138058     A.U. after   13 cycles
 SCF Done:  E(RHF) =  -1649.64138139     A.U. after   13 cycles
 SCF Done:  E(RHF) =  -1649.64144339     A.U. after   12 cycles
 SCF Done:  E(RHF) =  -1649.64144544     A.U. after   11 cycles
 SCF Done:  E(RHF) =  -1649.64144802     A.U. after   10 cycles
 SCF Done:  E(RHF) =  -1649.64144815     A.U. after    9 cycles
 Optimization completed.
    -- Stationary point found.

                         Standard orientation:
 ---------------------------------------------------------------------
 Center     Atomic      Atomic             Coordinates (Angstroms)
 Number     Number       Type             X           Y           Z
 ---------------------------------------------------------------------
      1          6           0       -3.963931    0.660760    0.262542
      2          6           0       -2.569503    0.891457    0.529995
      3          6           0       -1.744806    0.023042   -0.099210
      4          6           0       -4.156220   -0.388640   -0.562510
      5          1           0       -4.761660    1.260019    0.675994
      6         16           0       -2.673416   -1.120386   -1.042177
      7          1           0       -5.096715   -0.771486   -0.920927
      8          6           0       -0.274486   -0.030834   -0.037208
      9         16           0        0.531733   -1.103674    1.100263
     10          6           0        2.086251   -0.567221    0.545660
     11          6           0        1.960121    0.368814   -0.438985
     12          6           0        0.602910    0.678201   -0.780000
     13          1           0        0.297985    1.388263   -1.531069
     14         16           0        3.515687    0.908038   -0.994939
     15          6           0        4.308028   -0.159996    0.133646
     16          6           0        3.446450   -0.879087    0.882496
     17          1           0        5.383778   -0.188916    0.172293
     18          1           0        3.750963   -1.590588    1.632566
     19          8           0       -2.112561    1.878914    1.327364
     20          1           0       -2.826806    2.348772    1.723318
 ---------------------------------------------------------------------

 The electronic state is 1-A.
 Alpha  occ. eigenvalues --  -91.98939 -91.98660 -91.98412 -20.60922 -11.31777
 Alpha  occ. eigenvalues --  -11.28370 -11.28347 -11.27444 -11.26868 -11.26824
 Alpha  occ. eigenvalues --  -11.26699 -11.25450 -11.25434 -11.25356  -8.99126
 Alpha  occ. eigenvalues --   -8.98844  -8.98575  -6.67292  -6.67200  -6.67011
 Alpha  occ. eigenvalues --   -6.67002  -6.66933  -6.66739  -6.66726  -6.66657
 Alpha  occ. eigenvalues --   -6.66449  -1.42959  -1.21270  -1.18372  -1.12579
 Alpha  occ. eigenvalues --   -1.02817  -1.01992  -0.98577  -0.95658  -0.94225
 Alpha  occ. eigenvalues --   -0.82522  -0.81104  -0.77034  -0.74975  -0.72157
 Alpha  occ. eigenvalues --   -0.69699  -0.66808  -0.66457  -0.62068  -0.60987
 Alpha  occ. eigenvalues --   -0.58361  -0.56362  -0.56039  -0.53691  -0.53317
 Alpha  occ. eigenvalues --   -0.52671  -0.50623  -0.49268  -0.48622  -0.45890
 Alpha  occ. eigenvalues --   -0.45819  -0.38349  -0.34878  -0.32389  -0.31681
 Alpha  occ. eigenvalues --   -0.30205
 Alpha virt. eigenvalues --    0.02769   0.03703   0.03984   0.04914   0.05094
 Alpha virt. eigenvalues --    0.06230   0.08000   0.08424   0.08810   0.09030
 Alpha virt. eigenvalues --    0.09671   0.10270   0.10388   0.10873   0.11482

 Mulliken charges:
               1
     1  C    0.689238
     2  C    0.359786
     3  C    0.522561
     4  C   -0.346499
     5  H   -0.451662
     6  S    0.361475
     7  H   -0.329286
     8  C    0.522699
     9  S    0.380395
    10  C   -0.809003
    11  C   -0.238812
    12  C    0.039011
    13  H   -0.428925
    14  S    0.649010
    15  C   -0.086614
    16  C    0.645456
    17  H   -0.377536
    18  H   -0.327803
    19  O   -0.932710
    20  H    0.159219
 Sum of Mulliken charges =  -0.00000

 Dipole moment (field-independent basis, Debye):
    X=             -2.1472    Y=              0.9892    Z=              0.7178  Tot=              2.4707
 Quadrupole moment (field-independent basis, Debye-Ang):
   XX=            -77.1034   YY=           -102.1141   ZZ=           -103.5499
   XY=             -8.5524   XZ=             -0.1245   YZ=              0.0546

 Normal termination of Gaussian 16 at Mon Oct 25 23:37:56 2021.
