 Gaussian 16, Revision C.01,
 Gaussian 16:  ES64L-G16RevC.01  3-Jul-2019

 ---------------------------------
 # opt=modredundant hf/aug-cc-pvdz
 ---------------------------------

 -------------
 pBTTT_-55.pdb
 -------------
 Symbolic Z-matrix:
 Charge =  0 Multiplicity = 1

 SCF Done:  E(RHF) =  -1649.50656739     A.U. after   18 cycles
 SCF Done:  E(RHF) =  -1649.57571199     A.U. after   15 cycles
 SCF Done:  E(RHF) =  -1649.62578744     A.U. after   16 cycles
 SCF Done:  E(RHF) =  -1649.63728568     A.U. after   15 cycles
 SCF Done:  E(RHF) =  -1649.64051768     A.U. after   15 cycles
 SCF Done:  E(RHF) =  -1649.64131836     A.U. after   15 cycles
 SCF Done:  E(RHF) =  -1649.64167217     A.U. after   15 cycles
 SCF Done:  E(RHF) =  -1649.64193270     A.U. after   13 cycles
 SCF Done:  E(RHF) =  -1649.64191795     A.U. after   12 cycles
 SCF Done:  E(RHF) =  -1649.64197223     A.U. after   13 cycles
 SCF Done:  E(RHF) =  -1649.64197607     A.U. after   11 cycles
 SCF Done:  E(RHF) =  -1649.64197720     A.U. after   10 cycles
 SCF Done:  E(RHF) =  -1649.64197722     A.U. after    9 cycles
 Optimization completed.
    -- Stationary point found.

                         Standard orientation:
 ---------------------------------------------------------------------
 Center     Atomic      Atomic             Coordinates (Angstroms)
 Number     Number       Type             X           Y           Z
 ---------------------------------------------------------------------
      1          6           0       -4.012101    0.339447    0.347279
      2          6           0       -2.652366    0.783417    0.486718
      3          6           0       -1.739971   -0.100401    0.016753
      4          6           0       -4.095258   -0.878517   -0.226185
      5          1           0       -4.866175    0.914712    0.672975
      6         16           0       -2.545146   -1.514221   -0.623244
      7          1           0       -4.989097   -1.439064   -0.440932
      8          6           0       -0.274350   -0.004430    0.012187
      9         16           0        0.536652    1.376375   -0.713575
     10          6           0        2.089152    0.681513   -0.366904
     11          6           0        1.959655   -0.528546    0.249288
     12          6           0        0.602403   -0.929306    0.469121
     13          1           0        0.298344   -1.845718    0.947895
     14         16           0        3.513444   -1.219342    0.607426
     15          6           0        4.309763    0.165442   -0.093910
     16          6           0        3.449992    1.091917   -0.566024
     17          1           0        5.385613    0.206341   -0.113846
     18          1           0        3.756796    2.013719   -1.032764
     19          8           0       -2.302686    1.961325    1.045354
     20          1           0       -3.064693    2.451191    1.304186
 ---------------------------------------------------------------------

 The electronic state is 1-A.
 Alpha  occ. eigenvalues --  -91.99093 -91.98598 -91.98361 -20.61009 -11.31801
 Alpha  occ. eigenvalues --  -11.28592 -11.28407 -11.27354 -11.27077 -11.26782
 Alpha  occ. eigenvalues --  -11.26638 -11.25578 -11.25385 -11.25233  -8.99287
 Alpha  occ. eigenvalues --   -8.98781  -8.98529  -6.67454  -6.67362  -6.67162
 Alpha  occ. eigenvalues --   -6.66948  -6.66871  -6.66692  -6.66664  -6.66610
 Alpha  occ. eigenvalues --   -6.66401  -1.43046  -1.21267  -1.18501  -1.12588
 Alpha  occ. eigenvalues --   -1.02929  -1.01988  -0.98732  -0.95678  -0.94163
 Alpha  occ. eigenvalues --   -0.82647  -0.81283  -0.77060  -0.75152  -0.71692
 Alpha  occ. eigenvalues --   -0.69915  -0.66847  -0.66497  -0.62017  -0.61107
 Alpha  occ. eigenvalues --   -0.58643  -0.56377  -0.56070  -0.53813  -0.52997
 Alpha  occ. eigenvalues --   -0.52674  -0.50930  -0.49442  -0.48394  -0.46169
 Alpha  occ. eigenvalues --   -0.45696  -0.38479  -0.35326  -0.33492  -0.31702
 Alpha  occ. eigenvalues --   -0.28651
 Alpha virt. eigenvalues --    0.02780   0.03720   0.03976   0.04988   0.05106
 Alpha virt. eigenvalues --    0.06260   0.07672   0.08493   0.08652   0.09072
 Alpha virt. eigenvalues --    0.10297   0.10411   0.10500   0.10894   0.11293

 Mulliken charges:
               1
     1  C    0.499000
     2  C    0.502105
     3  C    0.646936
     4  C   -0.232515
     5  H   -0.458341
     6  S    0.404262
     7  H   -0.339620
     8  C    0.198696
     9  S    0.423318
    10  C   -0.670876
    11  C   -0.192628
    12  C    0.214913
    13  H   -0.482788
    14  S    0.602811
    15  C   -0.100192
    16  C    0.458156
    17  H   -0.377253
    18  H   -0.319337
    19  O   -0.943927
    20  H    0.167281
 Sum of Mulliken charges =  -0.00000

 Dipole moment (field-independent basis, Debye):
    X=             -2.3690    Y=              0.9480    Z=              0.5323  Tot=              2.6066
 Quadrupole moment (field-independent basis, Debye-Ang):
   XX=            -76.1327   YY=            -98.8430   ZZ=           -107.5662
   XY=             -0.6962   XZ=             -5.2770   YZ=             -0.1375

 Normal termination of Gaussian 16 at Mon Oct 25 23:03:12 2021.
