 Gaussian 16, Revision C.01,
 Gaussian 16:  ES64L-G16RevC.01  3-Jul-2019

 ---------------------------------
 # opt=modredundant hf/aug-cc-pvdz
 ---------------------------------

 -----------
 pBTTT_5.pdb
 -----------
 Symbolic Z-matrix:
 Charge =  0 Multiplicity = 1

 SCF Done:  E(RHF) =  -1649.50867078     A.U. after   18 cycles
 SCF Done:  E(RHF) =  -1649.57716592     A.U. after   16 cycles
 SCF Done:  E(RHF) =  -1649.62594859     A.U. after   16 cycles
 SCF Done:  E(RHF) =  -1649.63770288     A.U. after   16 cycles
 SCF Done:  E(RHF) =  -1649.64106210     A.U. after   15 cycles
 SCF Done:  E(RHF) =  -1649.64205018     A.U. after   15 cycles
 SCF Done:  E(RHF) =  -1649.64227784     A.U. after   15 cycles
 SCF Done:  E(RHF) =  -1649.64257837     A.U. after   14 cycles
 SCF Done:  E(RHF) =  -1649.64259561     A.U. after   13 cycles
 SCF Done:  E(RHF) =  -1649.64263756     A.U. after   13 cycles
 SCF Done:  E(RHF) =  -1649.64263882     A.U. after   11 cycles
 SCF Done:  E(RHF) =  -1649.64264145     A.U. after   10 cycles
 SCF Done:  E(RHF) =  -1649.64264114     A.U. after    9 cycles
 SCF Done:  E(RHF) =  -1649.64264162     A.U. after    9 cycles
 SCF Done:  E(RHF) =  -1649.64264165     A.U. after    8 cycles
 Optimization completed.
    -- Stationary point found.

                         Standard orientation:
 ---------------------------------------------------------------------
 Center     Atomic      Atomic             Coordinates (Angstroms)
 Number     Number       Type             X           Y           Z
 ---------------------------------------------------------------------
      1          6           0       -4.027894    0.366085   -0.030343
      2          6           0       -2.676230    0.853716   -0.043131
      3          6           0       -1.735312   -0.122184   -0.002048
      4          6           0       -4.083757   -0.978350    0.021250
      5          1           0       -4.895171    1.008732   -0.059451
      6         16           0       -2.514314   -1.690469    0.058484
      7          1           0       -4.963554   -1.598253    0.041255
      8          6           0       -0.276126   -0.012485   -0.006110
      9         16           0        0.537528    1.550276    0.060029
     10          6           0        2.089526    0.772704    0.034335
     11          6           0        1.963238   -0.583199   -0.022449
     12          6           0        0.609260   -1.040919   -0.046239
     13          1           0        0.320034   -2.078020   -0.092120
     14         16           0        3.518569   -1.357578   -0.054082
     15          6           0        4.312167    0.195874    0.010809
     16          6           0        3.448754    1.232103    0.052982
     17          1           0        5.387842    0.243714    0.014016
     18          1           0        3.752881    2.265350    0.095886
     19          8           0       -2.359764    2.165172   -0.091756
     20          1           0       -3.134202    2.701358   -0.110773
 ---------------------------------------------------------------------

 The electronic state is 1-A.
 Alpha  occ. eigenvalues --  -91.99174 -91.98441 -91.98339 -20.61471 -11.32027
 Alpha  occ. eigenvalues --  -11.28925 -11.28660 -11.27557 -11.27141 -11.26637
 Alpha  occ. eigenvalues --  -11.26319 -11.25813 -11.25255 -11.24914  -8.99401
 Alpha  occ. eigenvalues --   -8.98624  -8.98482  -6.67575  -6.67483  -6.67279
 Alpha  occ. eigenvalues --   -6.66791  -6.66714  -6.66640  -6.66559  -6.66508
 Alpha  occ. eigenvalues --   -6.66347  -1.43548  -1.21182  -1.18684  -1.12519
 Alpha  occ. eigenvalues --   -1.03176  -1.01928  -0.98971  -0.95625  -0.94045
 Alpha  occ. eigenvalues --   -0.82877  -0.81711  -0.77108  -0.75394  -0.71170
 Alpha  occ. eigenvalues --   -0.70239  -0.67350  -0.66280  -0.62093  -0.61661
 Alpha  occ. eigenvalues --   -0.58808  -0.56348  -0.56145  -0.53996  -0.52721
 Alpha  occ. eigenvalues --   -0.52311  -0.51634  -0.49628  -0.47796  -0.46821
 Alpha  occ. eigenvalues --   -0.45310  -0.38951  -0.35982  -0.34224  -0.31650
 Alpha  occ. eigenvalues --   -0.27152
 Alpha virt. eigenvalues --    0.02691   0.03696   0.03897   0.05007   0.05142
 Alpha virt. eigenvalues --    0.06282   0.06713   0.08556   0.09438   0.09755
 Alpha virt. eigenvalues --    0.10382   0.10706   0.10820   0.11113   0.11677

 Mulliken charges:
               1
     1  C    0.745403
     2  C   -0.022222
     3  C    1.079102
     4  C   -0.323306
     5  H   -0.466715
     6  S    0.558500
     7  H   -0.388075
     8  C    0.021675
     9  S    0.456259
    10  C   -0.569692
    11  C   -0.054991
    12  C    0.331556
    13  H   -0.520737
    14  S    0.490725
    15  C   -0.183034
    16  C    0.314570
    17  H   -0.387102
    18  H   -0.332745
    19  O   -0.940597
    20  H    0.191427
 Sum of Mulliken charges =  -0.00000

 Dipole moment (field-independent basis, Debye):
    X=             -2.7322    Y=              1.1995    Z=             -0.0437  Tot=              2.9842
 Quadrupole moment (field-independent basis, Debye-Ang):
   XX=            -75.6554   YY=            -95.9498   ZZ=           -110.7453
   XY=             -1.0554   XZ=              0.4712   YZ=              0.0335

 1\1\GINC-CX3-6-3\FOpt\RHF\Aug-CC-pVDZ\C10H6O1S3\NS5018\25-Oct-2021\0\\
 # opt=modredundant hf/aug-cc-pvdz\\pBTTT_5.pdb\\0,1\C,-4.2007968246,-1
 .3297300471,-0.3075693601\C,-2.8307809338,-0.9811591638,-0.5654416998\
 C,-1.9730028874,-2.030268197,-0.5108372459\C,-4.3538791842,-2.64456901
 68,-0.0604809654\H,-5.0103158243,-0.6151255545,-0.3131635433\S,-2.8558
 413149,-3.4947735577,-0.1289398072\H,-5.2676533213,-3.1685079836,0.161
 3908576\C,-0.5252614395,-2.0639998527,-0.7210307425\S,0.4094067014,-0.
 5920195092,-0.9823688316\C,1.8761263563,-1.5132226747,-1.1010942324\C,

 Normal termination of Gaussian 16 at Mon Oct 25 23:15:23 2021.
