 Gaussian 16, Revision C.01,
 Gaussian 16:  ES64L-G16RevC.01  3-Jul-2019

 ---------------------------------
 # opt=modredundant hf/aug-cc-pvdz
 ---------------------------------

 -------------
 pBTTT_-30.pdb
 -------------
 Symbolic Z-matrix:
 Charge =  0 Multiplicity = 1

 SCF Done:  E(RHF) =  -1649.50860517     A.U. after   18 cycles
 SCF Done:  E(RHF) =  -1649.57717381     A.U. after   16 cycles
 SCF Done:  E(RHF) =  -1649.62621582     A.U. after   16 cycles
 SCF Done:  E(RHF) =  -1649.63775683     A.U. after   16 cycles
 SCF Done:  E(RHF) =  -1649.64096900     A.U. after   15 cycles
 SCF Done:  E(RHF) =  -1649.64183374     A.U. after   15 cycles
 SCF Done:  E(RHF) =  -1649.64206287     A.U. after   15 cycles
 SCF Done:  E(RHF) =  -1649.64234057     A.U. after   14 cycles
 SCF Done:  E(RHF) =  -1649.64234320     A.U. after   12 cycles
 SCF Done:  E(RHF) =  -1649.64238898     A.U. after   12 cycles
 SCF Done:  E(RHF) =  -1649.64239159     A.U. after   12 cycles
 SCF Done:  E(RHF) =  -1649.64239328     A.U. after   11 cycles
 SCF Done:  E(RHF) =  -1649.64239317     A.U. after   10 cycles
 Optimization completed.
    -- Stationary point found.

                         Standard orientation:
 ---------------------------------------------------------------------
 Center     Atomic      Atomic             Coordinates (Angstroms)
 Number     Number       Type             X           Y           Z
 ---------------------------------------------------------------------
      1          6           0       -4.025451    0.346929    0.185016
      2          6           0       -2.675648    0.833064    0.260955
      3          6           0       -1.736437   -0.111731    0.009529
      4          6           0       -4.079433   -0.963366   -0.125548
      5          1           0       -4.893926    0.964029    0.361660
      6         16           0       -2.510875   -1.640217   -0.347850
      7          1           0       -4.959140   -1.572524   -0.243746
      8          6           0       -0.275691   -0.003528    0.022236
      9         16           0        0.537522    1.506589   -0.374737
     10          6           0        2.089401    0.747472   -0.202699
     11          6           0        1.960967   -0.567195    0.134740
     12          6           0        0.605557   -1.005554    0.265874
     13          1           0        0.309117   -2.006130    0.534955
     14         16           0        3.515296   -1.319437    0.329026
     15          6           0        4.310805    0.185440   -0.055815
     16          6           0        3.449366    1.192214   -0.310973
     17          1           0        5.386572    0.229610   -0.070448
     18          1           0        3.755064    2.193879   -0.566036
     19          8           0       -2.359339    2.111266    0.559983
     20          1           0       -3.134662    2.627589    0.700835
 ---------------------------------------------------------------------

 The electronic state is 1-A.
 Alpha  occ. eigenvalues --  -91.99159 -91.98507 -91.98342 -20.61263 -11.31916
 Alpha  occ. eigenvalues --  -11.28810 -11.28538 -11.27376 -11.27229 -11.26686
 Alpha  occ. eigenvalues --  -11.26480 -11.25720 -11.25312 -11.25034  -8.99373
 Alpha  occ. eigenvalues --   -8.98690  -8.98500  -6.67544  -6.67452  -6.67249
 Alpha  occ. eigenvalues --   -6.66858  -6.66780  -6.66661  -6.66580  -6.66573
 Alpha  occ. eigenvalues --   -6.66368  -1.43312  -1.21229  -1.18622  -1.12558
 Alpha  occ. eigenvalues --   -1.03085  -1.01958  -0.98888  -0.95644  -0.94096
 Alpha  occ. eigenvalues --   -0.82796  -0.81531  -0.77086  -0.75298  -0.71355
 Alpha  occ. eigenvalues --   -0.70108  -0.67115  -0.66390  -0.62061  -0.61409
 Alpha  occ. eigenvalues --   -0.58767  -0.56360  -0.56109  -0.53929  -0.52760
 Alpha  occ. eigenvalues --   -0.52560  -0.51318  -0.49587  -0.48050  -0.46563
 Alpha  occ. eigenvalues --   -0.45500  -0.38748  -0.35798  -0.34033  -0.31662
 Alpha  occ. eigenvalues --   -0.27598
 Alpha virt. eigenvalues --    0.02736   0.03717   0.03933   0.05021   0.05136
 Alpha virt. eigenvalues --    0.06281   0.07011   0.08562   0.09015   0.09433
 Alpha virt. eigenvalues --    0.10366   0.10552   0.10653   0.11001   0.11492

 Mulliken charges:
               1
     1  C    0.572629
     2  C    0.233751
     3  C    0.967747
     4  C   -0.297429
     5  H   -0.464407
     6  S    0.459805
     7  H   -0.358252
     8  C    0.098213
     9  S    0.487105
    10  C   -0.592067
    11  C   -0.157197
    12  C    0.271107
    13  H   -0.507376
    14  S    0.545837
    15  C   -0.146287
    16  C    0.340783
    17  H   -0.379947
    18  H   -0.323265
    19  O   -0.926200
    20  H    0.175451
 Sum of Mulliken charges =  -0.00000

 Dipole moment (field-independent basis, Debye):
    X=             -2.5841    Y=              1.0903    Z=              0.2991  Tot=              2.8206
 Quadrupole moment (field-independent basis, Debye-Ang):
   XX=            -75.7738   YY=            -96.8883   ZZ=           -109.7731
   XY=             -0.8470   XZ=             -2.9405   YZ=             -0.0746

 Normal termination of Gaussian 16 at Mon Oct 25 23:10:35 2021.
