 Gaussian 16, Revision C.01,
 Gaussian 16:  ES64L-G16RevC.01  3-Jul-2019

 ---------------------------------
 # opt=modredundant hf/aug-cc-pvdz
 ---------------------------------

 --------------
 pBTTT_-135.pdb
 --------------
 Symbolic Z-matrix:
 Charge =  0 Multiplicity = 1

 SCF Done:  E(RHF) =  -1649.50671483     A.U. after   18 cycles
 SCF Done:  E(RHF) =  -1649.57560263     A.U. after   16 cycles
 SCF Done:  E(RHF) =  -1649.62586641     A.U. after   16 cycles
 SCF Done:  E(RHF) =  -1649.63741643     A.U. after   15 cycles
 SCF Done:  E(RHF) =  -1649.64083676     A.U. after   15 cycles
 SCF Done:  E(RHF) =  -1649.64171917     A.U. after   15 cycles
 SCF Done:  E(RHF) =  -1649.64206193     A.U. after   15 cycles
 SCF Done:  E(RHF) =  -1649.64238010     A.U. after   13 cycles
 SCF Done:  E(RHF) =  -1649.64240736     A.U. after   13 cycles
 SCF Done:  E(RHF) =  -1649.64246108     A.U. after   13 cycles
 SCF Done:  E(RHF) =  -1649.64246398     A.U. after   11 cycles
 SCF Done:  E(RHF) =  -1649.64246587     A.U. after   10 cycles
 Optimization completed.
    -- Stationary point found.

                         Standard orientation:
 ---------------------------------------------------------------------
 Center     Atomic      Atomic             Coordinates (Angstroms)
 Number     Number       Type             X           Y           Z
 ---------------------------------------------------------------------
      1          6           0        3.933121    0.817732    0.185388
      2          6           0        2.525968    1.077103    0.316785
      3          6           0        1.741724    0.040487   -0.066485
      4          6           0        4.181437   -0.418951   -0.291095
      5          1           0        4.700459    1.532910    0.442346
      6         16           0        2.733061   -1.294167   -0.611482
      7          1           0        5.142325   -0.865414   -0.481894
      8          6           0        0.278415   -0.038951   -0.042089
      9         16           0       -0.527528   -1.480508    0.570731
     10          6           0       -2.083335   -0.765977    0.280399
     11          6           0       -1.956869    0.493073   -0.228638
     12          6           0       -0.601842    0.915978   -0.420573
     13          1           0       -0.302012    1.870491   -0.818286
     14         16           0       -3.513030    1.210040   -0.516335
     15          6           0       -4.305212   -0.230860    0.066788
     16          6           0       -3.441983   -1.193328    0.453326
     17          1           0       -5.380878   -0.274876    0.088069
     18          1           0       -3.745250   -2.152254    0.840843
     19          8           0        2.022321    2.246895    0.769193
     20          1           0        2.698186    2.770302    1.165915
 ---------------------------------------------------------------------

 The electronic state is 1-A.
 Alpha  occ. eigenvalues --  -91.99075 -91.98612 -91.98529 -20.61135 -11.31792
 Alpha  occ. eigenvalues --  -11.28528 -11.28409 -11.27344 -11.27224 -11.26836
 Alpha  occ. eigenvalues --  -11.26688 -11.25592 -11.25425 -11.25049  -8.99280
 Alpha  occ. eigenvalues --   -8.98795  -8.98704  -6.67449  -6.67356  -6.67157
 Alpha  occ. eigenvalues --   -6.66962  -6.66885  -6.66871  -6.66790  -6.66678
 Alpha  occ. eigenvalues --   -6.66579  -1.43083  -1.21289  -1.18526  -1.12594
 Alpha  occ. eigenvalues --   -1.03005  -1.02012  -0.98774  -0.95549  -0.94258
 Alpha  occ. eigenvalues --   -0.82719  -0.81239  -0.76992  -0.75069  -0.72308
 Alpha  occ. eigenvalues --   -0.69742  -0.66839  -0.66434  -0.62221  -0.61240
 Alpha  occ. eigenvalues --   -0.58335  -0.56334  -0.55983  -0.54069  -0.53027
 Alpha  occ. eigenvalues --   -0.52419  -0.50913  -0.49432  -0.48504  -0.46386
 Alpha  occ. eigenvalues --   -0.45760  -0.38627  -0.35482  -0.33794  -0.31820
 Alpha  occ. eigenvalues --   -0.28220
 Alpha virt. eigenvalues --    0.02733   0.03736   0.03907   0.05099   0.05101
 Alpha virt. eigenvalues --    0.06296   0.07664   0.08223   0.08609   0.09338
 Alpha virt. eigenvalues --    0.10133   0.10497   0.10628   0.10978   0.11373

 Mulliken charges:
               1
     1  C    0.594300
     2  C    0.243228
     3  C    0.795436
     4  C   -0.313278
     5  H   -0.455747
     6  S    0.457035
     7  H   -0.341990
     8  C    0.163858
     9  S    0.432744
    10  C   -0.761362
    11  C   -0.018679
    12  C    0.123126
    13  H   -0.449317
    14  S    0.599145
    15  C   -0.101046
    16  C    0.475232
    17  H   -0.377863
    18  H   -0.320205
    19  O   -0.913670
    20  H    0.169054
 Sum of Mulliken charges =  -0.00000

 Dipole moment (field-independent basis, Debye):
    X=              2.1866    Y=              1.1169    Z=              0.6995  Tot=              2.5531
 Quadrupole moment (field-independent basis, Debye-Ang):
   XX=            -77.6923   YY=            -97.5660   ZZ=           -107.7538
   XY=             10.2148   XZ=              1.0699   YZ=              0.8234

 1\1\GINC-CX3-6-3\FOpt\RHF\Aug-CC-pVDZ\C10H6O1S3\NS5018\25-Oct-2021\0\\
 # opt=modredundant hf/aug-cc-pvdz\\pBTTT_-135.pdb\\0,1\C,-4.1385338708
 ,-1.3135666623,-0.0260290672\C,-2.8355972183,-0.9581030288,-0.51656017
 14\C,-1.993313418,-2.0122822085,-0.6421452374\C,-4.253530899,-2.637330
 8489,0.203113334\H,-4.9324977531,-0.5997699476,0.1365433365\S,-2.79575
 06991,-3.4856316606,-0.1457500028\H,-5.1177082058,-3.164942901,0.56898
 70004\C,-0.6110638862,-2.0076645795,-1.1295281466\S,-0.0642514306,-3.2
 285294575,-2.2756795822\C,1.5198409924,-2.5183404683,-2.3164933285\C,1

 Normal termination of Gaussian 16 at Mon Oct 25 22:33:10 2021.
