 Gaussian 16, Revision C.01,
 Gaussian 16:  ES64L-G16RevC.01  3-Jul-2019

 ---------------------------------
 # opt=modredundant hf/aug-cc-pvdz
 ---------------------------------

 ------------
 pBTTT_10.pdb
 ------------
 Symbolic Z-matrix:
 Charge =  0 Multiplicity = 1

 SCF Done:  E(RHF) =  -1649.50857011     A.U. after   18 cycles
 SCF Done:  E(RHF) =  -1649.57704806     A.U. after   16 cycles
 SCF Done:  E(RHF) =  -1649.62583912     A.U. after   16 cycles
 SCF Done:  E(RHF) =  -1649.63763624     A.U. after   16 cycles
 SCF Done:  E(RHF) =  -1649.64101489     A.U. after   15 cycles
 SCF Done:  E(RHF) =  -1649.64200796     A.U. after   15 cycles
 SCF Done:  E(RHF) =  -1649.64225351     A.U. after   15 cycles
 SCF Done:  E(RHF) =  -1649.64255693     A.U. after   14 cycles
 SCF Done:  E(RHF) =  -1649.64256853     A.U. after   14 cycles
 SCF Done:  E(RHF) =  -1649.64261262     A.U. after   13 cycles
 SCF Done:  E(RHF) =  -1649.64261429     A.U. after   11 cycles
 SCF Done:  E(RHF) =  -1649.64261669     A.U. after   10 cycles
 SCF Done:  E(RHF) =  -1649.64261642     A.U. after    9 cycles
 SCF Done:  E(RHF) =  -1649.64261681     A.U. after    9 cycles
 SCF Done:  E(RHF) =  -1649.64261686     A.U. after    8 cycles
 Optimization completed.
    -- Stationary point found.

                         Standard orientation:
 ---------------------------------------------------------------------
 Center     Atomic      Atomic             Coordinates (Angstroms)
 Number     Number       Type             X           Y           Z
 ---------------------------------------------------------------------
      1          6           0       -4.027778    0.363911   -0.060624
      2          6           0       -2.676470    0.851873   -0.086114
      3          6           0       -1.735372   -0.121196   -0.003995
      4          6           0       -4.083001   -0.977716    0.042378
      5          1           0       -4.895415    1.004114   -0.118843
      6         16           0       -2.513391   -1.686268    0.116693
      7          1           0       -4.962590   -1.596974    0.082191
      8          6           0       -0.276103   -0.011445   -0.011786
      9         16           0        0.537438    1.546863    0.120324
     10          6           0        2.089443    0.770589    0.068479
     11          6           0        1.963001   -0.581791   -0.044805
     12          6           0        0.608916   -1.037719   -0.092017
     13          1           0        0.319020   -2.071617   -0.183494
     14         16           0        3.518266   -1.354339   -0.108128
     15          6           0        4.311984    0.194962    0.021246
     16          6           0        3.448714    1.228731    0.105579
     17          1           0        5.387665    0.242422    0.027566
     18          1           0        3.752958    2.259282    0.191181
     19          8           0       -2.360432    2.160756   -0.183541
     20          1           0       -3.135171    2.695427   -0.222546
 ---------------------------------------------------------------------

 The electronic state is 1-A.
 Alpha  occ. eigenvalues --  -91.99173 -91.98448 -91.98339 -20.61451 -11.32015
 Alpha  occ. eigenvalues --  -11.28914 -11.28647 -11.27538 -11.27149 -11.26641
 Alpha  occ. eigenvalues --  -11.26336 -11.25804 -11.25261 -11.24925  -8.99399
 Alpha  occ. eigenvalues --   -8.98630  -8.98483  -6.67573  -6.67480  -6.67276
 Alpha  occ. eigenvalues --   -6.66798  -6.66721  -6.66642  -6.66560  -6.66514
 Alpha  occ. eigenvalues --   -6.66348  -1.43524  -1.21187  -1.18678  -1.12523
 Alpha  occ. eigenvalues --   -1.03167  -1.01931  -0.98963  -0.95626  -0.94049
 Alpha  occ. eigenvalues --   -0.82869  -0.81693  -0.77105  -0.75385  -0.71187
 Alpha  occ. eigenvalues --   -0.70226  -0.67326  -0.66291  -0.62090  -0.61635
 Alpha  occ. eigenvalues --   -0.58805  -0.56347  -0.56143  -0.53990  -0.52724
 Alpha  occ. eigenvalues --   -0.52343  -0.51596  -0.49626  -0.47822  -0.46796
 Alpha  occ. eigenvalues --   -0.45330  -0.38931  -0.35968  -0.34207  -0.31650
 Alpha  occ. eigenvalues --   -0.27190
 Alpha virt. eigenvalues --    0.02696   0.03699   0.03901   0.05010   0.05143
 Alpha virt. eigenvalues --    0.06283   0.06737   0.08558   0.09431   0.09670
 Alpha virt. eigenvalues --    0.10389   0.10705   0.10791   0.11066   0.11653

 Mulliken charges:
               1
     1  C    0.707404
     2  C    0.025376
     3  C    1.073934
     4  C   -0.326098
     5  H   -0.466371
     6  S    0.532842
     7  H   -0.384153
     8  C    0.033784
     9  S    0.467438
    10  C   -0.579541
    11  C   -0.069366
    12  C    0.335607
    13  H   -0.519668
    14  S    0.497760
    15  C   -0.178202
    16  C    0.312610
    17  H   -0.385658
    18  H   -0.331350
    19  O   -0.935426
    20  H    0.189079
 Sum of Mulliken charges =  -0.00000

 Dipole moment (field-independent basis, Debye):
    X=             -2.7173    Y=              1.1893    Z=             -0.0887  Tot=              2.9675
 Quadrupole moment (field-independent basis, Debye-Ang):
   XX=            -75.6669   YY=            -96.0315   ZZ=           -110.6630
   XY=             -1.0370   XZ=              0.9462   YZ=              0.0619

 Normal termination of Gaussian 16 at Mon Oct 25 23:24:16 2021.
