 Gaussian 16, Revision C.01,
 Gaussian 16:  ES64L-G16RevC.01  3-Jul-2019

 ---------------------------------
 # opt=modredundant hf/aug-cc-pvdz
 ---------------------------------

 -------------
 pBTTT_-40.pdb
 -------------
 Symbolic Z-matrix:
 Charge =  0 Multiplicity = 1

 SCF Done:  E(RHF) =  -1649.50792188     A.U. after   18 cycles
 SCF Done:  E(RHF) =  -1649.57668595     A.U. after   16 cycles
 SCF Done:  E(RHF) =  -1649.62605465     A.U. after   16 cycles
 SCF Done:  E(RHF) =  -1649.63759363     A.U. after   16 cycles
 SCF Done:  E(RHF) =  -1649.64080921     A.U. after   15 cycles
 SCF Done:  E(RHF) =  -1649.64164531     A.U. after   15 cycles
 SCF Done:  E(RHF) =  -1649.64191978     A.U. after   15 cycles
 SCF Done:  E(RHF) =  -1649.64219305     A.U. after   14 cycles
 SCF Done:  E(RHF) =  -1649.64218491     A.U. after   12 cycles
 SCF Done:  E(RHF) =  -1649.64223407     A.U. after   13 cycles
 SCF Done:  E(RHF) =  -1649.64223747     A.U. after   12 cycles
 SCF Done:  E(RHF) =  -1649.64223875     A.U. after   10 cycles
 SCF Done:  E(RHF) =  -1649.64223872     A.U. after   10 cycles
 Optimization completed.
    -- Stationary point found.

                         Standard orientation:
 ---------------------------------------------------------------------
 Center     Atomic      Atomic             Coordinates (Angstroms)
 Number     Number       Type             X           Y           Z
 ---------------------------------------------------------------------
      1          6           0       -4.021986    0.340133    0.248608
      2          6           0       -2.670528    0.817062    0.350217
      3          6           0       -1.737613   -0.105908    0.011634
      4          6           0       -4.081774   -0.941013   -0.167091
      5          1           0       -4.887639    0.941064    0.485030
      6         16           0       -2.517435   -1.599050   -0.460446
      7          1           0       -4.964514   -1.536969   -0.324150
      8          6           0       -0.275247   -0.000932    0.020186
      9         16           0        0.537765    1.466708   -0.509022
     10          6           0        2.089587    0.726514   -0.268189
     11          6           0        1.959957   -0.554643    0.180519
     12          6           0        0.603587   -0.979488    0.348303
     13          1           0        0.303158   -1.952062    0.702279
     14         16           0        3.513677   -1.287999    0.440780
     15          6           0        4.310327    0.177997   -0.070051
     16          6           0        3.450090    1.159716   -0.411964
     17          1           0        5.386153    0.220343   -0.086788
     18          1           0        3.756753    2.135693   -0.751389
     19          8           0       -2.347092    2.064149    0.754223
     20          1           0       -3.119684    2.567574    0.947200
 ---------------------------------------------------------------------

 The electronic state is 1-A.
 Alpha  occ. eigenvalues --  -91.99142 -91.98546 -91.98349 -20.61147 -11.31862
 Alpha  occ. eigenvalues --  -11.28730 -11.28476 -11.27281 -11.27262 -11.26723
 Alpha  occ. eigenvalues --  -11.26558 -11.25664 -11.25345 -11.25112  -8.99347
 Alpha  occ. eigenvalues --   -8.98729  -8.98513  -6.67516  -6.67424  -6.67223
 Alpha  occ. eigenvalues --   -6.66896  -6.66819  -6.66675  -6.66612  -6.66594
 Alpha  occ. eigenvalues --   -6.66384  -1.43187  -1.21250  -1.18577  -1.12575
 Alpha  occ. eigenvalues --   -1.03025  -1.01973  -0.98830  -0.95657  -0.94126
 Alpha  occ. eigenvalues --   -0.82741  -0.81426  -0.77075  -0.75239  -0.71483
 Alpha  occ. eigenvalues --   -0.70029  -0.66987  -0.66447  -0.62041  -0.61273
 Alpha  occ. eigenvalues --   -0.58728  -0.56370  -0.56089  -0.53885  -0.52815
 Alpha  occ. eigenvalues --   -0.52649  -0.51156  -0.49540  -0.48197  -0.46406
 Alpha  occ. eigenvalues --   -0.45593  -0.38632  -0.35637  -0.33872  -0.31676
 Alpha  occ. eigenvalues --   -0.27951
 Alpha virt. eigenvalues --    0.02758   0.03723   0.03950   0.05018   0.05123
 Alpha virt. eigenvalues --    0.06274   0.07250   0.08547   0.08807   0.09297
 Alpha virt. eigenvalues --    0.10331   0.10514   0.10590   0.10974   0.11399

 Mulliken charges:
               1
     1  C    0.524131
     2  C    0.347338
     3  C    0.856955
     4  C   -0.265589
     5  H   -0.462538
     6  S    0.442849
     7  H   -0.347468
     8  C    0.123843
     9  S    0.468353
    10  C   -0.605532
    11  C   -0.189514
    12  C    0.239446
    13  H   -0.497612
    14  S    0.570586
    15  C   -0.127337
    16  C    0.379597
    17  H   -0.378298
    18  H   -0.320549
    19  O   -0.928769
    20  H    0.170109
 Sum of Mulliken charges =  -0.00000

 Dipole moment (field-independent basis, Debye):
    X=             -2.4961    Y=              1.0259    Z=              0.4009  Tot=              2.7284
 Quadrupole moment (field-independent basis, Debye-Ang):
   XX=            -75.8793   YY=            -97.5818   ZZ=           -109.0172
   XY=             -0.7406   XZ=             -3.9182   YZ=             -0.0867

 Normal termination of Gaussian 16 at Mon Oct 25 23:05:04 2021.
