 Gaussian 16, Revision C.01,
 Gaussian 16:  ES64L-G16RevC.01  3-Jul-2019

 ---------------------------------
 # opt=modredundant hf/aug-cc-pvdz
 ---------------------------------

 -------------
 pBTTT_-35.pdb
 -------------
 Symbolic Z-matrix:
 Charge =  0 Multiplicity = 1

 SCF Done:  E(RHF) =  -1649.50807504     A.U. after   18 cycles
 SCF Done:  E(RHF) =  -1649.57681935     A.U. after   16 cycles
 SCF Done:  E(RHF) =  -1649.62614707     A.U. after   16 cycles
 SCF Done:  E(RHF) =  -1649.63768202     A.U. after   16 cycles
 SCF Done:  E(RHF) =  -1649.64089504     A.U. after   15 cycles
 SCF Done:  E(RHF) =  -1649.64173528     A.U. after   15 cycles
 SCF Done:  E(RHF) =  -1649.64199186     A.U. after   15 cycles
 SCF Done:  E(RHF) =  -1649.64226970     A.U. after   14 cycles
 SCF Done:  E(RHF) =  -1649.64226641     A.U. after   12 cycles
 SCF Done:  E(RHF) =  -1649.64231357     A.U. after   13 cycles
 SCF Done:  E(RHF) =  -1649.64231679     A.U. after   12 cycles
 SCF Done:  E(RHF) =  -1649.64231818     A.U. after   10 cycles
 SCF Done:  E(RHF) =  -1649.64231813     A.U. after   10 cycles
 Optimization completed.
    -- Stationary point found.

                         Standard orientation:
 ---------------------------------------------------------------------
 Center     Atomic      Atomic             Coordinates (Angstroms)
 Number     Number       Type             X           Y           Z
 ---------------------------------------------------------------------
      1          6           0       -4.024008    0.342960    0.216652
      2          6           0       -2.673735    0.825642    0.305315
      3          6           0       -1.736973   -0.108718    0.010521
      4          6           0       -4.079994   -0.953996   -0.146362
      5          1           0       -4.891520    0.952137    0.423159
      6         16           0       -2.513059   -1.621189   -0.404436
      7          1           0       -4.960807   -1.557506   -0.283970
      8          6           0       -0.275490   -0.001840    0.021713
      9         16           0        0.537688    1.488585   -0.441373
     10          6           0        2.089512    0.737852   -0.235471
     11          6           0        1.960415   -0.561359    0.157575
     12          6           0        0.604516   -0.993244    0.307379
     13          1           0        0.306008   -1.980739    0.619140
     14         16           0        3.514408   -1.305022    0.384815
     15          6           0        4.310555    0.181864   -0.062943
     16          6           0        3.449755    1.177189   -0.361432
     17          1           0        5.386354    0.225057   -0.078734
     18          1           0        3.755974    2.166990   -0.658645
     19          8           0       -2.354839    2.089807    0.656617
     20          1           0       -3.129208    2.599505    0.824331
 ---------------------------------------------------------------------

 The electronic state is 1-A.
 Alpha  occ. eigenvalues --  -91.99152 -91.98527 -91.98345 -20.61204 -11.31888
 Alpha  occ. eigenvalues --  -11.28772 -11.28506 -11.27321 -11.27255 -11.26704
 Alpha  occ. eigenvalues --  -11.26521 -11.25692 -11.25329 -11.25072  -8.99361
 Alpha  occ. eigenvalues --   -8.98710  -8.98507  -6.67531  -6.67439  -6.67237
 Alpha  occ. eigenvalues --   -6.66877  -6.66800  -6.66668  -6.66593  -6.66587
 Alpha  occ. eigenvalues --   -6.66376  -1.43248  -1.21240  -1.18600  -1.12567
 Alpha  occ. eigenvalues --   -1.03056  -1.01966  -0.98860  -0.95650  -0.94111
 Alpha  occ. eigenvalues --   -0.82770  -0.81479  -0.77081  -0.75269  -0.71416
 Alpha  occ. eigenvalues --   -0.70069  -0.67050  -0.66419  -0.62051  -0.61340
 Alpha  occ. eigenvalues --   -0.58749  -0.56366  -0.56098  -0.53908  -0.52781
 Alpha  occ. eigenvalues --   -0.52611  -0.51237  -0.49566  -0.48123  -0.46486
 Alpha  occ. eigenvalues --   -0.45548  -0.38690  -0.35724  -0.33959  -0.31668
 Alpha  occ. eigenvalues --   -0.27762
 Alpha virt. eigenvalues --    0.02748   0.03721   0.03942   0.05021   0.05130
 Alpha virt. eigenvalues --    0.06278   0.07123   0.08556   0.08901   0.09371
 Alpha virt. eigenvalues --    0.10347   0.10531   0.10619   0.10992   0.11445

 Mulliken charges:
               1
     1  C    0.546311
     2  C    0.289349
     3  C    0.917656
     4  C   -0.281851
     5  H   -0.463582
     6  S    0.451477
     7  H   -0.352361
     8  C    0.110260
     9  S    0.479885
    10  C   -0.596379
    11  C   -0.176110
    12  C    0.252985
    13  H   -0.502566
    14  S    0.558503
    15  C   -0.137123
    16  C    0.358592
    17  H   -0.379001
    18  H   -0.321713
    19  O   -0.926802
    20  H    0.172472
 Sum of Mulliken charges =  -0.00000

 Dipole moment (field-independent basis, Debye):
    X=             -2.5406    Y=              1.0577    Z=              0.3516  Tot=              2.7743
 Quadrupole moment (field-independent basis, Debye-Ang):
   XX=            -75.8205   YY=            -97.2181   ZZ=           -109.4180
   XY=             -0.7893   XZ=             -3.4363   YZ=             -0.0766

 Normal termination of Gaussian 16 at Mon Oct 25 23:12:45 2021.
