 Gaussian 16, Revision C.01,
 Gaussian 16:  ES64L-G16RevC.01  3-Jul-2019

 ---------------------------------
 # opt=modredundant hf/aug-cc-pvdz
 ---------------------------------

 --------------
 pBTTT_-115.pdb
 --------------
 Symbolic Z-matrix:
 Charge =  0 Multiplicity = 1

 SCF Done:  E(RHF) =  -1649.50503738     A.U. after   18 cycles
 SCF Done:  E(RHF) =  -1649.57429812     A.U. after   15 cycles
 SCF Done:  E(RHF) =  -1649.62515852     A.U. after   16 cycles
 SCF Done:  E(RHF) =  -1649.63679214     A.U. after   15 cycles
 SCF Done:  E(RHF) =  -1649.64021045     A.U. after   15 cycles
 SCF Done:  E(RHF) =  -1649.64107127     A.U. after   14 cycles
 SCF Done:  E(RHF) =  -1649.64145219     A.U. after   15 cycles
 SCF Done:  E(RHF) =  -1649.64175382     A.U. after   13 cycles
 SCF Done:  E(RHF) =  -1649.64178364     A.U. after   13 cycles
 SCF Done:  E(RHF) =  -1649.64183988     A.U. after   12 cycles
 SCF Done:  E(RHF) =  -1649.64184265     A.U. after   11 cycles
 SCF Done:  E(RHF) =  -1649.64184497     A.U. after   10 cycles
 Optimization completed.
    -- Stationary point found.

                         Standard orientation:
 ---------------------------------------------------------------------
 Center     Atomic      Atomic             Coordinates (Angstroms)
 Number     Number       Type             X           Y           Z
 ---------------------------------------------------------------------
      1          6           0        3.941893    0.753608    0.251783
      2          6           0        2.537248    0.991850    0.447423
      3          6           0        1.743502    0.036556   -0.091029
      4          6           0        4.174899   -0.389588   -0.424412
      5          1           0        4.717781    1.414145    0.609714
      6         16           0        2.717688   -1.199934   -0.854649
      7          1           0        5.130970   -0.800148   -0.701428
      8          6           0        0.276500   -0.041118   -0.053317
      9         16           0       -0.527784   -1.350570    0.805828
     10          6           0       -2.083585   -0.696023    0.399785
     11          6           0       -1.958757    0.451110   -0.327963
     12          6           0       -0.602799    0.829962   -0.594977
     13          1           0       -0.300503    1.698344   -1.156296
     14         16           0       -3.515261    1.107040   -0.735291
     15          6           0       -4.306001   -0.204329    0.100046
     16          6           0       -3.442718   -1.083131    0.650468
     17          1           0       -5.381657   -0.242136    0.132615
     18          1           0       -3.745683   -1.956258    1.204981
     19          8           0        2.045512    2.066134    1.100607
     20          1           0        2.739616    2.559024    1.504512
 ---------------------------------------------------------------------

 The electronic state is 1-A.
 Alpha  occ. eigenvalues --  -91.98978 -91.98644 -91.98473 -20.60984 -11.31800
 Alpha  occ. eigenvalues --  -11.28393 -11.28392 -11.27406 -11.26972 -11.26854
 Alpha  occ. eigenvalues --  -11.26704 -11.25503 -11.25433 -11.25236  -8.99173
 Alpha  occ. eigenvalues --   -8.98827  -8.98639  -6.67341  -6.67248  -6.67049
 Alpha  occ. eigenvalues --   -6.66994  -6.66917  -6.66803  -6.66722  -6.66710
 Alpha  occ. eigenvalues --   -6.66513  -1.42986  -1.21276  -1.18425  -1.12584
 Alpha  occ. eigenvalues --   -1.02894  -1.01995  -0.98647  -0.95604  -0.94245
 Alpha  occ. eigenvalues --   -0.82598  -0.81140  -0.77015  -0.74980  -0.72274
 Alpha  occ. eigenvalues --   -0.69675  -0.66786  -0.66489  -0.62147  -0.61074
 Alpha  occ. eigenvalues --   -0.58306  -0.56324  -0.56019  -0.53880  -0.53084
 Alpha  occ. eigenvalues --   -0.52696  -0.50682  -0.49316  -0.48602  -0.46079
 Alpha  occ. eigenvalues --   -0.45814  -0.38437  -0.35077  -0.33190  -0.31735
 Alpha  occ. eigenvalues --   -0.29232
 Alpha virt. eigenvalues --    0.02757   0.03721   0.03952   0.04991   0.05094
 Alpha virt. eigenvalues --    0.06237   0.08103   0.08244   0.08589   0.09090
 Alpha virt. eigenvalues --    0.10031   0.10276   0.10473   0.10954   0.11324

 Mulliken charges:
               1
     1  C    0.635400
     2  C    0.283065
     3  C    0.710403
     4  C   -0.325982
     5  H   -0.452316
     6  S    0.407359
     7  H   -0.338279
     8  C    0.312631
     9  S    0.399614
    10  C   -0.815040
    11  C   -0.128014
    12  C    0.089651
    13  H   -0.426561
    14  S    0.629736
    15  C   -0.088266
    16  C    0.571283
    17  H   -0.376981
    18  H   -0.323849
    19  O   -0.926380
    20  H    0.162527
 Sum of Mulliken charges =  -0.00000

 Dipole moment (field-independent basis, Debye):
    X=              2.1455    Y=              1.0581    Z=              0.7402  Tot=              2.5041
 Quadrupole moment (field-independent basis, Debye-Ang):
   XX=            -77.4831   YY=            -99.5673   ZZ=           -105.8496
   XY=              9.5429   XZ=              0.7995   YZ=              0.3369

 Normal termination of Gaussian 16 at Mon Oct 25 22:50:22 2021.
