 Gaussian 16, Revision C.01,
 Gaussian 16:  ES64L-G16RevC.01  3-Jul-2019

 ---------------------------------
 # opt=modredundant hf/aug-cc-pvdz
 ---------------------------------

 ------------
 pBTTT_45.pdb
 ------------
 Symbolic Z-matrix:
 Charge =  0 Multiplicity = 1

 SCF Done:  E(RHF) =  -1649.50650177     A.U. after   18 cycles
 SCF Done:  E(RHF) =  -1649.57530640     A.U. after   16 cycles
 SCF Done:  E(RHF) =  -1649.62519906     A.U. after   16 cycles
 SCF Done:  E(RHF) =  -1649.63698124     A.U. after   15 cycles
 SCF Done:  E(RHF) =  -1649.64046164     A.U. after   15 cycles
 SCF Done:  E(RHF) =  -1649.64144324     A.U. after   15 cycles
 SCF Done:  E(RHF) =  -1649.64180896     A.U. after   15 cycles
 SCF Done:  E(RHF) =  -1649.64210079     A.U. after   14 cycles
 SCF Done:  E(RHF) =  -1649.64209265     A.U. after   13 cycles
 SCF Done:  E(RHF) =  -1649.64215041     A.U. after   13 cycles
 SCF Done:  E(RHF) =  -1649.64215416     A.U. after   12 cycles
 SCF Done:  E(RHF) =  -1649.64215593     A.U. after   10 cycles
 SCF Done:  E(RHF) =  -1649.64215586     A.U. after    9 cycles
 Optimization completed.
    -- Stationary point found.

                         Standard orientation:
 ---------------------------------------------------------------------
 Center     Atomic      Atomic             Coordinates (Angstroms)
 Number     Number       Type             X           Y           Z
 ---------------------------------------------------------------------
      1          6           0       -4.019553    0.338160   -0.280087
      2          6           0       -2.666299    0.807302   -0.394619
      3          6           0       -1.738318   -0.103406   -0.013063
      4          6           0       -4.084615   -0.924727    0.188109
      5          1           0       -4.882607    0.930477   -0.545986
      6         16           0       -2.523608   -1.574212    0.515187
      7          1           0       -4.969931   -1.511483    0.364360
      8          6           0       -0.274977   -0.000569   -0.018795
      9         16           0        0.537651    1.441306    0.576122
     10          6           0        2.089558    0.713577    0.300707
     11          6           0        1.959658   -0.546817   -0.203762
     12          6           0        0.602907   -0.963717   -0.390112
     13          1           0        0.300873   -1.919628   -0.785682
     14         16           0        3.513232   -1.268578   -0.495521
     15          6           0        4.310119    0.174121    0.077148
     16          6           0        3.450268    1.139734    0.463048
     17          1           0        5.385964    0.215788    0.094822
     18          1           0        3.757208    2.099828    0.844838
     19          8           0       -2.336697    2.034388   -0.851022
     20          1           0       -3.106832    2.531706   -1.068230
 ---------------------------------------------------------------------

 The electronic state is 1-A.
 Alpha  occ. eigenvalues --  -91.99129 -91.98565 -91.98354 -20.61095 -11.31838
 Alpha  occ. eigenvalues --  -11.28686 -11.28449 -11.27307 -11.27201 -11.26743
 Alpha  occ. eigenvalues --  -11.26590 -11.25635 -11.25360 -11.25153  -8.99330
 Alpha  occ. eigenvalues --   -8.98748  -8.98520  -6.67499  -6.67406  -6.67206
 Alpha  occ. eigenvalues --   -6.66915  -6.66838  -6.66682  -6.66631  -6.66601
 Alpha  occ. eigenvalues --   -6.66390  -1.43134  -1.21257  -1.18553  -1.12581
 Alpha  occ. eigenvalues --   -1.02993  -1.01979  -0.98798  -0.95663  -0.94140
 Alpha  occ. eigenvalues --   -0.82710  -0.81376  -0.77070  -0.75210  -0.71551
 Alpha  occ. eigenvalues --   -0.69990  -0.66930  -0.66470  -0.62032  -0.61212
 Alpha  occ. eigenvalues --   -0.58704  -0.56373  -0.56081  -0.53863  -0.52864
 Alpha  occ. eigenvalues --   -0.52669  -0.51078  -0.49510  -0.48267  -0.46326
 Alpha  occ. eigenvalues --   -0.45632  -0.38577  -0.35539  -0.33767  -0.31685
 Alpha  occ. eigenvalues --   -0.28161
 Alpha virt. eigenvalues --    0.02767   0.03723   0.03959   0.05012   0.05117
 Alpha virt. eigenvalues --    0.06270   0.07388   0.08533   0.08734   0.09218
 Alpha virt. eigenvalues --    0.10318   0.10495   0.10564   0.10948   0.11358

 Mulliken charges:
               1
     1  C    0.507542
     2  C    0.405543
     3  C    0.788169
     4  C   -0.250506
     5  H   -0.461326
     6  S    0.431927
     7  H   -0.343715
     8  C    0.141721
     9  S    0.454091
    10  C   -0.620775
    11  C   -0.196671
    12  C    0.229835
    13  H   -0.492678
    14  S    0.582328
    15  C   -0.117123
    16  C    0.403140
    17  H   -0.377802
    18  H   -0.319781
    19  O   -0.932466
    20  H    0.168546
 Sum of Mulliken charges =  -0.00000

 Dipole moment (field-independent basis, Debye):
    X=             -2.4530    Y=              0.9948    Z=             -0.4473  Tot=              2.6845
 Quadrupole moment (field-independent basis, Debye-Ang):
   XX=            -75.9459   YY=            -97.9784   ZZ=           -108.5731
   XY=             -0.7035   XZ=              4.3880   YZ=              0.1014

 Normal termination of Gaussian 16 at Mon Oct 25 23:23:37 2021.
