 Gaussian 16, Revision C.01,
 Gaussian 16:  ES64L-G16RevC.01  3-Jul-2019

 ---------------------------------
 # opt=modredundant hf/aug-cc-pvdz
 ---------------------------------

 -------------
 pBTTT_105.pdb
 -------------
 Symbolic Z-matrix:
 Charge =  0 Multiplicity = 1

 SCF Done:  E(RHF) =  -1649.50446261     A.U. after   18 cycles
 SCF Done:  E(RHF) =  -1649.57403303     A.U. after   15 cycles
 SCF Done:  E(RHF) =  -1649.62503540     A.U. after   15 cycles
 SCF Done:  E(RHF) =  -1649.63664793     A.U. after   15 cycles
 SCF Done:  E(RHF) =  -1649.64003615     A.U. after   15 cycles
 SCF Done:  E(RHF) =  -1649.64096543     A.U. after   14 cycles
 SCF Done:  E(RHF) =  -1649.64121206     A.U. after   14 cycles
 SCF Done:  E(RHF) =  -1649.64151178     A.U. after   13 cycles
 SCF Done:  E(RHF) =  -1649.64150901     A.U. after   13 cycles
 SCF Done:  E(RHF) =  -1649.64157129     A.U. after   12 cycles
 SCF Done:  E(RHF) =  -1649.64157305     A.U. after   11 cycles
 SCF Done:  E(RHF) =  -1649.64157552     A.U. after   10 cycles
 SCF Done:  E(RHF) =  -1649.64157564     A.U. after    9 cycles
 Optimization completed.
    -- Stationary point found.

                         Standard orientation:
 ---------------------------------------------------------------------
 Center     Atomic      Atomic             Coordinates (Angstroms)
 Number     Number       Type             X           Y           Z
 ---------------------------------------------------------------------
      1          6           0       -3.951311    0.707896    0.272229
      2          6           0       -2.550627    0.936239    0.506482
      3          6           0       -1.744409    0.031952   -0.096260
      4          6           0       -4.167585   -0.377277   -0.498638
      5          1           0       -4.736245    1.333360    0.671110
      6         16           0       -2.699968   -1.144405   -0.969993
      7          1           0       -5.117458   -0.767653   -0.822429
      8          6           0       -0.275452   -0.037666   -0.048105
      9         16           0        0.529709   -1.256726    0.933221
     10          6           0        2.084872   -0.646217    0.462626
     11          6           0        1.959556    0.420949   -0.378100
     12          6           0        0.602912    0.772337   -0.677974
     13          1           0        0.299167    1.580599   -1.322508
     14         16           0        3.515634    1.033371   -0.850148
     15          6           0        4.307014   -0.185713    0.114173
     16          6           0        3.444556   -1.004473    0.751439
     17          1           0        5.382715   -0.219889    0.149554
     18          1           0        3.748235   -1.816343    1.391933
     19          8           0       -2.072880    1.954222    1.252287
     20          1           0       -2.776536    2.432139    1.657531
 ---------------------------------------------------------------------

 The electronic state is 1-A.
 Alpha  occ. eigenvalues --  -91.98946 -91.98655 -91.98440 -20.60943 -11.31790
 Alpha  occ. eigenvalues --  -11.28381 -11.28355 -11.27431 -11.26878 -11.26864
 Alpha  occ. eigenvalues --  -11.26702 -11.25468 -11.25435 -11.25309  -8.99137
 Alpha  occ. eigenvalues --   -8.98839  -8.98604  -6.67304  -6.67211  -6.67013
 Alpha  occ. eigenvalues --   -6.67006  -6.66928  -6.66768  -6.66721  -6.66686
 Alpha  occ. eigenvalues --   -6.66478  -1.42967  -1.21272  -1.18390  -1.12580
 Alpha  occ. eigenvalues --   -1.02848  -1.01992  -0.98600  -0.95633  -0.94236
 Alpha  occ. eigenvalues --   -0.82550  -0.81112  -0.77025  -0.74967  -0.72227
 Alpha  occ. eigenvalues --   -0.69678  -0.66799  -0.66471  -0.62106  -0.61019
 Alpha  occ. eigenvalues --   -0.58321  -0.56339  -0.56032  -0.53778  -0.53215
 Alpha  occ. eigenvalues --   -0.52692  -0.50633  -0.49281  -0.48621  -0.45959
 Alpha  occ. eigenvalues --   -0.45824  -0.38380  -0.34942  -0.32765  -0.31691
 Alpha  occ. eigenvalues --   -0.29788
 Alpha virt. eigenvalues --    0.02764   0.03711   0.03971   0.04944   0.05093
 Alpha virt. eigenvalues --    0.06230   0.08044   0.08377   0.08712   0.09009
 Alpha virt. eigenvalues --    0.09847   0.10253   0.10417   0.10919   0.11401

 Mulliken charges:
               1
     1  C    0.670090
     2  C    0.305058
     3  C    0.623810
     4  C   -0.341992
     5  H   -0.452085
     6  S    0.388641
     7  H   -0.333516
     8  C    0.408517
     9  S    0.389038
    10  C   -0.812616
    11  C   -0.199870
    12  C    0.079737
    13  H   -0.423867
    14  S    0.641166
    15  C   -0.087818
    16  C    0.617188
    17  H   -0.377073
    18  H   -0.326333
    19  O   -0.927172
    20  H    0.159096
 Sum of Mulliken charges =  -0.00000

 Dipole moment (field-independent basis, Debye):
    X=             -2.1376    Y=              1.0209    Z=              0.7431  Tot=              2.4827
 Quadrupole moment (field-independent basis, Debye-Ang):
   XX=            -77.3155   YY=           -100.7626   ZZ=           -104.7565
   XY=             -9.1060   XZ=             -0.6070   YZ=              0.1698

 1\1\GINC-CX3-6-2\FOpt\RHF\Aug-CC-pVDZ\C10H6O1S3\NS5018\25-Oct-2021\0\\
 # opt=modredundant hf/aug-cc-pvdz\\pBTTT_105.pdb\\0,1\C,-4.1108821112,
 -1.1694444748,-0.1992135885\C,-2.7423712504,-1.0323106113,-0.620289792
 9\C,-2.0522527866,-2.1962250023,-0.6125779216\C,-4.4172055117,-2.44140
 70855,0.1277203898\H,-4.8087197269,-0.3466669053,-0.1493017953\S,-3.07
 81526579,-3.5054478037,-0.0705581504\H,-5.3666118983,-2.815075453,0.47
 19506852\C,-0.6393721904,-2.4074875586,-0.964908655\S,0.5631037482,-2.
 68285006,0.2903283983\C,1.8204100524,-2.7918547105,-0.9013142384\C,1.3

 Normal termination of Gaussian 16 at Mon Oct 25 23:38:05 2021.
