 Gaussian 16, Revision C.01,
 Gaussian 16:  ES64L-G16RevC.01  3-Jul-2019

 ---------------------------------
 # opt=modredundant hf/aug-cc-pvdz
 ---------------------------------

 -------------
 pBTTT_-50.pdb
 -------------
 Symbolic Z-matrix:
 Charge =  0 Multiplicity = 1

 SCF Done:  E(RHF) =  -1649.50706264     A.U. after   18 cycles
 SCF Done:  E(RHF) =  -1649.57606680     A.U. after   15 cycles
 SCF Done:  E(RHF) =  -1649.62587054     A.U. after   16 cycles
 SCF Done:  E(RHF) =  -1649.63739152     A.U. after   15 cycles
 SCF Done:  E(RHF) =  -1649.64061977     A.U. after   15 cycles
 SCF Done:  E(RHF) =  -1649.64142967     A.U. after   15 cycles
 SCF Done:  E(RHF) =  -1649.64176076     A.U. after   15 cycles
 SCF Done:  E(RHF) =  -1649.64202576     A.U. after   13 cycles
 SCF Done:  E(RHF) =  -1649.64201300     A.U. after   12 cycles
 SCF Done:  E(RHF) =  -1649.64206427     A.U. after   13 cycles
 SCF Done:  E(RHF) =  -1649.64206792     A.U. after   12 cycles
 SCF Done:  E(RHF) =  -1649.64206905     A.U. after   10 cycles
 SCF Done:  E(RHF) =  -1649.64206906     A.U. after    9 cycles
 Optimization completed.
    -- Stationary point found.

                         Standard orientation:
 ---------------------------------------------------------------------
 Center     Atomic      Atomic             Coordinates (Angstroms)
 Number     Number       Type             X           Y           Z
 ---------------------------------------------------------------------
      1          6           0       -4.016047    0.338539    0.313650
      2          6           0       -2.659820    0.796116    0.440872
      3          6           0       -1.739129   -0.101692    0.014723
      4          6           0       -4.089453   -0.903282   -0.207241
      5          1           0       -4.874973    0.922578    0.609584
      6         16           0       -2.533520   -1.545681   -0.569744
      7          1           0       -4.978740   -1.477811   -0.402917
      8          6           0       -0.274663   -0.002214    0.015262
      9         16           0        0.537274    1.410806   -0.645135
     10          6           0        2.089423    0.698489   -0.333649
     11          6           0        1.959563   -0.538399    0.226320
     12          6           0        0.602494   -0.947757    0.428862
     13          1           0        0.299244   -1.884980    0.866044
     14         16           0        3.513162   -1.245484    0.551942
     15          6           0        4.309933    0.169805   -0.085303
     16          6           0        3.450239    1.117339   -0.513831
     17          1           0        5.385787    0.211027   -0.103997
     18          1           0        3.757222    2.059546   -0.937778
     19          8           0       -2.320894    2.000008    0.948921
     20          1           0       -3.087298    2.493642    1.186711
 ---------------------------------------------------------------------

 The electronic state is 1-A.
 Alpha  occ. eigenvalues --  -91.99113 -91.98582 -91.98357 -20.61048 -11.31818
 Alpha  occ. eigenvalues --  -11.28639 -11.28426 -11.27331 -11.27139 -11.26763
 Alpha  occ. eigenvalues --  -11.26617 -11.25606 -11.25373 -11.25193  -8.99310
 Alpha  occ. eigenvalues --   -8.98765  -8.98525  -6.67478  -6.67385  -6.67185
 Alpha  occ. eigenvalues --   -6.66932  -6.66855  -6.66687  -6.66648  -6.66606
 Alpha  occ. eigenvalues --   -6.66396  -1.43085  -1.21264  -1.18527  -1.12586
 Alpha  occ. eigenvalues --   -1.02961  -1.01984  -0.98765  -0.95671  -0.94152
 Alpha  occ. eigenvalues --   -0.82679  -0.81328  -0.77064  -0.75181  -0.71621
 Alpha  occ. eigenvalues --   -0.69952  -0.66882  -0.66488  -0.62023  -0.61155
 Alpha  occ. eigenvalues --   -0.58675  -0.56376  -0.56075  -0.53838  -0.52928
 Alpha  occ. eigenvalues --   -0.52675  -0.51002  -0.49477  -0.48334  -0.46245
 Alpha  occ. eigenvalues --   -0.45667  -0.38525  -0.35434  -0.33641  -0.31693
 Alpha  occ. eigenvalues --   -0.28396
 Alpha virt. eigenvalues --    0.02775   0.03722   0.03968   0.05002   0.05111
 Alpha virt. eigenvalues --    0.06265   0.07530   0.08514   0.08683   0.09142
 Alpha virt. eigenvalues --    0.10312   0.10463   0.10530   0.10918   0.11321

 Mulliken charges:
               1
     1  C    0.498808
     2  C    0.459391
     3  C    0.716301
     4  C   -0.238882
     5  H   -0.459856
     6  S    0.418829
     7  H   -0.341228
     8  C    0.165135
     9  S    0.437774
    10  C   -0.642906
    11  C   -0.196461
    12  C    0.223818
    13  H   -0.487998
    14  S    0.592621
    15  C   -0.107790
    16  C    0.429321
    17  H   -0.377504
    18  H   -0.319360
    19  O   -0.937589
    20  H    0.167577
 Sum of Mulliken charges =  -0.00000

 Dipole moment (field-independent basis, Debye):
    X=             -2.4099    Y=              0.9708    Z=              0.4897  Tot=              2.6439
 Quadrupole moment (field-independent basis, Debye-Ang):
   XX=            -76.0354   YY=            -98.3912   ZZ=           -108.0942
   XY=             -0.6928   XZ=             -4.8327   YZ=             -0.1227

 1\1\GINC-CX3-5-2\FOpt\RHF\Aug-CC-pVDZ\C10H6O1S3\NS5018\25-Oct-2021\0\\
 # opt=modredundant hf/aug-cc-pvdz\\pBTTT_-50.pdb\\0,1\C,-4.2139012277,
 -1.4039532995,-0.2144404162\C,-2.8952660736,-0.9523904123,-0.564019171
 \C,-1.9638365354,-1.9361454124,-0.5630051112\C,-4.2484848935,-2.726699
 459,0.0462923647\H,-5.0744969599,-0.7536454428,-0.160520811\S,-2.70233
 19569,-3.4624693806,-0.1355468257\H,-5.1043651258,-3.3135790374,0.3330
 77286\C,-0.5242909244,-1.8530173882,-0.8375108618\S,0.0778640317,-1.04
 0766061,-2.2761385628\C,1.7107003373,-1.4621574732,-1.8639951295\C,1.7

 Normal termination of Gaussian 16 at Mon Oct 25 23:01:08 2021.
