 Gaussian 16, Revision C.01,
 Gaussian 16:  ES64L-G16RevC.01  3-Jul-2019

 ---------------------------------
 # opt=modredundant hf/aug-cc-pvdz
 ---------------------------------

 -----------
 pBTTT_0.pdb
 -----------
 Symbolic Z-matrix:
 Charge =  0 Multiplicity = 1

 SCF Done:  E(RHF) =  -1649.50874114     A.U. after   18 cycles
 SCF Done:  E(RHF) =  -1649.57724902     A.U. after   16 cycles
 SCF Done:  E(RHF) =  -1649.62607554     A.U. after   16 cycles
 SCF Done:  E(RHF) =  -1649.63776676     A.U. after   16 cycles
 SCF Done:  E(RHF) =  -1649.64109754     A.U. after   15 cycles
 SCF Done:  E(RHF) =  -1649.64207155     A.U. after   15 cycles
 SCF Done:  E(RHF) =  -1649.64229082     A.U. after   15 cycles
 SCF Done:  E(RHF) =  -1649.64258413     A.U. after   14 cycles
 SCF Done:  E(RHF) =  -1649.64260544     A.U. after   14 cycles
 SCF Done:  E(RHF) =  -1649.64264610     A.U. after   12 cycles
 SCF Done:  E(RHF) =  -1649.64264721     A.U. after   11 cycles
 SCF Done:  E(RHF) =  -1649.64264997     A.U. after   10 cycles
 SCF Done:  E(RHF) =  -1649.64264965     A.U. after    9 cycles
 SCF Done:  E(RHF) =  -1649.64265014     A.U. after    9 cycles
 SCF Done:  E(RHF) =  -1649.64265018     A.U. after    8 cycles
 Optimization completed.
    -- Stationary point found.

                         Standard orientation:
 ---------------------------------------------------------------------
 Center     Atomic      Atomic             Coordinates (Angstroms)
 Number     Number       Type             X           Y           Z
 ---------------------------------------------------------------------
      1          6           0       -4.027932    0.366830    0.000006
      2          6           0       -2.676143    0.854338    0.000053
      3          6           0       -1.735295   -0.122514   -0.000018
      4          6           0       -4.084025   -0.978542   -0.000013
      5          1           0       -4.895079    1.010301    0.000062
      6         16           0       -2.514645   -1.691872   -0.000079
      7          1           0       -4.963898   -1.598655    0.000011
      8          6           0       -0.276132   -0.012842   -0.000008
      9         16           0        0.537564    1.551408   -0.000120
     10          6           0        2.089559    0.773410   -0.000038
     11          6           0        1.963322   -0.583673    0.000042
     12          6           0        0.609377   -1.041996    0.000104
     13          1           0        0.320377   -2.080171    0.000201
     14         16           0        3.518674   -1.358662    0.000058
     15          6           0        4.312234    0.196181   -0.000001
     16          6           0        3.448774    1.233231   -0.000031
     17          1           0        5.387906    0.244150   -0.000046
     18          1           0        3.752862    2.267381   -0.000083
     19          8           0       -2.359528    2.166644    0.000154
     20          1           0       -3.133863    2.703313    0.000301
 ---------------------------------------------------------------------

 The electronic state is 1-A.
 Alpha  occ. eigenvalues --  -91.99175 -91.98439 -91.98339 -20.61478 -11.32032
 Alpha  occ. eigenvalues --  -11.28929 -11.28665 -11.27563 -11.27138 -11.26636
 Alpha  occ. eigenvalues --  -11.26313 -11.25816 -11.25253 -11.24910  -8.99402
 Alpha  occ. eigenvalues --   -8.98622  -8.98482  -6.67576  -6.67484  -6.67279
 Alpha  occ. eigenvalues --   -6.66789  -6.66712  -6.66640  -6.66558  -6.66505
 Alpha  occ. eigenvalues --   -6.66346  -1.43556  -1.21181  -1.18686  -1.12518
 Alpha  occ. eigenvalues --   -1.03179  -1.01927  -0.98973  -0.95624  -0.94043
 Alpha  occ. eigenvalues --   -0.82879  -0.81717  -0.77109  -0.75398  -0.71164
 Alpha  occ. eigenvalues --   -0.70243  -0.67358  -0.66276  -0.62095  -0.61670
 Alpha  occ. eigenvalues --   -0.58809  -0.56349  -0.56145  -0.53999  -0.52720
 Alpha  occ. eigenvalues --   -0.52299  -0.51648  -0.49629  -0.47787  -0.46830
 Alpha  occ. eigenvalues --   -0.45303  -0.38958  -0.35987  -0.34229  -0.31650
 Alpha  occ. eigenvalues --   -0.27139
 Alpha virt. eigenvalues --    0.02689   0.03694   0.03895   0.05007   0.05142
 Alpha virt. eigenvalues --    0.06282   0.06704   0.08555   0.09439   0.09788
 Alpha virt. eigenvalues --    0.10379   0.10703   0.10831   0.11135   0.11687

 Mulliken charges:
               1
     1  C    0.763304
     2  C   -0.043795
     3  C    1.079641
     4  C   -0.321430
     5  H   -0.466875
     6  S    0.570162
     7  H   -0.389486
     8  C    0.017588
     9  S    0.451367
    10  C   -0.564412
    11  C   -0.049382
    12  C    0.327172
    13  H   -0.521093
    14  S    0.488186
    15  C   -0.184754
    16  C    0.315702
    17  H   -0.387743
    18  H   -0.333279
    19  O   -0.943234
    20  H    0.192361
 Sum of Mulliken charges =  -0.00000

 Dipole moment (field-independent basis, Debye):
    X=             -2.7373    Y=              1.2029    Z=              0.0003  Tot=              2.9900
 Quadrupole moment (field-independent basis, Debye-Ang):
   XX=            -75.6510   YY=            -95.9223   ZZ=           -110.7730
   XY=             -1.0615   XZ=             -0.0020   YZ=              0.0004

 Normal termination of Gaussian 16 at Mon Oct 25 23:20:10 2021.
