 Gaussian 16, Revision C.01,
 Gaussian 16:  ES64L-G16RevC.01  3-Jul-2019

 ---------------------------------
 # opt=modredundant hf/aug-cc-pvdz
 ---------------------------------

 ------------
 pBTTT_25.pdb
 ------------
 Symbolic Z-matrix:
 Charge =  0 Multiplicity = 1

 SCF Done:  E(RHF) =  -1649.50783097     A.U. after   18 cycles
 SCF Done:  E(RHF) =  -1649.57636601     A.U. after   16 cycles
 SCF Done:  E(RHF) =  -1649.62549412     A.U. after   16 cycles
 SCF Done:  E(RHF) =  -1649.63734706     A.U. after   16 cycles
 SCF Done:  E(RHF) =  -1649.64079393     A.U. after   15 cycles
 SCF Done:  E(RHF) =  -1649.64179405     A.U. after   15 cycles
 SCF Done:  E(RHF) =  -1649.64210991     A.U. after   15 cycles
 SCF Done:  E(RHF) =  -1649.64240949     A.U. after   14 cycles
 SCF Done:  E(RHF) =  -1649.64240702     A.U. after   14 cycles
 SCF Done:  E(RHF) =  -1649.64245844     A.U. after   13 cycles
 SCF Done:  E(RHF) =  -1649.64246135     A.U. after   11 cycles
 SCF Done:  E(RHF) =  -1649.64246321     A.U. after   10 cycles
 SCF Done:  E(RHF) =  -1649.64246317     A.U. after    9 cycles
 Optimization completed.
    -- Stationary point found.

                         Standard orientation:
 ---------------------------------------------------------------------
 Center     Atomic      Atomic             Coordinates (Angstroms)
 Number     Number       Type             X           Y           Z
 ---------------------------------------------------------------------
      1          6           0       -4.026611    0.351191   -0.152615
      2          6           0       -2.676864    0.839400   -0.215858
      3          6           0       -1.736001   -0.114621   -0.008466
      4          6           0       -4.079613   -0.970188    0.105473
      5          1           0       -4.895523    0.975482   -0.299092
      6         16           0       -2.509951   -1.656438    0.290125
      7          1           0       -4.958655   -1.583757    0.203920
      8          6           0       -0.275865   -0.005324   -0.022574
      9         16           0        0.537378    1.521521    0.307839
     10          6           0        2.089304    0.755630    0.169475
     11          6           0        1.961574   -0.572019   -0.112422
     12          6           0        0.606647   -1.015865   -0.225381
     13          1           0        0.312291   -2.027746   -0.450935
     14         16           0        3.516232   -1.331722   -0.272128
     15          6           0        4.311098    0.188668    0.048269
     16          6           0        3.449019    1.204814    0.260882
     17          1           0        5.386835    0.233808    0.061506
     18          1           0        3.754209    2.216412    0.473960
     19          8           0       -2.362002    2.128848   -0.463290
     20          1           0       -3.137818    2.651120   -0.577104
 ---------------------------------------------------------------------

 The electronic state is 1-A.
 Alpha  occ. eigenvalues --  -91.99165 -91.98489 -91.98340 -20.61322 -11.31944
 Alpha  occ. eigenvalues --  -11.28845 -11.28570 -11.27427 -11.27205 -11.26671
 Alpha  occ. eigenvalues --  -11.26438 -11.25746 -11.25297 -11.24999  -8.99382
 Alpha  occ. eigenvalues --   -8.98672  -8.98494  -6.67554  -6.67462  -6.67259
 Alpha  occ. eigenvalues --   -6.66840  -6.66762  -6.66654  -6.66573  -6.66555
 Alpha  occ. eigenvalues --   -6.66362  -1.43377  -1.21216  -1.18640  -1.12547
 Alpha  occ. eigenvalues --   -1.03111  -1.01950  -0.98912  -0.95636  -0.94081
 Alpha  occ. eigenvalues --   -0.82820  -0.81582  -0.77092  -0.75325  -0.71299
 Alpha  occ. eigenvalues --   -0.70144  -0.67180  -0.66360  -0.62071  -0.61478
 Alpha  occ. eigenvalues --   -0.58781  -0.56352  -0.56120  -0.53950  -0.52747
 Alpha  occ. eigenvalues --   -0.52501  -0.51398  -0.49603  -0.47980  -0.46637
 Alpha  occ. eigenvalues --   -0.45450  -0.38804  -0.35859  -0.34093  -0.31657
 Alpha  occ. eigenvalues --   -0.27457
 Alpha virt. eigenvalues --    0.02725   0.03713   0.03924   0.05019   0.05140
 Alpha virt. eigenvalues --    0.06282   0.06916   0.08564   0.09147   0.09480
 Alpha virt. eigenvalues --    0.10382   0.10584   0.10691   0.11007   0.11538

 Mulliken charges:
               1
     1  C    0.601865
     2  C    0.180485
     3  C    1.006954
     4  C   -0.310603
     5  H   -0.465102
     6  S    0.470172
     7  H   -0.364800
     8  C    0.086273
     9  S    0.489900
    10  C   -0.590739
    11  C   -0.135529
    12  C    0.291689
    13  H   -0.511514
    14  S    0.533354
    15  C   -0.154491
    16  C    0.326298
    17  H   -0.381137
    18  H   -0.325176
    19  O   -0.926859
    20  H    0.178961
 Sum of Mulliken charges =  -0.00000

 Dipole moment (field-independent basis, Debye):
    X=             -2.6259    Y=              1.1208    Z=             -0.2445  Tot=              2.8656
 Quadrupole moment (field-independent basis, Debye-Ang):
   XX=            -75.7326   YY=            -96.6009   ZZ=           -110.0791
   XY=             -0.9059   XZ=              2.4385   YZ=              0.0784

 Normal termination of Gaussian 16 at Mon Oct 25 23:19:32 2021.
