 Gaussian 16, Revision C.01,
 Gaussian 16:  ES64L-G16RevC.01  3-Jul-2019

 ---------------------------------
 # opt=modredundant hf/aug-cc-pvdz
 ---------------------------------

 ------------
 pBTTT_70.pdb
 ------------
 Symbolic Z-matrix:
 Charge =  0 Multiplicity = 1

 SCF Done:  E(RHF) =  -1649.50476931     A.U. after   18 cycles
 SCF Done:  E(RHF) =  -1649.57408868     A.U. after   15 cycles
 SCF Done:  E(RHF) =  -1649.62488554     A.U. after   16 cycles
 SCF Done:  E(RHF) =  -1649.63657384     A.U. after   15 cycles
 SCF Done:  E(RHF) =  -1649.64002760     A.U. after   15 cycles
 SCF Done:  E(RHF) =  -1649.64097842     A.U. after   14 cycles
 SCF Done:  E(RHF) =  -1649.64131495     A.U. after   15 cycles
 SCF Done:  E(RHF) =  -1649.64160973     A.U. after   14 cycles
 SCF Done:  E(RHF) =  -1649.64161115     A.U. after   13 cycles
 SCF Done:  E(RHF) =  -1649.64167258     A.U. after   13 cycles
 SCF Done:  E(RHF) =  -1649.64167606     A.U. after   11 cycles
 SCF Done:  E(RHF) =  -1649.64167832     A.U. after   10 cycles
 SCF Done:  E(RHF) =  -1649.64167842     A.U. after    9 cycles
 Optimization completed.
    -- Stationary point found.

                         Standard orientation:
 ---------------------------------------------------------------------
 Center     Atomic      Atomic             Coordinates (Angstroms)
 Number     Number       Type             X           Y           Z
 ---------------------------------------------------------------------
      1          6           0        3.996996    0.344353    0.451178
      2          6           0        2.624255    0.737229    0.620021
      3          6           0        1.742516   -0.098739    0.023749
      4          6           0        4.117451   -0.787540   -0.272635
      5          1           0        4.832232    0.890944    0.863585
      6         16           0        2.589735   -1.403872   -0.772956
      7          1           0        5.028041   -1.296479   -0.539621
      8          6           0        0.273651   -0.015172    0.000790
      9         16           0       -0.534310    1.248373   -0.916368
     10          6           0       -2.088035    0.618101   -0.468188
     11          6           0       -1.960456   -0.489934    0.317621
     12          6           0       -0.603104   -0.859713    0.589269
     13          1           0       -0.298202   -1.699234    1.192400
     14         16           0       -3.515251   -1.119568    0.771536
     15          6           0       -4.309330    0.149963   -0.123178
     16          6           0       -3.448647    0.995935   -0.726316
     17          1           0       -5.385137    0.189703   -0.148048
     18          1           0       -3.754268    1.840184   -1.322516
     19          8           0        2.235295    1.825794    1.315654
     20          1           0        2.980412    2.302700    1.639698
 ---------------------------------------------------------------------

 The electronic state is 1-A.
 Alpha  occ. eigenvalues --  -91.99022 -91.98635 -91.98372 -20.60939 -11.31771
 Alpha  occ. eigenvalues --  -11.28460 -11.28372 -11.27410 -11.26913 -11.26830
 Alpha  occ. eigenvalues --  -11.26677 -11.25503 -11.25413 -11.25329  -8.99209
 Alpha  occ. eigenvalues --   -8.98818  -8.98539  -6.67375  -6.67283  -6.67084
 Alpha  occ. eigenvalues --   -6.66986  -6.66908  -6.66702  -6.66701  -6.66620
 Alpha  occ. eigenvalues --   -6.66411  -1.42979  -1.21271  -1.18426  -1.12587
 Alpha  occ. eigenvalues --   -1.02848  -1.01994  -0.98641  -0.95688  -0.94190
 Alpha  occ. eigenvalues --   -0.82563  -0.81178  -0.77049  -0.75071  -0.71893
 Alpha  occ. eigenvalues --   -0.69815  -0.66807  -0.66481  -0.62014  -0.61012
 Alpha  occ. eigenvalues --   -0.58533  -0.56384  -0.56057  -0.53730  -0.53194
 Alpha  occ. eigenvalues --   -0.52660  -0.50754  -0.49344  -0.48532  -0.45986
 Alpha  occ. eigenvalues --   -0.45751  -0.38382  -0.35041  -0.32902  -0.31729
 Alpha  occ. eigenvalues --   -0.29487
 Alpha virt. eigenvalues --    0.02783   0.03710   0.03992   0.04936   0.05099
 Alpha virt. eigenvalues --    0.06244   0.07957   0.08469   0.08703   0.08925
 Alpha virt. eigenvalues --    0.09999   0.10325   0.10465   0.10825   0.11324

 Mulliken charges:
               1
     1  C    0.559664
     2  C    0.516529
     3  C    0.487192
     4  C   -0.253521
     5  H   -0.454395
     6  S    0.372301
     7  H   -0.335034
     8  C    0.372174
     9  S    0.406437
    10  C   -0.755754
    11  C   -0.204114
    12  C    0.137031
    13  H   -0.459272
    14  S    0.631075
    15  C   -0.090542
    16  C    0.556950
    17  H   -0.376852
    18  H   -0.321753
    19  O   -0.955533
    20  H    0.167420
 Sum of Mulliken charges =  -0.00000

 Dipole moment (field-independent basis, Debye):
    X=              2.2600    Y=              0.8911    Z=              0.6698  Tot=              2.5199
 Quadrupole moment (field-independent basis, Debye-Ang):
   XX=            -76.4757   YY=           -100.4193   ZZ=           -105.7123
   XY=              0.7923   XZ=              6.5869   YZ=             -0.1182

 Normal termination of Gaussian 16 at Mon Oct 25 23:32:13 2021.
