 Gaussian 16, Revision C.01,
 Gaussian 16:  ES64L-G16RevC.01  3-Jul-2019

 ---------------------------------
 # opt=modredundant hf/aug-cc-pvdz
 ---------------------------------

 ------------
 pBTTT_50.pdb
 ------------
 Symbolic Z-matrix:
 Charge =  0 Multiplicity = 1

 SCF Done:  E(RHF) =  -1649.50624392     A.U. after   18 cycles
 SCF Done:  E(RHF) =  -1649.57510135     A.U. after   15 cycles
 SCF Done:  E(RHF) =  -1649.62511082     A.U. after   16 cycles
 SCF Done:  E(RHF) =  -1649.63689221     A.U. after   15 cycles
 SCF Done:  E(RHF) =  -1649.64037905     A.U. after   15 cycles
 SCF Done:  E(RHF) =  -1649.64136020     A.U. after   15 cycles
 SCF Done:  E(RHF) =  -1649.64171916     A.U. after   15 cycles
 SCF Done:  E(RHF) =  -1649.64201212     A.U. after   14 cycles
 SCF Done:  E(RHF) =  -1649.64200390     A.U. after   13 cycles
 SCF Done:  E(RHF) =  -1649.64206362     A.U. after   13 cycles
 SCF Done:  E(RHF) =  -1649.64206745     A.U. after   12 cycles
 SCF Done:  E(RHF) =  -1649.64206928     A.U. after   10 cycles
 SCF Done:  E(RHF) =  -1649.64206920     A.U. after    9 cycles
 Optimization completed.
    -- Stationary point found.

                         Standard orientation:
 ---------------------------------------------------------------------
 Center     Atomic      Atomic             Coordinates (Angstroms)
 Number     Number       Type             X           Y           Z
 ---------------------------------------------------------------------
      1          6           0       -4.016275    0.337962   -0.312886
      2          6           0       -2.660260    0.796181   -0.440071
      3          6           0       -1.739107   -0.101568   -0.014802
      4          6           0       -4.089105   -0.903944    0.207868
      5          1           0       -4.875487    0.921757   -0.608471
      6         16           0       -2.532819   -1.546048    0.569378
      7          1           0       -4.978126   -1.478934    0.403405
      8          6           0       -0.274670   -0.001718   -0.016082
      9         16           0        0.537282    1.411329    0.644219
     10          6           0        2.089416    0.698649    0.333484
     11          6           0        1.959554   -0.538188   -0.226616
     12          6           0        0.602501   -0.947079   -0.430152
     13          1           0        0.299245   -1.884377   -0.867165
     14         16           0        3.513151   -1.245865   -0.550983
     15          6           0        4.309929    0.169997    0.084988
     16          6           0        3.450239    1.117249    0.514187
     17          1           0        5.385781    0.211174    0.103749
     18          1           0        3.757228    2.059386    0.938285
     19          8           0       -2.321910    2.000245   -0.948047
     20          1           0       -3.088525    2.493125   -1.186750
 ---------------------------------------------------------------------

 The electronic state is 1-A.
 Alpha  occ. eigenvalues --  -91.99113 -91.98582 -91.98358 -20.61048 -11.31818
 Alpha  occ. eigenvalues --  -11.28639 -11.28426 -11.27331 -11.27139 -11.26763
 Alpha  occ. eigenvalues --  -11.26617 -11.25606 -11.25373 -11.25193  -8.99310
 Alpha  occ. eigenvalues --   -8.98765  -8.98525  -6.67478  -6.67386  -6.67186
 Alpha  occ. eigenvalues --   -6.66932  -6.66855  -6.66687  -6.66648  -6.66606
 Alpha  occ. eigenvalues --   -6.66396  -1.43086  -1.21263  -1.18527  -1.12586
 Alpha  occ. eigenvalues --   -1.02961  -1.01984  -0.98765  -0.95671  -0.94152
 Alpha  occ. eigenvalues --   -0.82679  -0.81328  -0.77064  -0.75181  -0.71621
 Alpha  occ. eigenvalues --   -0.69952  -0.66883  -0.66488  -0.62024  -0.61156
 Alpha  occ. eigenvalues --   -0.58675  -0.56375  -0.56075  -0.53839  -0.52926
 Alpha  occ. eigenvalues --   -0.52675  -0.51002  -0.49477  -0.48333  -0.46247
 Alpha  occ. eigenvalues --   -0.45666  -0.38526  -0.35435  -0.33642  -0.31693
 Alpha  occ. eigenvalues --   -0.28395
 Alpha virt. eigenvalues --    0.02774   0.03722   0.03968   0.05002   0.05111
 Alpha virt. eigenvalues --    0.06265   0.07530   0.08515   0.08682   0.09142
 Alpha virt. eigenvalues --    0.10310   0.10464   0.10532   0.10919   0.11322

 Mulliken charges:
               1
     1  C    0.498604
     2  C    0.459341
     3  C    0.716532
     4  C   -0.238847
     5  H   -0.459894
     6  S    0.418688
     7  H   -0.341193
     8  C    0.165277
     9  S    0.438195
    10  C   -0.642732
    11  C   -0.196809
    12  C    0.223227
    13  H   -0.487919
    14  S    0.592946
    15  C   -0.107709
    16  C    0.429208
    17  H   -0.377484
    18  H   -0.319377
    19  O   -0.937675
    20  H    0.167624
 Sum of Mulliken charges =  -0.00000

 Dipole moment (field-independent basis, Debye):
    X=             -2.4106    Y=              0.9688    Z=             -0.4901  Tot=              2.6438
 Quadrupole moment (field-independent basis, Debye-Ang):
   XX=            -76.0300   YY=            -98.3967   ZZ=           -108.0916
   XY=             -0.6885   XZ=              4.8374   YZ=              0.1210

 Normal termination of Gaussian 16 at Mon Oct 25 23:34:09 2021.
