 Gaussian 16, Revision C.01,
 Gaussian 16:  ES64L-G16RevC.01  3-Jul-2019

 ---------------------------------
 # opt=modredundant hf/aug-cc-pvdz
 ---------------------------------

 -------------
 pBTTT_125.pdb
 -------------
 Symbolic Z-matrix:
 Charge =  0 Multiplicity = 1

 SCF Done:  E(RHF) =  -1649.50581418     A.U. after   18 cycles
 SCF Done:  E(RHF) =  -1649.57513443     A.U. after   15 cycles
 SCF Done:  E(RHF) =  -1649.62560484     A.U. after   16 cycles
 SCF Done:  E(RHF) =  -1649.63720109     A.U. after   15 cycles
 SCF Done:  E(RHF) =  -1649.64060245     A.U. after   15 cycles
 SCF Done:  E(RHF) =  -1649.64159498     A.U. after   15 cycles
 SCF Done:  E(RHF) =  -1649.64181265     A.U. after   14 cycles
 SCF Done:  E(RHF) =  -1649.64211869     A.U. after   14 cycles
 SCF Done:  E(RHF) =  -1649.64209040     A.U. after   13 cycles
 SCF Done:  E(RHF) =  -1649.64216926     A.U. after   13 cycles
 SCF Done:  E(RHF) =  -1649.64217409     A.U. after   11 cycles
 SCF Done:  E(RHF) =  -1649.64217516     A.U. after   10 cycles
 SCF Done:  E(RHF) =  -1649.64217526     A.U. after    9 cycles
 Optimization completed.
    -- Stationary point found.

                         Standard orientation:
 ---------------------------------------------------------------------
 Center     Atomic      Atomic             Coordinates (Angstroms)
 Number     Number       Type             X           Y           Z
 ---------------------------------------------------------------------
      1          6           0       -3.935905    0.790097    0.221838
      2          6           0       -2.529307    1.039527    0.382306
      3          6           0       -1.742486    0.039397   -0.081386
      4          6           0       -4.179086   -0.404721   -0.353897
      5          1           0       -4.706198    1.480829    0.531538
      6         16           0       -2.727977   -1.251047   -0.733150
      7          1           0       -5.138643   -0.834707   -0.585356
      8          6           0       -0.277544   -0.041098   -0.051700
      9         16           0        0.526836   -1.423559    0.685516
     10          6           0        2.082920   -0.735294    0.339491
     11          6           0        1.957786    0.474553   -0.278046
     12          6           0        0.602436    0.877041   -0.509830
     13          1           0        0.301583    1.793438   -0.989073
     14         16           0        3.514354    1.164554   -0.623844
     15          6           0        4.305282   -0.219515    0.084679
     16          6           0        3.441682   -1.145183    0.551602
     17          1           0        5.380927   -0.261040    0.112109
     18          1           0        3.744449   -2.066417    1.022043
     19          8           0       -2.029363    2.166090    0.935088
     20          1           0       -2.713307    2.671190    1.341362
 ---------------------------------------------------------------------

 The electronic state is 1-A.
 Alpha  occ. eigenvalues --  -91.99025 -91.98629 -91.98506 -20.61046 -11.31797
 Alpha  occ. eigenvalues --  -11.28452 -11.28400 -11.27375 -11.27093 -11.26844
 Alpha  occ. eigenvalues --  -11.26700 -11.25546 -11.25429 -11.25147  -8.99225
 Alpha  occ. eigenvalues --   -8.98812  -8.98675  -6.67393  -6.67300  -6.67101
 Alpha  occ. eigenvalues --   -6.66979  -6.66902  -6.66840  -6.66759  -6.66695
 Alpha  occ. eigenvalues --   -6.66550  -1.43021  -1.21283  -1.18475  -1.12590
 Alpha  occ. eigenvalues --   -1.02950  -1.02003  -0.98708  -0.95575  -0.94253
 Alpha  occ. eigenvalues --   -0.82658  -0.81181  -0.77004  -0.75018  -0.72300
 Alpha  occ. eigenvalues --   -0.69697  -0.66790  -0.66487  -0.62187  -0.61151
 Alpha  occ. eigenvalues --   -0.58312  -0.56324  -0.56002  -0.53979  -0.53010
 Alpha  occ. eigenvalues --   -0.52606  -0.50776  -0.49369  -0.48564  -0.46228
 Alpha  occ. eigenvalues --   -0.45794  -0.38522  -0.35267  -0.33543  -0.31783
 Alpha  occ. eigenvalues --   -0.28691
 Alpha virt. eigenvalues --    0.02748   0.03729   0.03930   0.05048   0.05097
 Alpha virt. eigenvalues --    0.06253   0.07958   0.08182   0.08574   0.09212
 Alpha virt. eigenvalues --    0.10101   0.10411   0.10528   0.10967   0.11324

 Mulliken charges:
               1
     1  C    0.606151
     2  C    0.270160
     3  C    0.761566
     4  C   -0.314045
     5  H   -0.452979
     6  S    0.429721
     7  H   -0.340449
     8  C    0.236250
     9  S    0.412012
    10  C   -0.801249
    11  C   -0.058732
    12  C    0.092765
    13  H   -0.436498
    14  S    0.616492
    15  C   -0.090182
    16  C    0.523416
    17  H   -0.377417
    18  H   -0.321543
    19  O   -0.921753
    20  H    0.166314
 Sum of Mulliken charges =  -0.00000

 Dipole moment (field-independent basis, Debye):
    X=             -2.1621    Y=              1.0841    Z=              0.7340  Tot=              2.5276
 Quadrupole moment (field-independent basis, Debye-Ang):
   XX=            -77.6159   YY=            -98.5294   ZZ=           -106.8256
   XY=             -9.8889   XZ=             -0.9739   YZ=              0.5768

 1\1\GINC-CX3-2-6\FOpt\RHF\Aug-CC-pVDZ\C10H6O1S3\NS5018\25-Oct-2021\0\\
 # opt=modredundant hf/aug-cc-pvdz\\pBTTT_125.pdb\\0,1\C,-4.1027020468,
 -1.1691923378,-0.1558432596\C,-2.7558996419,-1.0263528027,-0.637717980
 4\C,-2.057362211,-2.1865856992,-0.6539171702\C,-4.3873001143,-2.440517
 4705,0.1919128552\H,-4.8018005668,-0.3495998324,-0.0790004092\S,-3.053
 8395007,-3.4992684759,-0.0664382119\H,-5.3172117727,-2.8182491505,0.58
 15208912\C,-0.6620703163,-2.3918505762,-1.059434055\S,0.4832105445,-3.
 1601656129,0.0358906936\C,1.7587984403,-2.9762019545,-1.1276693647\C,1

 Normal termination of Gaussian 16 at Mon Oct 25 23:44:06 2021.
