 Gaussian 16, Revision C.01,
 Gaussian 16:  ES64L-G16RevC.01  3-Jul-2019

 ---------------------------------
 # opt=modredundant hf/aug-cc-pvdz
 ---------------------------------

 -------------
 pBTTT_-10.pdb
 -------------
 Symbolic Z-matrix:
 Charge =  0 Multiplicity = 1

 SCF Done:  E(RHF) =  -1649.50892881     A.U. after   18 cycles
 SCF Done:  E(RHF) =  -1649.57741072     A.U. after   16 cycles
 SCF Done:  E(RHF) =  -1649.62625006     A.U. after   16 cycles
 SCF Done:  E(RHF) =  -1649.63783670     A.U. after   16 cycles
 SCF Done:  E(RHF) =  -1649.64111412     A.U. after   16 cycles
 SCF Done:  E(RHF) =  -1649.64205591     A.U. after   15 cycles
 SCF Done:  E(RHF) =  -1649.64226789     A.U. after   15 cycles
 SCF Done:  E(RHF) =  -1649.64254926     A.U. after   14 cycles
 SCF Done:  E(RHF) =  -1649.64257328     A.U. after   13 cycles
 SCF Done:  E(RHF) =  -1649.64261294     A.U. after   12 cycles
 SCF Done:  E(RHF) =  -1649.64261379     A.U. after   11 cycles
 SCF Done:  E(RHF) =  -1649.64261657     A.U. after   11 cycles
 SCF Done:  E(RHF) =  -1649.64261625     A.U. after   10 cycles
 SCF Done:  E(RHF) =  -1649.64261674     A.U. after    9 cycles
 SCF Done:  E(RHF) =  -1649.64261679     A.U. after    8 cycles
 Optimization completed.
    -- Stationary point found.

                         Standard orientation:
 ---------------------------------------------------------------------
 Center     Atomic      Atomic             Coordinates (Angstroms)
 Number     Number       Type             X           Y           Z
 ---------------------------------------------------------------------
      1          6           0       -4.027779    0.363906    0.060600
      2          6           0       -2.676473    0.851869    0.086164
      3          6           0       -1.735373   -0.121187    0.003969
      4          6           0       -4.082997   -0.977720   -0.042381
      5          1           0       -4.895419    1.004100    0.118883
      6         16           0       -2.513386   -1.686259   -0.116771
      7          1           0       -4.962587   -1.596982   -0.082132
      8          6           0       -0.276101   -0.011441    0.011769
      9         16           0        0.537436    1.546854   -0.120478
     10          6           0        2.089442    0.770588   -0.068506
     11          6           0        1.963003   -0.581786    0.044857
     12          6           0        0.608918   -1.037705    0.092161
     13          1           0        0.319017   -2.071591    0.183765
     14         16           0        3.518267   -1.354336    0.108164
     15          6           0        4.311983    0.194962   -0.021236
     16          6           0        3.448712    1.228733   -0.105562
     17          1           0        5.387664    0.242417   -0.027635
     18          1           0        3.752955    2.259281   -0.191204
     19          8           0       -2.360442    2.160741    0.183707
     20          1           0       -3.135186    2.695387    0.222983
 ---------------------------------------------------------------------

 The electronic state is 1-A.
 Alpha  occ. eigenvalues --  -91.99173 -91.98448 -91.98339 -20.61451 -11.32015
 Alpha  occ. eigenvalues --  -11.28914 -11.28647 -11.27538 -11.27150 -11.26641
 Alpha  occ. eigenvalues --  -11.26336 -11.25804 -11.25261 -11.24925  -8.99399
 Alpha  occ. eigenvalues --   -8.98630  -8.98483  -6.67573  -6.67480  -6.67276
 Alpha  occ. eigenvalues --   -6.66798  -6.66721  -6.66642  -6.66560  -6.66514
 Alpha  occ. eigenvalues --   -6.66348  -1.43524  -1.21187  -1.18678  -1.12523
 Alpha  occ. eigenvalues --   -1.03167  -1.01931  -0.98963  -0.95626  -0.94050
 Alpha  occ. eigenvalues --   -0.82869  -0.81693  -0.77105  -0.75385  -0.71187
 Alpha  occ. eigenvalues --   -0.70225  -0.67326  -0.66291  -0.62090  -0.61635
 Alpha  occ. eigenvalues --   -0.58805  -0.56347  -0.56143  -0.53990  -0.52724
 Alpha  occ. eigenvalues --   -0.52343  -0.51596  -0.49626  -0.47822  -0.46795
 Alpha  occ. eigenvalues --   -0.45330  -0.38931  -0.35968  -0.34207  -0.31650
 Alpha  occ. eigenvalues --   -0.27190
 Alpha virt. eigenvalues --    0.02696   0.03699   0.03901   0.05010   0.05143
 Alpha virt. eigenvalues --    0.06283   0.06737   0.08558   0.09431   0.09669
 Alpha virt. eigenvalues --    0.10389   0.10705   0.10791   0.11066   0.11653

 Mulliken charges:
               1
     1  C    0.707270
     2  C    0.025600
     3  C    1.073855
     4  C   -0.326112
     5  H   -0.466378
     6  S    0.532736
     7  H   -0.384141
     8  C    0.033840
     9  S    0.467410
    10  C   -0.579635
    11  C   -0.069377
    12  C    0.335650
    13  H   -0.519660
    14  S    0.497800
    15  C   -0.178175
    16  C    0.312652
    17  H   -0.385652
    18  H   -0.331345
    19  O   -0.935418
    20  H    0.189082
 Sum of Mulliken charges =  -0.00000

 Dipole moment (field-independent basis, Debye):
    X=             -2.7172    Y=              1.1893    Z=              0.0893  Tot=              2.9675
 Quadrupole moment (field-independent basis, Debye-Ang):
   XX=            -75.6669   YY=            -96.0319   ZZ=           -110.6626
   XY=             -1.0370   XZ=             -0.9493   YZ=             -0.0609

 Normal termination of Gaussian 16 at Mon Oct 25 23:20:20 2021.
