 Gaussian 16, Revision C.01,
 Gaussian 16:  ES64L-G16RevC.01  3-Jul-2019

 ---------------------------------
 # opt=modredundant hf/aug-cc-pvdz
 ---------------------------------

 -------------
 pBTTT_130.pdb
 -------------
 Symbolic Z-matrix:
 Charge =  0 Multiplicity = 1

 SCF Done:  E(RHF) =  -1649.50624502     A.U. after   18 cycles
 SCF Done:  E(RHF) =  -1649.57544762     A.U. after   15 cycles
 SCF Done:  E(RHF) =  -1649.62572451     A.U. after   16 cycles
 SCF Done:  E(RHF) =  -1649.63732422     A.U. after   15 cycles
 SCF Done:  E(RHF) =  -1649.64073726     A.U. after   15 cycles
 SCF Done:  E(RHF) =  -1649.64175519     A.U. after   15 cycles
 SCF Done:  E(RHF) =  -1649.64193297     A.U. after   15 cycles
 SCF Done:  E(RHF) =  -1649.64227782     A.U. after   14 cycles
 SCF Done:  E(RHF) =  -1649.64224276     A.U. after   13 cycles
 SCF Done:  E(RHF) =  -1649.64232449     A.U. after   13 cycles
 SCF Done:  E(RHF) =  -1649.64232994     A.U. after   11 cycles
 SCF Done:  E(RHF) =  -1649.64233098     A.U. after   10 cycles
 SCF Done:  E(RHF) =  -1649.64233105     A.U. after    9 cycles
 Optimization completed.
    -- Stationary point found.

                         Standard orientation:
 ---------------------------------------------------------------------
 Center     Atomic      Atomic             Coordinates (Angstroms)
 Number     Number       Type             X           Y           Z
 ---------------------------------------------------------------------
      1          6           0       -3.934138    0.804937    0.204396
      2          6           0       -2.527125    1.059508    0.349519
      3          6           0       -1.742059    0.040132   -0.074648
      4          6           0       -4.180423   -0.412004   -0.321454
      5          1           0       -4.702668    1.508586    0.488265
      6         16           0       -2.731044   -1.273577   -0.672339
      7          1           0       -5.140877   -0.850600   -0.531903
      8          6           0       -0.278010   -0.040213   -0.047921
      9         16           0        0.526964   -1.453800    0.627576
     10          6           0        2.082977   -0.751627    0.309856
     11          6           0        1.957299    0.484327   -0.253329
     12          6           0        0.602151    0.897450   -0.465793
     13          1           0        0.301856    1.834045   -0.904218
     14         16           0        3.513711    1.188599   -0.569652
     15          6           0        4.305145   -0.225645    0.076119
     16          6           0        3.441652   -1.170824    0.502517
     17          1           0        5.380797   -0.268594    0.100544
     18          1           0        3.744601   -2.112053    0.931445
     19          8           0       -2.024820    2.208885    0.851823
     20          1           0       -2.704059    2.721752    1.256366
 ---------------------------------------------------------------------

 The electronic state is 1-A.
 Alpha  occ. eigenvalues --  -91.99050 -91.98621 -91.98519 -20.61086 -11.31794
 Alpha  occ. eigenvalues --  -11.28488 -11.28404 -11.27359 -11.27159 -11.26840
 Alpha  occ. eigenvalues --  -11.26695 -11.25568 -11.25427 -11.25099  -8.99253
 Alpha  occ. eigenvalues --   -8.98804  -8.98691  -6.67421  -6.67328  -6.67129
 Alpha  occ. eigenvalues --   -6.66971  -6.66893  -6.66857  -6.66776  -6.66687
 Alpha  occ. eigenvalues --   -6.66566  -1.43048  -1.21286  -1.18501  -1.12593
 Alpha  occ. eigenvalues --   -1.02978  -1.02008  -0.98741  -0.95562  -0.94256
 Alpha  occ. eigenvalues --   -0.82689  -0.81207  -0.76998  -0.75042  -0.72306
 Alpha  occ. eigenvalues --   -0.69717  -0.66808  -0.66467  -0.62205  -0.61194
 Alpha  occ. eigenvalues --   -0.58321  -0.56329  -0.55992  -0.54025  -0.53011
 Alpha  occ. eigenvalues --   -0.52518  -0.50840  -0.49400  -0.48537  -0.46307
 Alpha  occ. eigenvalues --   -0.45779  -0.38572  -0.35374  -0.33681  -0.31803
 Alpha  occ. eigenvalues --   -0.28446
 Alpha virt. eigenvalues --    0.02741   0.03732   0.03919   0.05075   0.05099
 Alpha virt. eigenvalues --    0.06270   0.07812   0.08204   0.08589   0.09276
 Alpha virt. eigenvalues --    0.10114   0.10472   0.10568   0.10970   0.11345

 Mulliken charges:
               1
     1  C    0.597481
     2  C    0.258767
     3  C    0.779922
     4  C   -0.312191
     5  H   -0.453995
     6  S    0.443365
     7  H   -0.340998
     8  C    0.198555
     9  S    0.421717
    10  C   -0.784076
    11  C   -0.035175
    12  C    0.103915
    13  H   -0.442862
    14  S    0.608571
    15  C   -0.094209
    16  C    0.499478
    17  H   -0.377678
    18  H   -0.320723
    19  O   -0.917600
    20  H    0.167735
 Sum of Mulliken charges =  -0.00000

 Dipole moment (field-independent basis, Debye):
    X=             -2.1729    Y=              1.0985    Z=              0.7229  Tot=              2.5398
 Quadrupole moment (field-independent basis, Debye-Ang):
   XX=            -77.6648   YY=            -98.0462   ZZ=           -107.2888
   XY=            -10.0481   XZ=             -1.0381   YZ=              0.7072

 Normal termination of Gaussian 16 at Mon Oct 25 23:47:12 2021.
