 Gaussian 16, Revision C.01,
 Gaussian 16:  ES64L-G16RevC.01  3-Jul-2019

 ---------------------------------
 # opt=modredundant hf/aug-cc-pvdz
 ---------------------------------

 --------------
 pBTTT_-175.pdb
 --------------
 Symbolic Z-matrix:
 Charge =  0 Multiplicity = 1

 SCF Done:  E(RHF) =  -1649.50806016     A.U. after   18 cycles
 SCF Done:  E(RHF) =  -1649.57645679     A.U. after   16 cycles
 SCF Done:  E(RHF) =  -1649.62560492     A.U. after   17 cycles
 SCF Done:  E(RHF) =  -1649.63736464     A.U. after   16 cycles
 SCF Done:  E(RHF) =  -1649.64074083     A.U. after   16 cycles
 SCF Done:  E(RHF) =  -1649.64167910     A.U. after   15 cycles
 SCF Done:  E(RHF) =  -1649.64195722     A.U. after   15 cycles
 SCF Done:  E(RHF) =  -1649.64225701     A.U. after   14 cycles
 SCF Done:  E(RHF) =  -1649.64225007     A.U. after   14 cycles
 SCF Done:  E(RHF) =  -1649.64230574     A.U. after   13 cycles
 SCF Done:  E(RHF) =  -1649.64230779     A.U. after   11 cycles
 SCF Done:  E(RHF) =  -1649.64230928     A.U. after   10 cycles
 Optimization completed.
    -- Stationary point found.

                         Standard orientation:
 ---------------------------------------------------------------------
 Center     Atomic      Atomic             Coordinates (Angstroms)
 Number     Number       Type             X           Y           Z
 ---------------------------------------------------------------------
      1          6           0        3.934835    0.869661    0.017878
      2          6           0        2.528513    1.152197    0.039209
      3          6           0        1.741303    0.046014   -0.002197
      4          6           0        4.189463   -0.452713   -0.041255
      5          1           0        4.698332    1.632824    0.046171
      6         16           0        2.744196   -1.386872   -0.077263
      7          1           0        5.150872   -0.935812   -0.068321
      8          6           0        0.279010   -0.027747    0.002307
      9         16           0       -0.531216   -1.592588    0.075163
     10          6           0       -2.088104   -0.825762    0.033889
     11          6           0       -1.960977    0.529786   -0.026472
     12          6           0       -0.608518    0.998632   -0.045778
     13          1           0       -0.318666    2.031934   -0.094145
     14         16           0       -3.518138    1.299853   -0.065080
     15          6           0       -4.309745   -0.253813    0.002316
     16          6           0       -3.445063   -1.288997    0.051083
     17          1           0       -5.385318   -0.303652    0.001594
     18          1           0       -3.746900   -2.322679    0.096531
     19          8           0        2.025225    2.405766    0.094110
     20          1           0        2.718102    3.041427    0.154279
 ---------------------------------------------------------------------

 The electronic state is 1-A.
 Alpha  occ. eigenvalues --  -91.99186 -91.98536 -91.98503 -20.61631 -11.31928
 Alpha  occ. eigenvalues --  -11.28849 -11.28515 -11.27587 -11.27247 -11.26764
 Alpha  occ. eigenvalues --  -11.26609 -11.25748 -11.25392 -11.24675  -8.99415
 Alpha  occ. eigenvalues --   -8.98718  -8.98708  -6.67586  -6.67494  -6.67291
 Alpha  occ. eigenvalues --   -6.66885  -6.66879  -6.66808  -6.66799  -6.66602
 Alpha  occ. eigenvalues --   -6.66585  -1.43572  -1.21265  -1.18692  -1.12562
 Alpha  occ. eigenvalues --   -1.03149  -1.02004  -0.98990  -0.95510  -0.94220
 Alpha  occ. eigenvalues --   -0.82867  -0.81651  -0.76943  -0.75290  -0.72276
 Alpha  occ. eigenvalues --   -0.70006  -0.67141  -0.66105  -0.62252  -0.61653
 Alpha  occ. eigenvalues --   -0.58489  -0.56265  -0.56104  -0.54259  -0.53212
 Alpha  occ. eigenvalues --   -0.51792  -0.51624  -0.49635  -0.48180  -0.46851
 Alpha  occ. eigenvalues --   -0.45504  -0.38977  -0.36066  -0.34180  -0.31782
 Alpha  occ. eigenvalues --   -0.27164
 Alpha virt. eigenvalues --    0.02623   0.03719   0.03836   0.05082   0.05125
 Alpha virt. eigenvalues --    0.06714   0.06938   0.08325   0.08893   0.09778
 Alpha virt. eigenvalues --    0.10415   0.10522   0.10988   0.11019   0.11974

 Mulliken charges:
               1
     1  C    0.677013
     2  C    0.168384
     3  C    0.779279
     4  C   -0.291169
     5  H   -0.494601
     6  S    0.503790
     7  H   -0.379061
     8  C   -0.188745
     9  S    0.532111
    10  C   -0.633156
    11  C    0.080002
    12  C    0.574112
    13  H   -0.496209
    14  S    0.473045
    15  C   -0.199325
    16  C    0.376598
    17  H   -0.381997
    18  H   -0.326099
    19  O   -0.982953
    20  H    0.208982
 Sum of Mulliken charges =  -0.00000

 Dipole moment (field-independent basis, Debye):
    X=              2.3714    Y=              1.3212    Z=              0.0909  Tot=              2.7161
 Quadrupole moment (field-independent basis, Debye-Ang):
   XX=            -77.3563   YY=            -94.4953   ZZ=           -110.7018
   XY=             11.4880   XZ=              0.1758   YZ=              0.2247

 1\1\GINC-CX3-2-7\FOpt\RHF\Aug-CC-pVDZ\C10H6O1S3\NS5018\25-Oct-2021\0\\
 # opt=modredundant hf/aug-cc-pvdz\\pBTTT_-175.pdb\\0,1\C,-4.1143367414
 ,-1.2387433077,-0.0292149274\C,-2.8136726475,-0.9705131876,-0.57175493
 4\C,-2.0249967584,-2.0703416108,-0.6876094548\C,-4.2883262672,-2.54390
 0256,0.2593986887\H,-4.8648274039,-0.478362864,0.1280436528\S,-2.89076
 10116,-3.4781372022,-0.1104130312\H,-5.1635168802,-3.0138981638,0.6736
 066353\C,-0.6541929382,-2.1545552364,-1.1951193662\S,0.1315078741,-3.7
 232310779,-1.3752051164\C,1.578924911,-2.9678159339,-1.9650851465\C,1.

 Normal termination of Gaussian 16 at Mon Oct 25 21:38:38 2021.
