 Gaussian 16, Revision C.01,
 Gaussian 16:  ES64L-G16RevC.01  3-Jul-2019

 ---------------------------------
 # opt=modredundant hf/aug-cc-pvdz
 ---------------------------------

 -------------
 pBTTT_-95.pdb
 -------------
 Symbolic Z-matrix:
 Charge =  0 Multiplicity = 1

 SCF Done:  E(RHF) =  -1649.50387015     A.U. after   18 cycles
 SCF Done:  E(RHF) =  -1649.57349514     A.U. after   15 cycles
 SCF Done:  E(RHF) =  -1649.62488524     A.U. after   16 cycles
 SCF Done:  E(RHF) =  -1649.63649167     A.U. after   15 cycles
 SCF Done:  E(RHF) =  -1649.63985460     A.U. after   15 cycles
 SCF Done:  E(RHF) =  -1649.64066563     A.U. after   14 cycles
 SCF Done:  E(RHF) =  -1649.64109672     A.U. after   15 cycles
 SCF Done:  E(RHF) =  -1649.64136479     A.U. after   13 cycles
 SCF Done:  E(RHF) =  -1649.64138142     A.U. after   13 cycles
 SCF Done:  E(RHF) =  -1649.64144248     A.U. after   12 cycles
 SCF Done:  E(RHF) =  -1649.64144571     A.U. after   11 cycles
 SCF Done:  E(RHF) =  -1649.64144797     A.U. after   10 cycles
 SCF Done:  E(RHF) =  -1649.64144809     A.U. after    9 cycles
 Optimization completed.
    -- Stationary point found.

                         Standard orientation:
 ---------------------------------------------------------------------
 Center     Atomic      Atomic             Coordinates (Angstroms)
 Number     Number       Type             X           Y           Z
 ---------------------------------------------------------------------
      1          6           0        3.963926    0.660732    0.262606
      2          6           0        2.569477    0.891508    0.529907
      3          6           0        1.744824    0.022882   -0.099051
      4          6           0        4.156234   -0.388529   -0.562620
      5          1           0        4.761642    1.259954    0.676137
      6         16           0        2.673439   -1.120380   -1.042196
      7          1           0        5.096731   -0.771399   -0.921006
      8          6           0        0.274485   -0.031037   -0.037184
      9         16           0       -0.531805   -1.103217    1.100827
     10          6           0       -2.086286   -0.566857    0.546033
     11          6           0       -1.960083    0.368400   -0.439349
     12          6           0       -0.602852    0.677260   -0.780760
     13          1           0       -0.297875    1.386786   -1.532315
     14         16           0       -3.515600    0.907661   -0.995404
     15          6           0       -4.308034   -0.160019    0.133452
     16          6           0       -3.446510   -0.878163    0.883282
     17          1           0       -5.383786   -0.188769    0.172171
     18          1           0       -3.751088   -1.588981    1.633973
     19          8           0        2.112502    1.878926    1.327298
     20          1           0        2.826742    2.348912    1.723127
 ---------------------------------------------------------------------

 The electronic state is 1-A.
 Alpha  occ. eigenvalues --  -91.98939 -91.98660 -91.98412 -20.60922 -11.31777
 Alpha  occ. eigenvalues --  -11.28370 -11.28347 -11.27444 -11.26869 -11.26824
 Alpha  occ. eigenvalues --  -11.26699 -11.25450 -11.25434 -11.25356  -8.99125
 Alpha  occ. eigenvalues --   -8.98844  -8.98575  -6.67292  -6.67199  -6.67011
 Alpha  occ. eigenvalues --   -6.67001  -6.66933  -6.66739  -6.66726  -6.66657
 Alpha  occ. eigenvalues --   -6.66450  -1.42959  -1.21270  -1.18372  -1.12579
 Alpha  occ. eigenvalues --   -1.02817  -1.01992  -0.98577  -0.95658  -0.94226
 Alpha  occ. eigenvalues --   -0.82522  -0.81104  -0.77034  -0.74975  -0.72157
 Alpha  occ. eigenvalues --   -0.69700  -0.66808  -0.66457  -0.62067  -0.60987
 Alpha  occ. eigenvalues --   -0.58361  -0.56362  -0.56039  -0.53691  -0.53317
 Alpha  occ. eigenvalues --   -0.52671  -0.50623  -0.49268  -0.48622  -0.45889
 Alpha  occ. eigenvalues --   -0.45819  -0.38349  -0.34878  -0.32388  -0.31681
 Alpha  occ. eigenvalues --   -0.30206
 Alpha virt. eigenvalues --    0.02769   0.03703   0.03984   0.04914   0.05094
 Alpha virt. eigenvalues --    0.06230   0.08000   0.08424   0.08810   0.09031
 Alpha virt. eigenvalues --    0.09671   0.10271   0.10387   0.10873   0.11482

 Mulliken charges:
               1
     1  C    0.689325
     2  C    0.359878
     3  C    0.522248
     4  C   -0.346509
     5  H   -0.451656
     6  S    0.361352
     7  H   -0.329268
     8  C    0.523421
     9  S    0.380374
    10  C   -0.808811
    11  C   -0.239162
    12  C    0.038715
    13  H   -0.428941
    14  S    0.649013
    15  C   -0.086623
    16  C    0.645507
    17  H   -0.377539
    18  H   -0.327802
    19  O   -0.932758
    20  H    0.159233
 Sum of Mulliken charges =  -0.00000

 Dipole moment (field-independent basis, Debye):
    X=              2.1471    Y=              0.9898    Z=              0.7179  Tot=              2.4709
 Quadrupole moment (field-independent basis, Debye-Ang):
   XX=            -77.1035   YY=           -102.1190   ZZ=           -103.5452
   XY=              8.5498   XZ=              0.1208   YZ=              0.0550

 Normal termination of Gaussian 16 at Mon Oct 25 22:56:08 2021.
