 Gaussian 16, Revision C.01,
 Gaussian 16:  ES64L-G16RevC.01  3-Jul-2019

 ---------------------------------
 # opt=modredundant hf/aug-cc-pvdz
 ---------------------------------

 ------------
 pBTTT_60.pdb
 ------------
 Symbolic Z-matrix:
 Charge =  0 Multiplicity = 1

 SCF Done:  E(RHF) =  -1649.50529677     A.U. after   18 cycles
 SCF Done:  E(RHF) =  -1649.57443472     A.U. after   15 cycles
 SCF Done:  E(RHF) =  -1649.62498547     A.U. after   16 cycles
 SCF Done:  E(RHF) =  -1649.63671458     A.U. after   15 cycles
 SCF Done:  E(RHF) =  -1649.64019840     A.U. after   15 cycles
 SCF Done:  E(RHF) =  -1649.64116461     A.U. after   14 cycles
 SCF Done:  E(RHF) =  -1649.64152208     A.U. after   15 cycles
 SCF Done:  E(RHF) =  -1649.64181791     A.U. after   14 cycles
 SCF Done:  E(RHF) =  -1649.64181224     A.U. after   13 cycles
 SCF Done:  E(RHF) =  -1649.64187449     A.U. after   13 cycles
 SCF Done:  E(RHF) =  -1649.64187853     A.U. after   12 cycles
 SCF Done:  E(RHF) =  -1649.64188045     A.U. after   10 cycles
 SCF Done:  E(RHF) =  -1649.64188043     A.U. after    9 cycles
 Optimization completed.
    -- Stationary point found.

                         Standard orientation:
 ---------------------------------------------------------------------
 Center     Atomic      Atomic             Coordinates (Angstroms)
 Number     Number       Type             X           Y           Z
 ---------------------------------------------------------------------
      1          6           0        4.007780    0.340450    0.380911
      2          6           0        2.644184    0.769320    0.531599
      3          6           0        1.740818   -0.099463    0.019047
      4          6           0        4.101743   -0.851125   -0.244198
      5          1           0        4.856445    0.906379    0.735812
      6         16           0        2.558062   -1.480223   -0.675055
      7          1           0        5.000541   -1.396244   -0.477344
      8          6           0        0.274059   -0.007019    0.009399
      9         16           0       -0.535895    1.338355   -0.780831
     10          6           0       -2.088799    0.662679   -0.400241
     11          6           0       -1.959873   -0.517175    0.272338
     12          6           0       -0.602539   -0.908183    0.510140
     13          1           0       -0.297981   -1.801653    1.030192
     14         16           0       -3.513963   -1.190187    0.661742
     15          6           0       -4.309607    0.160954   -0.102901
     16          6           0       -3.449602    1.063366   -0.619055
     17          1           0       -5.385447    0.201516   -0.124365
     18          1           0       -3.756070    1.962184   -1.128829
     19          8           0        2.282800    1.919159    1.138651
     20          1           0        3.039869    2.404606    1.419391
 ---------------------------------------------------------------------

 The electronic state is 1-A.
 Alpha  occ. eigenvalues --  -91.99071 -91.98612 -91.98365 -20.60979 -11.31788
 Alpha  occ. eigenvalues --  -11.28545 -11.28391 -11.27375 -11.27018 -11.26799
 Alpha  occ. eigenvalues --  -11.26655 -11.25551 -11.25396 -11.25269  -8.99262
 Alpha  occ. eigenvalues --   -8.98795  -8.98532  -6.67429  -6.67336  -6.67137
 Alpha  occ. eigenvalues --   -6.66962  -6.66885  -6.66695  -6.66678  -6.66614
 Alpha  occ. eigenvalues --   -6.66405  -1.43017  -1.21270  -1.18475  -1.12589
 Alpha  occ. eigenvalues --   -1.02899  -1.01991  -0.98700  -0.95683  -0.94173
 Alpha  occ. eigenvalues --   -0.82617  -0.81244  -0.77055  -0.75124  -0.71761
 Alpha  occ. eigenvalues --   -0.69880  -0.66824  -0.66497  -0.62014  -0.61067
 Alpha  occ. eigenvalues --   -0.58609  -0.56379  -0.56065  -0.53787  -0.53064
 Alpha  occ. eigenvalues --   -0.52670  -0.50864  -0.49408  -0.48448  -0.46100
 Alpha  occ. eigenvalues --   -0.45717  -0.38440  -0.35222  -0.33318  -0.31711
 Alpha  occ. eigenvalues --   -0.28921
 Alpha virt. eigenvalues --    0.02783   0.03717   0.03983   0.04971   0.05103
 Alpha virt. eigenvalues --    0.06254   0.07799   0.08478   0.08642   0.09012
 Alpha virt. eigenvalues --    0.10240   0.10361   0.10484   0.10873   0.11280

 Mulliken charges:
               1
     1  C    0.509420
     2  C    0.525929
     3  C    0.585440
     4  C   -0.232818
     5  H   -0.456893
     6  S    0.390974
     7  H   -0.338363
     8  C    0.244465
     9  S    0.413572
    10  C   -0.701344
    11  C   -0.190141
    12  C    0.198405
    13  H   -0.476390
    14  S    0.612804
    15  C   -0.095217
    16  C    0.489533
    17  H   -0.377007
    18  H   -0.319746
    19  O   -0.949997
    20  H    0.167375
 Sum of Mulliken charges =  -0.00000

 Dipole moment (field-independent basis, Debye):
    X=              2.3308    Y=              0.9256    Z=              0.5764  Tot=              2.5732
 Quadrupole moment (field-independent basis, Debye-Ang):
   XX=            -76.2352   YY=            -99.3347   ZZ=           -106.9905
   XY=              0.7111   XZ=              5.7205   YZ=             -0.1418

 Normal termination of Gaussian 16 at Mon Oct 25 23:19:15 2021.
