 Gaussian 16, Revision C.01,
 Gaussian 16:  ES64L-G16RevC.01  3-Jul-2019

 ---------------------------------
 # opt=modredundant hf/aug-cc-pvdz
 ---------------------------------

 ------------
 pBTTT_55.pdb
 ------------
 Symbolic Z-matrix:
 Charge =  0 Multiplicity = 1

 SCF Done:  E(RHF) =  -1649.50574585     A.U. after   18 cycles
 SCF Done:  E(RHF) =  -1649.57475940     A.U. after   15 cycles
 SCF Done:  E(RHF) =  -1649.62507231     A.U. after   16 cycles
 SCF Done:  E(RHF) =  -1649.63681010     A.U. after   15 cycles
 SCF Done:  E(RHF) =  -1649.64029041     A.U. after   15 cycles
 SCF Done:  E(RHF) =  -1649.64126025     A.U. after   14 cycles
 SCF Done:  E(RHF) =  -1649.64162482     A.U. after   15 cycles
 SCF Done:  E(RHF) =  -1649.64191793     A.U. after   14 cycles
 SCF Done:  E(RHF) =  -1649.64191163     A.U. after   13 cycles
 SCF Done:  E(RHF) =  -1649.64197189     A.U. after   13 cycles
 SCF Done:  E(RHF) =  -1649.64197586     A.U. after   12 cycles
 SCF Done:  E(RHF) =  -1649.64197773     A.U. after   10 cycles
 SCF Done:  E(RHF) =  -1649.64197768     A.U. after    9 cycles
 Optimization completed.
    -- Stationary point found.

                         Standard orientation:
 ---------------------------------------------------------------------
 Center     Atomic      Atomic             Coordinates (Angstroms)
 Number     Number       Type             X           Y           Z
 ---------------------------------------------------------------------
      1          6           0        4.012338    0.338868    0.346475
      2          6           0        2.652824    0.783537    0.485852
      3          6           0        1.739946   -0.100291    0.016843
      4          6           0        4.094892   -0.879253   -0.226726
      5          1           0        4.866715    0.913919    0.671756
      6         16           0        2.544415   -1.514694   -0.622770
      7          1           0        4.988457   -1.440294   -0.441323
      8          6           0        0.274354   -0.003934    0.012947
      9         16           0       -0.536665    1.376999   -0.712530
     10          6           0       -2.089149    0.681710   -0.366658
     11          6           0       -1.959643   -0.528372    0.249489
     12          6           0       -0.602403   -0.928685    0.470163
     13          1           0       -0.298328   -1.845232    0.948664
     14         16           0       -3.513430   -1.219801    0.606419
     15          6           0       -4.309758    0.165660   -0.093575
     16          6           0       -3.449996    1.091881   -0.566205
     17          1           0       -5.385608    0.206498   -0.113601
     18          1           0       -3.756804    2.013665   -1.032979
     19          8           0        2.303755    1.961726    1.044266
     20          1           0        3.065984    2.450857    1.303826
 ---------------------------------------------------------------------

 The electronic state is 1-A.
 Alpha  occ. eigenvalues --  -91.99093 -91.98598 -91.98361 -20.61010 -11.31801
 Alpha  occ. eigenvalues --  -11.28592 -11.28407 -11.27354 -11.27078 -11.26782
 Alpha  occ. eigenvalues --  -11.26638 -11.25578 -11.25385 -11.25233  -8.99287
 Alpha  occ. eigenvalues --   -8.98781  -8.98529  -6.67455  -6.67362  -6.67163
 Alpha  occ. eigenvalues --   -6.66948  -6.66871  -6.66692  -6.66664  -6.66610
 Alpha  occ. eigenvalues --   -6.66401  -1.43047  -1.21267  -1.18501  -1.12588
 Alpha  occ. eigenvalues --   -1.02930  -1.01988  -0.98732  -0.95678  -0.94163
 Alpha  occ. eigenvalues --   -0.82647  -0.81284  -0.77060  -0.75152  -0.71691
 Alpha  occ. eigenvalues --   -0.69915  -0.66847  -0.66497  -0.62018  -0.61107
 Alpha  occ. eigenvalues --   -0.58644  -0.56377  -0.56070  -0.53814  -0.52995
 Alpha  occ. eigenvalues --   -0.52674  -0.50930  -0.49442  -0.48394  -0.46171
 Alpha  occ. eigenvalues --   -0.45694  -0.38480  -0.35327  -0.33493  -0.31702
 Alpha  occ. eigenvalues --   -0.28650
 Alpha virt. eigenvalues --    0.02780   0.03720   0.03976   0.04988   0.05106
 Alpha virt. eigenvalues --    0.06260   0.07671   0.08495   0.08652   0.09072
 Alpha virt. eigenvalues --    0.10295   0.10413   0.10502   0.10895   0.11294

 Mulliken charges:
               1
     1  C    0.498784
     2  C    0.501957
     3  C    0.647441
     4  C   -0.232494
     5  H   -0.458376
     6  S    0.404196
     7  H   -0.339593
     8  C    0.198499
     9  S    0.423716
    10  C   -0.670596
    11  C   -0.192854
    12  C    0.214469
    13  H   -0.482741
    14  S    0.603044
    15  C   -0.100143
    16  C    0.457952
    17  H   -0.377238
    18  H   -0.319355
    19  O   -0.943974
    20  H    0.167306
 Sum of Mulliken charges =  -0.00000

 Dipole moment (field-independent basis, Debye):
    X=              2.3698    Y=              0.9460    Z=              0.5324  Tot=              2.6065
 Quadrupole moment (field-independent basis, Debye-Ang):
   XX=            -76.1270   YY=            -98.8470   ZZ=           -107.5652
   XY=              0.6919   XZ=              5.2799   YZ=             -0.1363

 Normal termination of Gaussian 16 at Mon Oct 25 23:35:55 2021.
