 Gaussian 16, Revision C.01,
 Gaussian 16:  ES64L-G16RevC.01  3-Jul-2019

 ---------------------------------
 # opt=modredundant hf/aug-cc-pvdz
 ---------------------------------

 --------------
 pBTTT_-165.pdb
 --------------
 Symbolic Z-matrix:
 Charge =  0 Multiplicity = 1

 SCF Done:  E(RHF) =  -1649.50804111     A.U. after   18 cycles
 SCF Done:  E(RHF) =  -1649.57647238     A.U. after   16 cycles
 SCF Done:  E(RHF) =  -1649.62579593     A.U. after   16 cycles
 SCF Done:  E(RHF) =  -1649.63749777     A.U. after   15 cycles
 SCF Done:  E(RHF) =  -1649.64086387     A.U. after   16 cycles
 SCF Done:  E(RHF) =  -1649.64177691     A.U. after   15 cycles
 SCF Done:  E(RHF) =  -1649.64209551     A.U. after   15 cycles
 SCF Done:  E(RHF) =  -1649.64239070     A.U. after   14 cycles
 SCF Done:  E(RHF) =  -1649.64239347     A.U. after   14 cycles
 SCF Done:  E(RHF) =  -1649.64244972     A.U. after   13 cycles
 SCF Done:  E(RHF) =  -1649.64245222     A.U. after   11 cycles
 SCF Done:  E(RHF) =  -1649.64245364     A.U. after   10 cycles
 Optimization completed.
    -- Stationary point found.

                         Standard orientation:
 ---------------------------------------------------------------------
 Center     Atomic      Atomic             Coordinates (Angstroms)
 Number     Number       Type             X           Y           Z
 ---------------------------------------------------------------------
      1          6           0        3.934635    0.863114    0.055983
      2          6           0        2.528587    1.143368    0.114429
      3          6           0        1.741184    0.044366   -0.011039
      4          6           0        4.187052   -0.449783   -0.116849
      5          1           0        4.699428    1.620766    0.141278
      6         16           0        2.740369   -1.376666   -0.225307
      7          1           0        5.147865   -0.928888   -0.193217
      8          6           0        0.279121   -0.028753    0.001624
      9         16           0       -0.531205   -1.579816    0.217025
     10          6           0       -2.087359   -0.819038    0.099904
     11          6           0       -1.959416    0.526248   -0.078436
     12          6           0       -0.606254    0.989897   -0.138322
     13          1           0       -0.313892    2.014256   -0.280947
     14         16           0       -3.515844    1.290576   -0.189511
     15          6           0       -4.308630   -0.250956    0.010699
     16          6           0       -3.444878   -1.278228    0.152792
     17          1           0       -5.384237   -0.300242    0.010581
     18          1           0       -3.747695   -2.303837    0.287379
     19          8           0        2.025806    2.388124    0.275271
     20          1           0        2.714710    3.006044    0.452732
 ---------------------------------------------------------------------

 The electronic state is 1-A.
 Alpha  occ. eigenvalues --  -91.99174 -91.98549 -91.98514 -20.61542 -11.31888
 Alpha  occ. eigenvalues --  -11.28794 -11.28487 -11.27534 -11.27261 -11.26781
 Alpha  occ. eigenvalues --  -11.26623 -11.25725 -11.25399 -11.24738  -8.99398
 Alpha  occ. eigenvalues --   -8.98732  -8.98715  -6.67569  -6.67477  -6.67275
 Alpha  occ. eigenvalues --   -6.66899  -6.66884  -6.66822  -6.66804  -6.66616
 Alpha  occ. eigenvalues --   -6.66591  -1.43476  -1.21273  -1.18666  -1.12571
 Alpha  occ. eigenvalues --   -1.03129  -1.02010  -0.98956  -0.95510  -0.94231
 Alpha  occ. eigenvalues --   -0.82848  -0.81573  -0.76951  -0.75249  -0.72284
 Alpha  occ. eigenvalues --   -0.69957  -0.67093  -0.66156  -0.62261  -0.61572
 Alpha  occ. eigenvalues --   -0.58457  -0.56290  -0.56057  -0.54245  -0.53183
 Alpha  occ. eigenvalues --   -0.51936  -0.51452  -0.49606  -0.48239  -0.46784
 Alpha  occ. eigenvalues --   -0.45557  -0.38927  -0.35993  -0.34138  -0.31805
 Alpha  occ. eigenvalues --   -0.27286
 Alpha virt. eigenvalues --    0.02646   0.03733   0.03843   0.05104   0.05130
 Alpha virt. eigenvalues --    0.06652   0.06987   0.08313   0.08831   0.09618
 Alpha virt. eigenvalues --    0.10424   0.10523   0.10860   0.11042   0.11774

 Mulliken charges:
               1
     1  C    0.641616
     2  C    0.216400
     3  C    0.756261
     4  C   -0.328219
     5  H   -0.480534
     6  S    0.503839
     7  H   -0.367639
     8  C   -0.011468
     9  S    0.490888
    10  C   -0.657448
    11  C    0.052394
    12  C    0.424482
    13  H   -0.486891
    14  S    0.505703
    15  C   -0.172241
    16  C    0.373582
    17  H   -0.379971
    18  H   -0.323134
    19  O   -0.954867
    20  H    0.197248
 Sum of Mulliken charges =  -0.00000

 Dipole moment (field-independent basis, Debye):
    X=              2.3361    Y=              1.2865    Z=              0.2774  Tot=              2.6813
 Quadrupole moment (field-independent basis, Debye-Ang):
   XX=            -77.4319   YY=            -94.9309   ZZ=           -110.2935
   XY=             11.3066   XZ=              0.5324   YZ=              0.6296

 Normal termination of Gaussian 16 at Mon Oct 25 21:42:04 2021.
