 Gaussian 16, Revision C.01,
 Gaussian 16:  ES64L-G16RevC.01  3-Jul-2019

 ---------------------------------
 # opt=modredundant hf/aug-cc-pvdz
 ---------------------------------

 -------------
 pBTTT_150.pdb
 -------------
 Symbolic Z-matrix:
 Charge =  0 Multiplicity = 1

 SCF Done:  E(RHF) =  -1649.50739259     A.U. after   18 cycles
 SCF Done:  E(RHF) =  -1649.57622038     A.U. after   16 cycles
 SCF Done:  E(RHF) =  -1649.62590732     A.U. after   16 cycles
 SCF Done:  E(RHF) =  -1649.63756067     A.U. after   15 cycles
 SCF Done:  E(RHF) =  -1649.64101573     A.U. after   16 cycles
 SCF Done:  E(RHF) =  -1649.64206977     A.U. after   15 cycles
 SCF Done:  E(RHF) =  -1649.64224104     A.U. after   15 cycles
 SCF Done:  E(RHF) =  -1649.64258937     A.U. after   14 cycles
 SCF Done:  E(RHF) =  -1649.64255913     A.U. after   14 cycles
 SCF Done:  E(RHF) =  -1649.64263366     A.U. after   13 cycles
 SCF Done:  E(RHF) =  -1649.64263839     A.U. after   11 cycles
 SCF Done:  E(RHF) =  -1649.64263942     A.U. after   10 cycles
 SCF Done:  E(RHF) =  -1649.64263947     A.U. after    9 cycles
 Optimization completed.
    -- Stationary point found.

                         Standard orientation:
 ---------------------------------------------------------------------
 Center     Atomic      Atomic             Coordinates (Angstroms)
 Number     Number       Type             X           Y           Z
 ---------------------------------------------------------------------
      1          6           0       -3.933499    0.845379    0.120179
      2          6           0       -2.527150    1.117439    0.218354
      3          6           0       -1.741149    0.041729   -0.036682
      4          6           0       -4.183429   -0.437992   -0.208765
      5          1           0       -4.699815    1.586600    0.292267
      6         16           0       -2.735406   -1.344381   -0.426435
      7          1           0       -5.144055   -0.904205   -0.345234
      8          6           0       -0.279102   -0.033085   -0.016875
      9         16           0        0.529974   -1.541388    0.402728
     10          6           0        2.085351   -0.798580    0.192566
     11          6           0        1.957041    0.513902   -0.154188
     12          6           0        0.602621    0.961272   -0.280155
     13          1           0        0.305423    1.958179   -0.554436
     14         16           0        3.512692    1.260116   -0.358416
     15          6           0        4.306479   -0.242893    0.035681
     16          6           0        3.443774   -1.245351    0.304135
     17          1           0        5.382156   -0.290308    0.043967
     18          1           0        3.747669   -2.245418    0.567209
     19          8           0       -2.023895    2.333887    0.526945
     20          1           0       -2.701985    2.903569    0.849132
 ---------------------------------------------------------------------

 The electronic state is 1-A.
 Alpha  occ. eigenvalues --  -91.99136 -91.98582 -91.98534 -20.61328 -11.31816
 Alpha  occ. eigenvalues --  -11.28662 -11.28436 -11.27399 -11.27299 -11.26815
 Alpha  occ. eigenvalues --  -11.26658 -11.25662 -11.25414 -11.24891  -8.99351
 Alpha  occ. eigenvalues --   -8.98765  -8.98722  -6.67520  -6.67428  -6.67227
 Alpha  occ. eigenvalues --   -6.66932  -6.66890  -6.66854  -6.66810  -6.66648
 Alpha  occ. eigenvalues --   -6.66598  -1.43257  -1.21288  -1.18603  -1.12589
 Alpha  occ. eigenvalues --   -1.03077  -1.02018  -0.98872  -0.95522  -0.94252
 Alpha  occ. eigenvalues --   -0.82796  -0.81389  -0.76971  -0.75158  -0.72301
 Alpha  occ. eigenvalues --   -0.69844  -0.66968  -0.66291  -0.62256  -0.61399
 Alpha  occ. eigenvalues --   -0.58390  -0.56326  -0.55990  -0.54182  -0.53106
 Alpha  occ. eigenvalues --   -0.52153  -0.51175  -0.49527  -0.48377  -0.46608
 Alpha  occ. eigenvalues --   -0.45672  -0.38792  -0.35778  -0.34017  -0.31836
 Alpha  occ. eigenvalues --   -0.27661
 Alpha virt. eigenvalues --    0.02695   0.03744   0.03870   0.05107   0.05136
 Alpha virt. eigenvalues --    0.06444   0.07260   0.08274   0.08698   0.09476
 Alpha virt. eigenvalues --    0.10275   0.10506   0.10747   0.11041   0.11509

 Mulliken charges:
               1
     1  C    0.609756
     2  C    0.206964
     3  C    0.799034
     4  C   -0.326015
     5  H   -0.465811
     6  S    0.490938
     7  H   -0.350670
     8  C    0.089333
     9  S    0.460047
    10  C   -0.695002
    11  C    0.016215
    12  C    0.234218
    13  H   -0.467717
    14  S    0.560252
    15  C   -0.133963
    16  C    0.410723
    17  H   -0.378283
    18  H   -0.320394
    19  O   -0.917283
    20  H    0.177660
 Sum of Mulliken charges =  -0.00000

 Dipole moment (field-independent basis, Debye):
    X=             -2.2533    Y=              1.1970    Z=              0.5375  Tot=              2.6074
 Quadrupole moment (field-independent basis, Debye-Ang):
   XX=            -77.6141   YY=            -96.1329   ZZ=           -109.1463
   XY=            -10.7857   XZ=             -0.9548   YZ=              0.9480

 Normal termination of Gaussian 16 at Mon Oct 25 23:35:22 2021.
