 Gaussian 16, Revision C.01,
 Gaussian 16:  ES64L-G16RevC.01  3-Jul-2019

 ---------------------------------
 # opt=modredundant hf/aug-cc-pvdz
 ---------------------------------

 --------------
 pBTTT_-110.pdb
 --------------
 Symbolic Z-matrix:
 Charge =  0 Multiplicity = 1

 SCF Done:  E(RHF) =  -1649.50448275     A.U. after   18 cycles
 SCF Done:  E(RHF) =  -1649.57388666     A.U. after   15 cycles
 SCF Done:  E(RHF) =  -1649.62500564     A.U. after   16 cycles
 SCF Done:  E(RHF) =  -1649.63664144     A.U. after   15 cycles
 SCF Done:  E(RHF) =  -1649.64006115     A.U. after   15 cycles
 SCF Done:  E(RHF) =  -1649.64091277     A.U. after   14 cycles
 SCF Done:  E(RHF) =  -1649.64130985     A.U. after   15 cycles
 SCF Done:  E(RHF) =  -1649.64160613     A.U. after   13 cycles
 SCF Done:  E(RHF) =  -1649.64163283     A.U. after   13 cycles
 SCF Done:  E(RHF) =  -1649.64169110     A.U. after   12 cycles
 SCF Done:  E(RHF) =  -1649.64169401     A.U. after   11 cycles
 SCF Done:  E(RHF) =  -1649.64169635     A.U. after   10 cycles
 SCF Done:  E(RHF) =  -1649.64169644     A.U. after    9 cycles
 Optimization completed.
    -- Stationary point found.

                         Standard orientation:
 ---------------------------------------------------------------------
 Center     Atomic      Atomic             Coordinates (Angstroms)
 Number     Number       Type             X           Y           Z
 ---------------------------------------------------------------------
      1          6           0        3.945998    0.732111    0.264002
      2          6           0        2.542963    0.964958    0.478138
      3          6           0        1.744001    0.034523   -0.094269
      4          6           0        4.171862   -0.382419   -0.460772
      5          1           0        4.725769    1.375567    0.643940
      6         16           0        2.710255   -1.172051   -0.913595
      7          1           0        5.125354   -0.782720   -0.760854
      8          6           0        0.275979   -0.040146   -0.051936
      9         16           0       -0.528596   -1.307171    0.867766
     10          6           0       -2.084131   -0.672784    0.430603
     11          6           0       -1.959203    0.436950   -0.353067
     12          6           0       -0.602931    0.802338   -0.637175
     13          1           0       -0.299946    1.642598   -1.239620
     14         16           0       -3.515549    1.073010   -0.791558
     15          6           0       -4.306465   -0.195625    0.107076
     16          6           0       -3.443511   -1.046219    0.700552
     17          1           0       -5.382139   -0.231701    0.141206
     18          1           0       -3.746747   -1.890673    1.297670
     19          8           0        2.057098    2.010909    1.179185
     20          1           0        2.755809    2.496913    1.583443
 ---------------------------------------------------------------------

 The electronic state is 1-A.
 Alpha  occ. eigenvalues --  -91.98959 -91.98650 -91.98456 -20.60961 -11.31796
 Alpha  occ. eigenvalues --  -11.28387 -11.28371 -11.27420 -11.26920 -11.26859
 Alpha  occ. eigenvalues --  -11.26704 -11.25484 -11.25434 -11.25275  -8.99152
 Alpha  occ. eigenvalues --   -8.98834  -8.98621  -6.67319  -6.67226  -6.67028
 Alpha  occ. eigenvalues --   -6.67001  -6.66923  -6.66785  -6.66716  -6.66704
 Alpha  occ. eigenvalues --   -6.66495  -1.42975  -1.21273  -1.18406  -1.12582
 Alpha  occ. eigenvalues --   -1.02869  -1.01993  -0.98621  -0.95618  -0.94241
 Alpha  occ. eigenvalues --   -0.82572  -0.81125  -0.77020  -0.74971  -0.72254
 Alpha  occ. eigenvalues --   -0.69674  -0.66792  -0.66480  -0.62127  -0.61044
 Alpha  occ. eigenvalues --   -0.58311  -0.56329  -0.56027  -0.53830  -0.53149
 Alpha  occ. eigenvalues --   -0.52700  -0.50652  -0.49296  -0.48613  -0.46015
 Alpha  occ. eigenvalues --   -0.45819  -0.38405  -0.35001  -0.32982  -0.31711
 Alpha  occ. eigenvalues --   -0.29515
 Alpha virt. eigenvalues --    0.02760   0.03716   0.03963   0.04966   0.05093
 Alpha virt. eigenvalues --    0.06233   0.08074   0.08327   0.08637   0.09042
 Alpha virt. eigenvalues --    0.09947   0.10255   0.10444   0.10939   0.11355

 Mulliken charges:
               1
     1  C    0.653230
     2  C    0.290741
     3  C    0.671189
     4  C   -0.334427
     5  H   -0.452221
     6  S    0.398686
     7  H   -0.336094
     8  C    0.356467
     9  S    0.394696
    10  C   -0.814516
    11  C   -0.166680
    12  C    0.088695
    13  H   -0.424199
    14  S    0.635791
    15  C   -0.088176
    16  C    0.595159
    17  H   -0.376950
    18  H   -0.325129
    19  O   -0.926803
    20  H    0.160540
 Sum of Mulliken charges =  -0.00000

 Dipole moment (field-independent basis, Debye):
    X=              2.1396    Y=              1.0418    Z=              0.7431  Tot=              2.4930
 Quadrupole moment (field-independent basis, Debye-Ang):
   XX=            -77.4075   YY=           -100.1425   ZZ=           -105.3180
   XY=              9.3374   XZ=              0.7120   YZ=              0.2453

 1\1\GINC-CX3-7-8\FOpt\RHF\Aug-CC-pVDZ\C10H6O1S3\NS5018\25-Oct-2021\0\\
 # opt=modredundant hf/aug-cc-pvdz\\pBTTT_-110.pdb\\0,1\C,-4.1643129594
 ,-1.3545957545,-0.0689614812\C,-2.8560905581,-0.9611928981,-0.51881496
 9\C,-1.9824861202,-1.9903010606,-0.6160354564\C,-4.2480298762,-2.68207
 8046,0.1530087258\H,-4.9833788244,-0.664607373,0.0706027932\S,-2.75984
 9508,-3.4897436567,-0.1598146947\H,-5.1087243852,-3.2332993928,0.49182
 76922\C,-0.5819882796,-1.9429831888,-1.0619301135\S,-0.1091770314,-2.6
 548643273,-2.6008332359\C,1.5359770147,-2.1588262934,-2.3545365481\C,1

 Normal termination of Gaussian 16 at Mon Oct 25 22:50:33 2021.
