 Gaussian 16, Revision C.01,
 Gaussian 16:  ES64L-G16RevC.01  3-Jul-2019

 ---------------------------------
 # opt=modredundant hf/aug-cc-pvdz
 ---------------------------------

 -------------
 pBTTT_-60.pdb
 -------------
 Symbolic Z-matrix:
 Charge =  0 Multiplicity = 1

 SCF Done:  E(RHF) =  -1649.50608068     A.U. after   18 cycles
 SCF Done:  E(RHF) =  -1649.57533971     A.U. after   15 cycles
 SCF Done:  E(RHF) =  -1649.62566085     A.U. after   16 cycles
 SCF Done:  E(RHF) =  -1649.63716233     A.U. after   15 cycles
 SCF Done:  E(RHF) =  -1649.64040615     A.U. after   15 cycles
 SCF Done:  E(RHF) =  -1649.64119883     A.U. after   15 cycles
 SCF Done:  E(RHF) =  -1649.64157771     A.U. after   15 cycles
 SCF Done:  E(RHF) =  -1649.64183441     A.U. after   13 cycles
 SCF Done:  E(RHF) =  -1649.64181916     A.U. after   12 cycles
 SCF Done:  E(RHF) =  -1649.64187614     A.U. after   13 cycles
 SCF Done:  E(RHF) =  -1649.64188002     A.U. after   11 cycles
 SCF Done:  E(RHF) =  -1649.64188121     A.U. after   10 cycles
 SCF Done:  E(RHF) =  -1649.64188126     A.U. after    9 cycles
 Optimization completed.
    -- Stationary point found.

                         Standard orientation:
 ---------------------------------------------------------------------
 Center     Atomic      Atomic             Coordinates (Angstroms)
 Number     Number       Type             X           Y           Z
 ---------------------------------------------------------------------
      1          6           0       -4.007626    0.340958    0.381118
      2          6           0       -2.643892    0.769394    0.531738
      3          6           0       -1.740828   -0.099549    0.018915
      4          6           0       -4.101968   -0.850857   -0.243486
      5          1           0       -4.856099    0.907204    0.735972
      6         16           0       -2.558522   -1.480260   -0.674748
      7          1           0       -5.000933   -1.395758   -0.476494
      8          6           0       -0.274063   -0.007417    0.008794
      9         16           0        0.535902    1.338319   -0.780834
     10          6           0        2.088811    0.662779   -0.399996
     11          6           0        1.959871   -0.517484    0.271858
     12          6           0        0.602528   -0.909041    0.508712
     13          1           0        0.297990   -1.802709    1.028438
     14         16           0        3.513950   -1.190172    0.661858
     15          6           0        4.309612    0.160781   -0.103099
     16          6           0        3.449612    1.063824   -0.618156
     17          1           0        5.385452    0.201411   -0.124439
     18          1           0        3.756091    1.962996   -1.127298
     19          8           0       -2.282131    1.919356    1.138350
     20          1           0       -3.039065    2.405506    1.418243
 ---------------------------------------------------------------------

 The electronic state is 1-A.
 Alpha  occ. eigenvalues --  -91.99071 -91.98612 -91.98365 -20.60979 -11.31788
 Alpha  occ. eigenvalues --  -11.28546 -11.28392 -11.27374 -11.27019 -11.26799
 Alpha  occ. eigenvalues --  -11.26655 -11.25552 -11.25396 -11.25269  -8.99262
 Alpha  occ. eigenvalues --   -8.98795  -8.98532  -6.67429  -6.67336  -6.67137
 Alpha  occ. eigenvalues --   -6.66962  -6.66885  -6.66695  -6.66678  -6.66614
 Alpha  occ. eigenvalues --   -6.66405  -1.43016  -1.21270  -1.18475  -1.12589
 Alpha  occ. eigenvalues --   -1.02900  -1.01991  -0.98700  -0.95683  -0.94173
 Alpha  occ. eigenvalues --   -0.82617  -0.81244  -0.77055  -0.75124  -0.71760
 Alpha  occ. eigenvalues --   -0.69880  -0.66824  -0.66497  -0.62014  -0.61068
 Alpha  occ. eigenvalues --   -0.58609  -0.56380  -0.56065  -0.53787  -0.53065
 Alpha  occ. eigenvalues --   -0.52670  -0.50864  -0.49408  -0.48447  -0.46099
 Alpha  occ. eigenvalues --   -0.45719  -0.38440  -0.35222  -0.33319  -0.31711
 Alpha  occ. eigenvalues --   -0.28919
 Alpha virt. eigenvalues --    0.02783   0.03717   0.03983   0.04971   0.05103
 Alpha virt. eigenvalues --    0.06254   0.07797   0.08477   0.08643   0.09013
 Alpha virt. eigenvalues --    0.10242   0.10361   0.10482   0.10873   0.11280

 Mulliken charges:
               1
     1  C    0.509444
     2  C    0.525802
     3  C    0.585736
     4  C   -0.232797
     5  H   -0.456884
     6  S    0.391191
     7  H   -0.338406
     8  C    0.244117
     9  S    0.413396
    10  C   -0.701179
    11  C   -0.190098
    12  C    0.198987
    13  H   -0.476521
    14  S    0.612498
    15  C   -0.095334
    16  C    0.489313
    17  H   -0.377018
    18  H   -0.319719
    19  O   -0.949881
    20  H    0.167354
 Sum of Mulliken charges =  -0.00000

 Dipole moment (field-independent basis, Debye):
    X=             -2.3307    Y=              0.9276    Z=              0.5759  Tot=              2.5737
 Quadrupole moment (field-independent basis, Debye-Ang):
   XX=            -76.2387   YY=            -99.3245   ZZ=           -106.9993
   XY=             -0.7143   XZ=             -5.7123   YZ=             -0.1423

 1\1\GINC-CX3-7-9\FOpt\RHF\Aug-CC-pVDZ\C10H6O1S3\NS5018\25-Oct-2021\0\\
 # opt=modredundant hf/aug-cc-pvdz\\pBTTT_-60.pdb\\0,1\C,-4.2104380924,
 -1.4040897675,-0.1907480845\C,-2.8965909673,-0.9517255094,-0.558425426
 1\C,-1.9670529008,-1.9362340908,-0.5750097175\C,-4.2409201554,-2.72792
 65852,0.0661222657\H,-5.0701609948,-0.7540795323,-0.1212822129\S,-2.69
 75375752,-3.4632039101,-0.1380757481\H,-5.0927655304,-3.3149502837,0.3
 646372888\C,-0.532091089,-1.8456456629,-0.8794230338\S,0.019111992,-1.
 2653555342,-2.4446705385\C,1.6732906058,-1.5334696976,-1.9922048022\C,

 Normal termination of Gaussian 16 at Mon Oct 25 22:46:55 2021.
