 Gaussian 16, Revision C.01,
 Gaussian 16:  ES64L-G16RevC.01  3-Jul-2019

 ---------------------------------
 # opt=modredundant hf/aug-cc-pvdz
 ---------------------------------

 -------------
 pBTTT_-25.pdb
 -------------
 Symbolic Z-matrix:
 Charge =  0 Multiplicity = 1

 SCF Done:  E(RHF) =  -1649.50858319     A.U. after   18 cycles
 SCF Done:  E(RHF) =  -1649.57717564     A.U. after   16 cycles
 SCF Done:  E(RHF) =  -1649.62626201     A.U. after   16 cycles
 SCF Done:  E(RHF) =  -1649.63780539     A.U. after   16 cycles
 SCF Done:  E(RHF) =  -1649.64102999     A.U. after   15 cycles
 SCF Done:  E(RHF) =  -1649.64190718     A.U. after   15 cycles
 SCF Done:  E(RHF) =  -1649.64212704     A.U. after   15 cycles
 SCF Done:  E(RHF) =  -1649.64240641     A.U. after   14 cycles
 SCF Done:  E(RHF) =  -1649.64241581     A.U. after   12 cycles
 SCF Done:  E(RHF) =  -1649.64245915     A.U. after   12 cycles
 SCF Done:  E(RHF) =  -1649.64246122     A.U. after   12 cycles
 SCF Done:  E(RHF) =  -1649.64246318     A.U. after   11 cycles
 SCF Done:  E(RHF) =  -1649.64246302     A.U. after   10 cycles
 SCF Done:  E(RHF) =  -1649.64246336     A.U. after    9 cycles
 Optimization completed.
    -- Stationary point found.

                         Standard orientation:
 ---------------------------------------------------------------------
 Center     Atomic      Atomic             Coordinates (Angstroms)
 Number     Number       Type             X           Y           Z
 ---------------------------------------------------------------------
      1          6           0       -4.026579    0.351280    0.153001
      2          6           0       -2.676792    0.839385    0.216233
      3          6           0       -1.736004   -0.114669    0.008591
      4          6           0       -4.079686   -0.970065   -0.105289
      5          1           0       -4.895441    0.975631    0.299524
      6         16           0       -2.510086   -1.656358   -0.290356
      7          1           0       -4.958794   -1.583485   -0.204064
      8          6           0       -0.275853   -0.005455    0.022345
      9         16           0        0.537354    1.521398   -0.308094
     10          6           0        2.089302    0.755594   -0.169504
     11          6           0        1.961595   -0.572075    0.112313
     12          6           0        0.606665   -1.016068    0.224729
     13          1           0        0.312314   -2.027922    0.450410
     14         16           0        3.516273   -1.331600    0.272616
     15          6           0        4.311107    0.188658   -0.048466
     16          6           0        3.449002    1.204828   -0.260875
     17          1           0        5.386842    0.233775   -0.061937
     18          1           0        3.754167    2.216438   -0.473931
     19          8           0       -2.361831    2.128843    0.463538
     20          1           0       -3.137642    2.651315    0.576568
 ---------------------------------------------------------------------

 The electronic state is 1-A.
 Alpha  occ. eigenvalues --  -91.99165 -91.98489 -91.98340 -20.61322 -11.31944
 Alpha  occ. eigenvalues --  -11.28845 -11.28570 -11.27427 -11.27205 -11.26671
 Alpha  occ. eigenvalues --  -11.26438 -11.25746 -11.25297 -11.24999  -8.99382
 Alpha  occ. eigenvalues --   -8.98672  -8.98494  -6.67554  -6.67462  -6.67259
 Alpha  occ. eigenvalues --   -6.66840  -6.66762  -6.66654  -6.66573  -6.66555
 Alpha  occ. eigenvalues --   -6.66362  -1.43377  -1.21216  -1.18640  -1.12547
 Alpha  occ. eigenvalues --   -1.03111  -1.01950  -0.98912  -0.95637  -0.94081
 Alpha  occ. eigenvalues --   -0.82820  -0.81581  -0.77092  -0.75325  -0.71299
 Alpha  occ. eigenvalues --   -0.70144  -0.67179  -0.66360  -0.62071  -0.61478
 Alpha  occ. eigenvalues --   -0.58781  -0.56353  -0.56120  -0.53950  -0.52747
 Alpha  occ. eigenvalues --   -0.52502  -0.51398  -0.49603  -0.47980  -0.46636
 Alpha  occ. eigenvalues --   -0.45450  -0.38804  -0.35859  -0.34093  -0.31657
 Alpha  occ. eigenvalues --   -0.27457
 Alpha virt. eigenvalues --    0.02725   0.03713   0.03924   0.05019   0.05140
 Alpha virt. eigenvalues --    0.06282   0.06916   0.08564   0.09148   0.09480
 Alpha virt. eigenvalues --    0.10382   0.10584   0.10691   0.11006   0.11537

 Mulliken charges:
               1
     1  C    0.601915
     2  C    0.180295
     3  C    1.007415
     4  C   -0.310673
     5  H   -0.465087
     6  S    0.470314
     7  H   -0.364826
     8  C    0.085796
     9  S    0.489866
    10  C   -0.590518
    11  C   -0.135266
    12  C    0.291838
    13  H   -0.511584
    14  S    0.533121
    15  C   -0.154660
    16  C    0.326242
    17  H   -0.381139
    18  H   -0.325177
    19  O   -0.926825
    20  H    0.178953
 Sum of Mulliken charges =  -0.00000

 Dipole moment (field-independent basis, Debye):
    X=             -2.6258    Y=              1.1213    Z=              0.2430  Tot=              2.8655
 Quadrupole moment (field-independent basis, Debye-Ang):
   XX=            -75.7336   YY=            -96.5995   ZZ=           -110.0802
   XY=             -0.9078   XZ=             -2.4340   YZ=             -0.0815

 Normal termination of Gaussian 16 at Mon Oct 25 23:19:57 2021.
