 Gaussian 16, Revision C.01,
 Gaussian 16:  ES64L-G16RevC.01  3-Jul-2019

 ---------------------------------
 # opt=modredundant hf/aug-cc-pvdz
 ---------------------------------

 ------------
 pBTTT_35.pdb
 ------------
 Symbolic Z-matrix:
 Charge =  0 Multiplicity = 1

 SCF Done:  E(RHF) =  -1649.50721668     A.U. after   18 cycles
 SCF Done:  E(RHF) =  -1649.57585779     A.U. after   16 cycles
 SCF Done:  E(RHF) =  -1649.62534443     A.U. after   16 cycles
 SCF Done:  E(RHF) =  -1649.63715491     A.U. after   15 cycles
 SCF Done:  E(RHF) =  -1649.64062577     A.U. after   15 cycles
 SCF Done:  E(RHF) =  -1649.64161858     A.U. after   15 cycles
 SCF Done:  E(RHF) =  -1649.64197206     A.U. after   15 cycles
 SCF Done:  E(RHF) =  -1649.64226514     A.U. after   14 cycles
 SCF Done:  E(RHF) =  -1649.64225801     A.U. after   14 cycles
 SCF Done:  E(RHF) =  -1649.64231329     A.U. after   13 cycles
 SCF Done:  E(RHF) =  -1649.64231672     A.U. after   12 cycles
 SCF Done:  E(RHF) =  -1649.64231846     A.U. after   10 cycles
 SCF Done:  E(RHF) =  -1649.64231845     A.U. after    9 cycles
 Optimization completed.
    -- Stationary point found.

                         Standard orientation:
 ---------------------------------------------------------------------
 Center     Atomic      Atomic             Coordinates (Angstroms)
 Number     Number       Type             X           Y           Z
 ---------------------------------------------------------------------
      1          6           0       -4.024190    0.342592   -0.215756
      2          6           0       -2.674054    0.825664   -0.304411
      3          6           0       -1.736958   -0.108630   -0.010494
      4          6           0       -4.079775   -0.954473    0.146931
      5          1           0       -4.891894    0.951613   -0.421911
      6         16           0       -2.512576   -1.621480    0.403919
      7          1           0       -4.960383   -1.558358    0.284210
      8          6           0       -0.275502   -0.001482   -0.022498
      9         16           0        0.537692    1.489038    0.440291
     10          6           0        2.089501    0.738011    0.235270
     11          6           0        1.960425   -0.561204   -0.157853
     12          6           0        0.604552   -0.992756   -0.308757
     13          1           0        0.306071   -1.980329   -0.620304
     14         16           0        3.514415   -1.305325   -0.383713
     15          6           0        4.310563    0.181936    0.062827
     16          6           0        3.449751    1.177183    0.361728
     17          1           0        5.386361    0.225124    0.078587
     18          1           0        3.755973    2.166967    0.659003
     19          8           0       -2.355550    2.089894   -0.655644
     20          1           0       -3.130100    2.599065   -0.824315
 ---------------------------------------------------------------------

 The electronic state is 1-A.
 Alpha  occ. eigenvalues --  -91.99152 -91.98527 -91.98346 -20.61206 -11.31888
 Alpha  occ. eigenvalues --  -11.28773 -11.28507 -11.27320 -11.27255 -11.26704
 Alpha  occ. eigenvalues --  -11.26521 -11.25693 -11.25329 -11.25072  -8.99361
 Alpha  occ. eigenvalues --   -8.98710  -8.98507  -6.67531  -6.67439  -6.67237
 Alpha  occ. eigenvalues --   -6.66877  -6.66800  -6.66669  -6.66593  -6.66588
 Alpha  occ. eigenvalues --   -6.66377  -1.43251  -1.21239  -1.18600  -1.12566
 Alpha  occ. eigenvalues --   -1.03056  -1.01965  -0.98859  -0.95648  -0.94111
 Alpha  occ. eigenvalues --   -0.82770  -0.81480  -0.77081  -0.75269  -0.71416
 Alpha  occ. eigenvalues --   -0.70069  -0.67051  -0.66419  -0.62051  -0.61342
 Alpha  occ. eigenvalues --   -0.58749  -0.56364  -0.56098  -0.53908  -0.52780
 Alpha  occ. eigenvalues --   -0.52611  -0.51238  -0.49566  -0.48122  -0.46487
 Alpha  occ. eigenvalues --   -0.45548  -0.38691  -0.35724  -0.33959  -0.31668
 Alpha  occ. eigenvalues --   -0.27760
 Alpha virt. eigenvalues --    0.02747   0.03721   0.03941   0.05021   0.05130
 Alpha virt. eigenvalues --    0.06278   0.07123   0.08557   0.08901   0.09371
 Alpha virt. eigenvalues --    0.10345   0.10533   0.10618   0.10994   0.11445

 Mulliken charges:
               1
     1  C    0.546167
     2  C    0.289426
     3  C    0.917255
     4  C   -0.281762
     5  H   -0.463636
     6  S    0.451265
     7  H   -0.352315
     8  C    0.111097
     9  S    0.480223
    10  C   -0.596447
    11  C   -0.176590
    12  C    0.252372
    13  H   -0.502442
    14  S    0.558914
    15  C   -0.136855
    16  C    0.358392
    17  H   -0.378994
    18  H   -0.321716
    19  O   -0.926934
    20  H    0.172579
 Sum of Mulliken charges =  -0.00000

 Dipole moment (field-independent basis, Debye):
    X=             -2.5412    Y=              1.0565    Z=             -0.3526  Tot=              2.7746
 Quadrupole moment (field-independent basis, Debye-Ang):
   XX=            -75.8163   YY=            -97.2212   ZZ=           -109.4171
   XY=             -0.7869   XZ=              3.4409   YZ=              0.0741

 Normal termination of Gaussian 16 at Mon Oct 25 23:12:51 2021.
