 Gaussian 16, Revision C.01,
 Gaussian 16:  ES64L-G16RevC.01  3-Jul-2019

 ---------------------------------
 # opt=modredundant hf/aug-cc-pvdz
 ---------------------------------

 -------------
 pBTTT_160.pdb
 -------------
 Symbolic Z-matrix:
 Charge =  0 Multiplicity = 1

 SCF Done:  E(RHF) =  -1649.50765830     A.U. after   18 cycles
 SCF Done:  E(RHF) =  -1649.57632282     A.U. after   16 cycles
 SCF Done:  E(RHF) =  -1649.62581591     A.U. after   16 cycles
 SCF Done:  E(RHF) =  -1649.63748332     A.U. after   16 cycles
 SCF Done:  E(RHF) =  -1649.64093481     A.U. after   16 cycles
 SCF Done:  E(RHF) =  -1649.64196165     A.U. after   15 cycles
 SCF Done:  E(RHF) =  -1649.64214575     A.U. after   15 cycles
 SCF Done:  E(RHF) =  -1649.64249307     A.U. after   14 cycles
 SCF Done:  E(RHF) =  -1649.64247933     A.U. after   14 cycles
 SCF Done:  E(RHF) =  -1649.64253423     A.U. after   13 cycles
 SCF Done:  E(RHF) =  -1649.64253785     A.U. after   11 cycles
 SCF Done:  E(RHF) =  -1649.64253948     A.U. after   10 cycles
 SCF Done:  E(RHF) =  -1649.64253951     A.U. after    9 cycles
 Optimization completed.
    -- Stationary point found.

                         Standard orientation:
 ---------------------------------------------------------------------
 Center     Atomic      Atomic             Coordinates (Angstroms)
 Number     Number       Type             X           Y           Z
 ---------------------------------------------------------------------
      1          6           0       -3.934425    0.857973    0.076246
      2          6           0       -2.528450    1.136175    0.150262
      3          6           0       -1.741125    0.043382   -0.018103
      4          6           0       -4.185578   -0.446960   -0.150609
      5          1           0       -4.699974    1.611059    0.190430
      6         16           0       -2.738133   -1.368002   -0.295429
      7          1           0       -5.146145   -0.922641   -0.248846
      8          6           0       -0.279162   -0.029747   -0.002160
      9         16           0        0.531016   -1.569259    0.282909
     10          6           0        2.086776   -0.813432    0.131852
     11          6           0        1.958487    0.523120   -0.103901
     12          6           0        0.604864    0.982407   -0.185096
     13          1           0        0.310808    1.999285   -0.373127
     14         16           0        3.514520    1.282532   -0.248536
     15          6           0        4.307896   -0.248686    0.017360
     16          6           0        3.444651   -1.269287    0.203504
     17          1           0        5.383526   -0.297566    0.018841
     18          1           0        3.747994   -2.288061    0.381753
     19          8           0       -2.025855    2.373376    0.362202
     20          1           0       -2.711422    2.976889    0.594099
 ---------------------------------------------------------------------

 The electronic state is 1-A.
 Alpha  occ. eigenvalues --  -91.99164 -91.98560 -91.98522 -20.61475 -11.31862
 Alpha  occ. eigenvalues --  -11.28754 -11.28468 -11.27493 -11.27273 -11.26793
 Alpha  occ. eigenvalues --  -11.26634 -11.25706 -11.25404 -11.24785  -8.99385
 Alpha  occ. eigenvalues --   -8.98743  -8.98719  -6.67555  -6.67463  -6.67261
 Alpha  occ. eigenvalues --   -6.66910  -6.66888  -6.66832  -6.66808  -6.66626
 Alpha  occ. eigenvalues --   -6.66595  -1.43406  -1.21279  -1.18648  -1.12578
 Alpha  occ. eigenvalues --   -1.03115  -1.02013  -0.98931  -0.95512  -0.94239
 Alpha  occ. eigenvalues --   -0.82834  -0.81515  -0.76957  -0.75220  -0.72290
 Alpha  occ. eigenvalues --   -0.69921  -0.67056  -0.66196  -0.62263  -0.61517
 Alpha  occ. eigenvalues --   -0.58435  -0.56304  -0.56030  -0.54230  -0.53160
 Alpha  occ. eigenvalues --   -0.52006  -0.51361  -0.49583  -0.48282  -0.46732
 Alpha  occ. eigenvalues --   -0.45595  -0.38888  -0.35933  -0.34105  -0.31819
 Alpha  occ. eigenvalues --   -0.27388
 Alpha virt. eigenvalues --    0.02662   0.03739   0.03850   0.05108   0.05135
 Alpha virt. eigenvalues --    0.06587   0.07056   0.08302   0.08784   0.09557
 Alpha virt. eigenvalues --    0.10398   0.10510   0.10807   0.11053   0.11672

 Mulliken charges:
               1
     1  C    0.629243
     2  C    0.213817
     3  C    0.767512
     4  C   -0.331488
     5  H   -0.475211
     6  S    0.502365
     7  H   -0.361341
     8  C    0.035469
     9  S    0.477309
    10  C   -0.667851
    11  C    0.040452
    12  C    0.353744
    13  H   -0.480727
    14  S    0.524907
    15  C   -0.159531
    16  C    0.381993
    17  H   -0.379176
    18  H   -0.321895
    19  O   -0.939615
    20  H    0.190026
 Sum of Mulliken charges =  -0.00000

 Dipole moment (field-independent basis, Debye):
    X=             -2.3099    Y=              1.2589    Z=              0.3699  Tot=              2.6566
 Quadrupole moment (field-independent basis, Debye-Ang):
   XX=            -77.4892   YY=            -95.2803   ZZ=           -109.9636
   XY=            -11.1560   XZ=             -0.6998   YZ=              0.7849

 1\1\GINC-CX3-2-1\FOpt\RHF\Aug-CC-pVDZ\C10H6O1S3\NS5018\25-Oct-2021\0\\
 # opt=modredundant hf/aug-cc-pvdz\\pBTTT_160.pdb\\0,1\C,-4.109420259,-
 1.2018848521,-0.0822133869\C,-2.7898020776,-0.9895220366,-0.6048511793
 \C,-2.0360155055,-2.1163435202,-0.6719451771\C,-4.3311933198,-2.493097
 607,0.2355562167\H,-4.8378171419,-0.4141856631,0.041111334\S,-2.964659
 1226,-3.4851758588,-0.100229533\H,-5.2292568794,-2.9230401301,0.644509
 8921\C,-0.6595890569,-2.2571495676,-1.1500266559\S,0.3057362423,-3.655
 8089431,-0.6813614276\C,1.6527888888,-3.0759611999,-1.6107185299\C,1.3

 Normal termination of Gaussian 16 at Mon Oct 25 23:34:23 2021.
