 Gaussian 16, Revision C.01,
 Gaussian 16:  ES64L-G16RevC.01  3-Jul-2019

 ---------------------------------
 # opt=modredundant hf/aug-cc-pvdz
 ---------------------------------

 -------------
 pBTTT_-70.pdb
 -------------
 Symbolic Z-matrix:
 Charge =  0 Multiplicity = 1

 SCF Done:  E(RHF) =  -1649.50523341     A.U. after   18 cycles
 SCF Done:  E(RHF) =  -1649.57465467     A.U. after   15 cycles
 SCF Done:  E(RHF) =  -1649.62537535     A.U. after   16 cycles
 SCF Done:  E(RHF) =  -1649.63690204     A.U. after   15 cycles
 SCF Done:  E(RHF) =  -1649.64017662     A.U. after   15 cycles
 SCF Done:  E(RHF) =  -1649.64096786     A.U. after   14 cycles
 SCF Done:  E(RHF) =  -1649.64136576     A.U. after   15 cycles
 SCF Done:  E(RHF) =  -1649.64162372     A.U. after   13 cycles
 SCF Done:  E(RHF) =  -1649.64161059     A.U. after   12 cycles
 SCF Done:  E(RHF) =  -1649.64167308     A.U. after   13 cycles
 SCF Done:  E(RHF) =  -1649.64167699     A.U. after   11 cycles
 SCF Done:  E(RHF) =  -1649.64167842     A.U. after   10 cycles
 SCF Done:  E(RHF) =  -1649.64167850     A.U. after    9 cycles
 Optimization completed.
    -- Stationary point found.

                         Standard orientation:
 ---------------------------------------------------------------------
 Center     Atomic      Atomic             Coordinates (Angstroms)
 Number     Number       Type             X           Y           Z
 ---------------------------------------------------------------------
      1          6           0       -3.996905    0.344655    0.451315
      2          6           0       -2.624084    0.737201    0.620233
      3          6           0       -1.742528   -0.098699    0.023603
      4          6           0       -4.117573   -0.787392   -0.272228
      5          1           0       -4.832030    0.891416    0.863722
      6         16           0       -2.589995   -1.403801   -0.772879
      7          1           0       -5.028256   -1.296184   -0.539177
      8          6           0       -0.273658   -0.015376    0.000398
      9         16           0        0.534348    1.248332   -0.916505
     10          6           0        2.088058    0.618185   -0.468073
     11          6           0        1.960436   -0.490125    0.317346
     12          6           0        0.603070   -0.860284    0.588407
     13          1           0        0.298164   -1.699915    1.191385
     14         16           0        3.515197   -1.119512    0.771718
     15          6           0        4.309335    0.149701   -0.123394
     16          6           0        3.448684    0.996273   -0.725749
     17          1           0        5.385143    0.189517   -0.148102
     18          1           0        3.754346    1.840789   -1.321551
     19          8           0       -2.234904    1.825771    1.315729
     20          1           0       -2.979942    2.303065    1.639399
 ---------------------------------------------------------------------

 The electronic state is 1-A.
 Alpha  occ. eigenvalues --  -91.99022 -91.98635 -91.98372 -20.60939 -11.31771
 Alpha  occ. eigenvalues --  -11.28461 -11.28372 -11.27410 -11.26913 -11.26830
 Alpha  occ. eigenvalues --  -11.26678 -11.25503 -11.25413 -11.25329  -8.99209
 Alpha  occ. eigenvalues --   -8.98819  -8.98539  -6.67375  -6.67282  -6.67084
 Alpha  occ. eigenvalues --   -6.66986  -6.66908  -6.66702  -6.66701  -6.66620
 Alpha  occ. eigenvalues --   -6.66412  -1.42979  -1.21271  -1.18426  -1.12587
 Alpha  occ. eigenvalues --   -1.02848  -1.01994  -0.98641  -0.95688  -0.94190
 Alpha  occ. eigenvalues --   -0.82564  -0.81178  -0.77049  -0.75071  -0.71893
 Alpha  occ. eigenvalues --   -0.69816  -0.66807  -0.66481  -0.62014  -0.61012
 Alpha  occ. eigenvalues --   -0.58533  -0.56384  -0.56056  -0.53730  -0.53194
 Alpha  occ. eigenvalues --   -0.52660  -0.50754  -0.49344  -0.48532  -0.45984
 Alpha  occ. eigenvalues --   -0.45753  -0.38382  -0.35042  -0.32903  -0.31729
 Alpha  occ. eigenvalues --   -0.29486
 Alpha virt. eigenvalues --    0.02783   0.03710   0.03992   0.04936   0.05099
 Alpha virt. eigenvalues --    0.06244   0.07957   0.08469   0.08704   0.08925
 Alpha virt. eigenvalues --    0.10000   0.10325   0.10464   0.10824   0.11324

 Mulliken charges:
               1
     1  C    0.559610
     2  C    0.516708
     3  C    0.487192
     4  C   -0.253422
     5  H   -0.454395
     6  S    0.372392
     7  H   -0.335060
     8  C    0.371950
     9  S    0.406372
    10  C   -0.755648
    11  C   -0.204251
    12  C    0.137356
    13  H   -0.459356
    14  S    0.630915
    15  C   -0.090603
    16  C    0.556888
    17  H   -0.376854
    18  H   -0.321728
    19  O   -0.955486
    20  H    0.167419
 Sum of Mulliken charges =  -0.00000

 Dipole moment (field-independent basis, Debye):
    X=             -2.2598    Y=              0.8923    Z=              0.6699  Tot=              2.5202
 Quadrupole moment (field-independent basis, Debye-Ang):
   XX=            -76.4775   YY=           -100.4140   ZZ=           -105.7170
   XY=             -0.7935   XZ=             -6.5828   YZ=             -0.1180

 Normal termination of Gaussian 16 at Mon Oct 25 22:57:58 2021.
