 Gaussian 16, Revision C.01,
 Gaussian 16:  ES64L-G16RevC.01  3-Jul-2019

 ---------------------------------
 # opt=modredundant hf/aug-cc-pvdz
 ---------------------------------

 -------------
 pBTTT_170.pdb
 -------------
 Symbolic Z-matrix:
 Charge =  0 Multiplicity = 1

 SCF Done:  E(RHF) =  -1649.50783771     A.U. after   18 cycles
 SCF Done:  E(RHF) =  -1649.57635617     A.U. after   16 cycles
 SCF Done:  E(RHF) =  -1649.62565318     A.U. after   16 cycles
 SCF Done:  E(RHF) =  -1649.63735883     A.U. after   16 cycles
 SCF Done:  E(RHF) =  -1649.64079073     A.U. after   16 cycles
 SCF Done:  E(RHF) =  -1649.64178666     A.U. after   15 cycles
 SCF Done:  E(RHF) =  -1649.64201339     A.U. after   15 cycles
 SCF Done:  E(RHF) =  -1649.64232468     A.U. after   14 cycles
 SCF Done:  E(RHF) =  -1649.64231374     A.U. after   13 cycles
 SCF Done:  E(RHF) =  -1649.64236729     A.U. after   13 cycles
 SCF Done:  E(RHF) =  -1649.64236824     A.U. after   11 cycles
 SCF Done:  E(RHF) =  -1649.64237033     A.U. after   10 cycles
 Optimization completed.
    -- Stationary point found.

                         Standard orientation:
 ---------------------------------------------------------------------
 Center     Atomic      Atomic             Coordinates (Angstroms)
 Number     Number       Type             X           Y           Z
 ---------------------------------------------------------------------
      1          6           0       -3.934803    0.867072    0.036307
      2          6           0       -2.528628    1.148817    0.077030
      3          6           0       -1.741246    0.045366   -0.006052
      4          6           0       -4.188436   -0.451741   -0.079935
      5          1           0       -4.698888    1.628079    0.093114
      6         16           0       -2.742534   -1.383019   -0.152098
      7          1           0       -5.149565   -0.933405   -0.131926
      8          6           0       -0.279059   -0.028042    0.002757
      9         16           0        0.531211   -1.587649    0.147357
     10          6           0        2.087807   -0.823188    0.067181
     11          6           0        1.960350    0.528479   -0.052496
     12          6           0        0.607620    0.995371   -0.092077
     13          1           0        0.316792    2.025303   -0.187723
     14         16           0        3.517213    1.296357   -0.127908
     15          6           0        4.309299   -0.252742    0.005890
     16          6           0        3.444991   -1.284925    0.101687
     17          1           0        5.384882   -0.302441    0.004621
     18          1           0        3.747232   -2.315561    0.191787
     19          8           0       -2.025627    2.399041    0.185659
     20          1           0       -2.717042    3.027859    0.305488
 ---------------------------------------------------------------------

 The electronic state is 1-A.
 Alpha  occ. eigenvalues --  -91.99182 -91.98541 -91.98507 -20.61596 -11.31912
 Alpha  occ. eigenvalues --  -11.28828 -11.28504 -11.27566 -11.27253 -11.26771
 Alpha  occ. eigenvalues --  -11.26615 -11.25739 -11.25395 -11.24700  -8.99408
 Alpha  occ. eigenvalues --   -8.98724  -8.98711  -6.67579  -6.67488  -6.67285
 Alpha  occ. eigenvalues --   -6.66891  -6.66881  -6.66814  -6.66801  -6.66608
 Alpha  occ. eigenvalues --   -6.66587  -1.43534  -1.21268  -1.18682  -1.12566
 Alpha  occ. eigenvalues --   -1.03141  -1.02006  -0.98976  -0.95510  -0.94225
 Alpha  occ. eigenvalues --   -0.82860  -0.81620  -0.76946  -0.75273  -0.72279
 Alpha  occ. eigenvalues --   -0.69986  -0.67122  -0.66125  -0.62256  -0.61620
 Alpha  occ. eigenvalues --   -0.58476  -0.56275  -0.56084  -0.54254  -0.53201
 Alpha  occ. eigenvalues --   -0.51865  -0.51541  -0.49624  -0.48203  -0.46825
 Alpha  occ. eigenvalues --   -0.45525  -0.38958  -0.36038  -0.34164  -0.31792
 Alpha  occ. eigenvalues --   -0.27210
 Alpha virt. eigenvalues --    0.02632   0.03725   0.03839   0.05094   0.05127
 Alpha virt. eigenvalues --    0.06696   0.06948   0.08321   0.08870   0.09698
 Alpha virt. eigenvalues --    0.10424   0.10529   0.10926   0.11027   0.11880

 Mulliken charges:
               1
     1  C    0.657630
     2  C    0.203655
     3  C    0.759240
     4  C   -0.315705
     5  H   -0.486883
     6  S    0.503566
     7  H   -0.373888
     8  C   -0.085686
     9  S    0.509692
    10  C   -0.646385
    11  C    0.065393
    12  C    0.500087
    13  H   -0.492210
    14  S    0.487522
    15  C   -0.185393
    16  C    0.371180
    17  H   -0.380966
    18  H   -0.324631
    19  O   -0.970144
    20  H    0.203924
 Sum of Mulliken charges =  -0.00000

 Dipole moment (field-independent basis, Debye):
    X=             -2.3574    Y=              1.3076    Z=              0.1843  Tot=              2.7020
 Quadrupole moment (field-independent basis, Debye-Ang):
   XX=            -77.3850   YY=            -94.6640   ZZ=           -110.5446
   XY=            -11.4189   XZ=             -0.3631   YZ=              0.4394

 Normal termination of Gaussian 16 at Mon Oct 25 23:57:42 2021.
