 Gaussian 16, Revision C.01,
 Gaussian 16:  ES64L-G16RevC.01  3-Jul-2019

 ---------------------------------
 # opt=modredundant hf/aug-cc-pvdz
 ---------------------------------

 ------------
 pBTTT_85.pdb
 ------------
 Symbolic Z-matrix:
 Charge =  0 Multiplicity = 1

 SCF Done:  E(RHF) =  -1649.50415753     A.U. after   18 cycles
 SCF Done:  E(RHF) =  -1649.57369487     A.U. after   15 cycles
 SCF Done:  E(RHF) =  -1649.62479275     A.U. after   16 cycles
 SCF Done:  E(RHF) =  -1649.63644060     A.U. after   15 cycles
 SCF Done:  E(RHF) =  -1649.63986318     A.U. after   15 cycles
 SCF Done:  E(RHF) =  -1649.64079485     A.U. after   14 cycles
 SCF Done:  E(RHF) =  -1649.64109740     A.U. after   14 cycles
 SCF Done:  E(RHF) =  -1649.64139355     A.U. after   13 cycles
 SCF Done:  E(RHF) =  -1649.64139695     A.U. after   13 cycles
 SCF Done:  E(RHF) =  -1649.64145813     A.U. after   12 cycles
 SCF Done:  E(RHF) =  -1649.64146060     A.U. after   11 cycles
 SCF Done:  E(RHF) =  -1649.64146319     A.U. after   10 cycles
 SCF Done:  E(RHF) =  -1649.64146332     A.U. after    9 cycles
 Optimization completed.
    -- Stationary point found.

                         Standard orientation:
 ---------------------------------------------------------------------
 Center     Atomic      Atomic             Coordinates (Angstroms)
 Number     Number       Type             X           Y           Z
 ---------------------------------------------------------------------
      1          6           0        3.977422    0.372056    0.540921
      2          6           0        2.590734    0.713387    0.712292
      3          6           0        1.744373   -0.096509    0.035573
      4          6           0        4.142187   -0.693022   -0.270087
      5          1           0        4.789709    0.906585    1.010919
      6         16           0        2.641921   -1.311182   -0.845558
      7          1           0        5.071566   -1.153446   -0.559636
      8          6           0        0.273793   -0.031426   -0.014080
      9         16           0       -0.532452    1.029336   -1.161824
     10          6           0       -2.086916    0.507899   -0.593181
     11          6           0       -1.960755   -0.416971    0.402017
     12          6           0       -0.603501   -0.732380    0.737047
     13          1           0       -0.298573   -1.435185    1.495034
     14         16           0       -3.516297   -0.938978    0.974417
     15          6           0       -4.308708    0.121756   -0.161015
     16          6           0       -3.447214    0.825420   -0.924448
     17          1           0       -5.384469    0.157724   -0.192900
     18          1           0       -3.751848    1.530343   -1.680655
     19          8           0        2.158728    1.736406    1.477883
     20          1           0        2.884529    2.214662    1.841401
 ---------------------------------------------------------------------

 The electronic state is 1-A.
 Alpha  occ. eigenvalues --  -91.98958 -91.98656 -91.98391 -20.60918 -11.31767
 Alpha  occ. eigenvalues --  -11.28370 -11.28364 -11.27442 -11.26861 -11.26822
 Alpha  occ. eigenvalues --  -11.26694 -11.25456 -11.25429 -11.25370  -8.99142
 Alpha  occ. eigenvalues --   -8.98840  -8.98555  -6.67309  -6.67216  -6.67018
 Alpha  occ. eigenvalues --   -6.67007  -6.66929  -6.66722  -6.66718  -6.66636
 Alpha  occ. eigenvalues --   -6.66429  -1.42959  -1.21270  -1.18378  -1.12581
 Alpha  occ. eigenvalues --   -1.02810  -1.01994  -0.98583  -0.95677  -0.94213
 Alpha  occ. eigenvalues --   -0.82519  -0.81117  -0.77040  -0.75003  -0.72066
 Alpha  occ. eigenvalues --   -0.69736  -0.66809  -0.66457  -0.62038  -0.60979
 Alpha  occ. eigenvalues --   -0.58420  -0.56379  -0.56046  -0.53663  -0.53330
 Alpha  occ. eigenvalues --   -0.52658  -0.50648  -0.49281  -0.48605  -0.45893
 Alpha  occ. eigenvalues --   -0.45791  -0.38344  -0.34888  -0.32330  -0.31734
 Alpha  occ. eigenvalues --   -0.30189
 Alpha virt. eigenvalues --    0.02775   0.03701   0.03991   0.04905   0.05096
 Alpha virt. eigenvalues --    0.06234   0.07987   0.08451   0.08821   0.09002
 Alpha virt. eigenvalues --    0.09676   0.10289   0.10405   0.10833   0.11469

 Mulliken charges:
               1
     1  C    0.660981
     2  C    0.432936
     3  C    0.451147
     4  C   -0.318970
     5  H   -0.451958
     6  S    0.350253
     7  H   -0.329245
     8  C    0.548297
     9  S    0.388856
    10  C   -0.801587
    11  C   -0.238425
    12  C    0.032621
    13  H   -0.437043
    14  S    0.649110
    15  C   -0.086533
    16  C    0.635356
    17  H   -0.377610
    18  H   -0.326495
    19  O   -0.944865
    20  H    0.163175
 Sum of Mulliken charges =  -0.00000

 Dipole moment (field-independent basis, Debye):
    X=              2.1776    Y=              0.8894    Z=              0.7723  Tot=              2.4758
 Quadrupole moment (field-independent basis, Debye-Ang):
   XX=            -76.8672   YY=           -102.2644   ZZ=           -103.5685
   XY=              1.3589   XZ=              7.7387   YZ=             -0.0285

 Normal termination of Gaussian 16 at Mon Oct 25 23:35:14 2021.
