 Gaussian 16, Revision C.01,
 Gaussian 16:  ES64L-G16RevC.01  3-Jul-2019

 ---------------------------------
 # opt=modredundant hf/aug-cc-pvdz
 ---------------------------------

 ------------
 pBTTT_40.pdb
 ------------
 Symbolic Z-matrix:
 Charge =  0 Multiplicity = 1

 SCF Done:  E(RHF) =  -1649.50667775     A.U. after   18 cycles
 SCF Done:  E(RHF) =  -1649.57545286     A.U. after   16 cycles
 SCF Done:  E(RHF) =  -1649.62525226     A.U. after   16 cycles
 SCF Done:  E(RHF) =  -1649.63705742     A.U. after   15 cycles
 SCF Done:  E(RHF) =  -1649.64054233     A.U. after   15 cycles
 SCF Done:  E(RHF) =  -1649.64152894     A.U. after   15 cycles
 SCF Done:  E(RHF) =  -1649.64189297     A.U. after   15 cycles
 SCF Done:  E(RHF) =  -1649.64218531     A.U. after   14 cycles
 SCF Done:  E(RHF) =  -1649.64217695     A.U. after   14 cycles
 SCF Done:  E(RHF) =  -1649.64223376     A.U. after   13 cycles
 SCF Done:  E(RHF) =  -1649.64223738     A.U. after   12 cycles
 SCF Done:  E(RHF) =  -1649.64223911     A.U. after   10 cycles
 SCF Done:  E(RHF) =  -1649.64223907     A.U. after    9 cycles
 Optimization completed.
    -- Stationary point found.

                         Standard orientation:
 ---------------------------------------------------------------------
 Center     Atomic      Atomic             Coordinates (Angstroms)
 Number     Number       Type             X           Y           Z
 ---------------------------------------------------------------------
      1          6           0       -4.022189    0.339700   -0.247685
      2          6           0       -2.670898    0.817109   -0.349278
      3          6           0       -1.737593   -0.105809   -0.011648
      4          6           0       -4.081502   -0.941581    0.167662
      5          1           0       -4.888072    0.940457   -0.483700
      6         16           0       -2.516860   -1.599410    0.459888
      7          1           0       -4.964009   -1.537962    0.324422
      8          6           0       -0.275258   -0.000524   -0.021008
      9         16           0        0.537766    1.467223    0.507898
     10          6           0        2.089575    0.726699    0.267947
     11          6           0        1.959962   -0.554474   -0.180779
     12          6           0        0.603616   -0.978945   -0.349627
     13          1           0        0.303209   -1.951621   -0.703346
     14         16           0        3.513680   -1.288363   -0.439615
     15          6           0        4.310330    0.178117    0.069851
     16          6           0        3.450084    1.159720    0.412201
     17          1           0        5.386156    0.220458    0.086570
     18          1           0        3.756748    2.135690    0.751651
     19          8           0       -2.347931    2.064323   -0.753134
     20          1           0       -3.120712    2.567130   -0.947083
 ---------------------------------------------------------------------

 The electronic state is 1-A.
 Alpha  occ. eigenvalues --  -91.99142 -91.98546 -91.98350 -20.61148 -11.31861
 Alpha  occ. eigenvalues --  -11.28731 -11.28477 -11.27281 -11.27262 -11.26723
 Alpha  occ. eigenvalues --  -11.26558 -11.25664 -11.25345 -11.25112  -8.99347
 Alpha  occ. eigenvalues --   -8.98729  -8.98514  -6.67516  -6.67424  -6.67223
 Alpha  occ. eigenvalues --   -6.66896  -6.66819  -6.66676  -6.66612  -6.66595
 Alpha  occ. eigenvalues --   -6.66384  -1.43190  -1.21249  -1.18577  -1.12574
 Alpha  occ. eigenvalues --   -1.03025  -1.01973  -0.98829  -0.95656  -0.94126
 Alpha  occ. eigenvalues --   -0.82741  -0.81427  -0.77075  -0.75240  -0.71482
 Alpha  occ. eigenvalues --   -0.70030  -0.66988  -0.66447  -0.62041  -0.61275
 Alpha  occ. eigenvalues --   -0.58728  -0.56369  -0.56089  -0.53886  -0.52813
 Alpha  occ. eigenvalues --   -0.52649  -0.51157  -0.49540  -0.48196  -0.46407
 Alpha  occ. eigenvalues --   -0.45592  -0.38633  -0.35637  -0.33872  -0.31676
 Alpha  occ. eigenvalues --   -0.27949
 Alpha virt. eigenvalues --    0.02758   0.03723   0.03950   0.05018   0.05123
 Alpha virt. eigenvalues --    0.06274   0.07250   0.08548   0.08807   0.09297
 Alpha virt. eigenvalues --    0.10329   0.10515   0.10590   0.10975   0.11400

 Mulliken charges:
               1
     1  C    0.523983
     2  C    0.347309
     3  C    0.856827
     4  C   -0.265540
     5  H   -0.462590
     6  S    0.442656
     7  H   -0.347431
     8  C    0.124479
     9  S    0.468757
    10  C   -0.605497
    11  C   -0.189961
    12  C    0.238812
    13  H   -0.497512
    14  S    0.570968
    15  C   -0.127162
    16  C    0.379425
    17  H   -0.378284
    18  H   -0.320557
    19  O   -0.928884
    20  H    0.170201
 Sum of Mulliken charges =  -0.00000

 Dipole moment (field-independent basis, Debye):
    X=             -2.4969    Y=              1.0244    Z=             -0.4018  Tot=              2.7286
 Quadrupole moment (field-independent basis, Debye-Ang):
   XX=            -75.8747   YY=            -97.5854   ZZ=           -109.0161
   XY=             -0.7374   XZ=              3.9224   YZ=              0.0841

 Normal termination of Gaussian 16 at Mon Oct 25 23:18:10 2021.
