 Gaussian 16, Revision C.01,
 Gaussian 16:  ES64L-G16RevC.01  3-Jul-2019

 ---------------------------------
 # opt=modredundant hf/aug-cc-pvdz
 ---------------------------------

 --------------
 pBTTT_-145.pdb
 --------------
 Symbolic Z-matrix:
 Charge =  0 Multiplicity = 1

 SCF Done:  E(RHF) =  -1649.50751153     A.U. after   18 cycles
 SCF Done:  E(RHF) =  -1649.57617862     A.U. after   16 cycles
 SCF Done:  E(RHF) =  -1649.62607287     A.U. after   16 cycles
 SCF Done:  E(RHF) =  -1649.63760663     A.U. after   15 cycles
 SCF Done:  E(RHF) =  -1649.64100669     A.U. after   15 cycles
 SCF Done:  E(RHF) =  -1649.64189152     A.U. after   15 cycles
 SCF Done:  E(RHF) =  -1649.64223336     A.U. after   15 cycles
 SCF Done:  E(RHF) =  -1649.64254614     A.U. after   14 cycles
 SCF Done:  E(RHF) =  -1649.64256894     A.U. after   14 cycles
 SCF Done:  E(RHF) =  -1649.64262240     A.U. after   13 cycles
 SCF Done:  E(RHF) =  -1649.64262535     A.U. after   11 cycles
 SCF Done:  E(RHF) =  -1649.64262699     A.U. after   10 cycles
 Optimization completed.
    -- Stationary point found.

                         Standard orientation:
 ---------------------------------------------------------------------
 Center     Atomic      Atomic             Coordinates (Angstroms)
 Number     Number       Type             X           Y           Z
 ---------------------------------------------------------------------
      1          6           0        3.932995    0.837632    0.142998
      2          6           0        2.526275    1.105772    0.251546
      3          6           0        1.741269    0.041158   -0.047069
      4          6           0        4.182776   -0.432070   -0.235622
      5          1           0        4.699423    1.571436    0.343981
      6         16           0        2.734829   -1.329489   -0.489233
      7          1           0        5.143610   -0.892320   -0.390006
      8          6           0        0.278962   -0.035219   -0.025972
      9         16           0       -0.529172   -1.523888    0.459289
     10          6           0       -2.084596   -0.789226    0.222056
     11          6           0       -1.956689    0.507802   -0.179273
     12          6           0       -0.601989    0.947777   -0.327880
     13          1           0       -0.303606    1.932213   -0.643972
     14         16           0       -3.512404    1.245630   -0.411373
     15          6           0       -4.305900   -0.239353    0.046285
     16          6           0       -3.443156   -1.230245    0.354418
     17          1           0       -5.381587   -0.285640    0.059267
     18          1           0       -3.746991   -2.218373    0.659346
     19          8           0        2.022446    2.308879    0.607519
     20          1           0        2.697881    2.861441    0.963393
 ---------------------------------------------------------------------

 The electronic state is 1-A.
 Alpha  occ. eigenvalues --  -91.99118 -91.98593 -91.98536 -20.61257 -11.31802
 Alpha  occ. eigenvalues --  -11.28615 -11.28424 -11.27345 -11.27314 -11.26824
 Alpha  occ. eigenvalues --  -11.26669 -11.25640 -11.25418 -11.24944  -8.99330
 Alpha  occ. eigenvalues --   -8.98776  -8.98720  -6.67499  -6.67407  -6.67206
 Alpha  occ. eigenvalues --   -6.66943  -6.66887  -6.66865  -6.66807  -6.66659
 Alpha  occ. eigenvalues --   -6.66595  -1.43188  -1.21290  -1.18578  -1.12593
 Alpha  occ. eigenvalues --   -1.03054  -1.02018  -0.98839  -0.95529  -0.94256
 Alpha  occ. eigenvalues --   -0.82772  -0.81330  -0.76979  -0.75127  -0.72305
 Alpha  occ. eigenvalues --   -0.69807  -0.66922  -0.66342  -0.62247  -0.61342
 Alpha  occ. eigenvalues --   -0.58369  -0.56332  -0.55981  -0.54149  -0.53078
 Alpha  occ. eigenvalues --   -0.52235  -0.51083  -0.49497  -0.48423  -0.46537
 Alpha  occ. eigenvalues --   -0.45706  -0.38738  -0.35686  -0.33958  -0.31836
 Alpha  occ. eigenvalues --   -0.27829
 Alpha virt. eigenvalues --    0.02710   0.03742   0.03882   0.05105   0.05129
 Alpha virt. eigenvalues --    0.06383   0.07386   0.08258   0.08663   0.09437
 Alpha virt. eigenvalues --    0.10213   0.10506   0.10721   0.11017   0.11452

 Mulliken charges:
               1
     1  C    0.601866
     2  C    0.213528
     3  C    0.806758
     4  C   -0.321225
     5  H   -0.461741
     6  S    0.481290
     7  H   -0.346716
     8  C    0.110774
     9  S    0.452367
    10  C   -0.714237
    11  C    0.004690
    12  C    0.187469
    13  H   -0.461505
    14  S    0.575208
    15  C   -0.121577
    16  C    0.429997
    17  H   -0.378094
    18  H   -0.320068
    19  O   -0.912304
    20  H    0.173516
 Sum of Mulliken charges =  -0.00000

 Dipole moment (field-independent basis, Debye):
    X=              2.2270    Y=              1.1670    Z=              0.6064  Tot=              2.5863
 Quadrupole moment (field-independent basis, Debye-Ang):
   XX=            -77.6641   YY=            -96.6043   ZZ=           -108.6891
   XY=             10.5872   XZ=              1.0290   YZ=              0.9522

 Normal termination of Gaussian 16 at Mon Oct 25 21:42:45 2021.
