 Gaussian 16, Revision C.01,
 Gaussian 16:  ES64L-G16RevC.01  3-Jul-2019

 ---------------------------------
 # opt=modredundant hf/aug-cc-pvdz
 ---------------------------------

 -------------
 pBTTT_145.pdb
 -------------
 Symbolic Z-matrix:
 Charge =  0 Multiplicity = 1

 SCF Done:  E(RHF) =  -1649.50707765     A.U. after   18 cycles
 SCF Done:  E(RHF) =  -1649.57604132     A.U. after   16 cycles
 SCF Done:  E(RHF) =  -1649.62593625     A.U. after   16 cycles
 SCF Done:  E(RHF) =  -1649.63755502     A.U. after   15 cycles
 SCF Done:  E(RHF) =  -1649.64100026     A.U. after   15 cycles
 SCF Done:  E(RHF) =  -1649.64205034     A.U. after   15 cycles
 SCF Done:  E(RHF) =  -1649.64222588     A.U. after   15 cycles
 SCF Done:  E(RHF) =  -1649.64257581     A.U. after   14 cycles
 SCF Done:  E(RHF) =  -1649.64254459     A.U. after   14 cycles
 SCF Done:  E(RHF) =  -1649.64262084     A.U. after   13 cycles
 SCF Done:  E(RHF) =  -1649.64262577     A.U. after   11 cycles
 SCF Done:  E(RHF) =  -1649.64262697     A.U. after   10 cycles
 SCF Done:  E(RHF) =  -1649.64262702     A.U. after    9 cycles
 Optimization completed.
    -- Stationary point found.

                         Standard orientation:
 ---------------------------------------------------------------------
 Center     Atomic      Atomic             Coordinates (Angstroms)
 Number     Number       Type             X           Y           Z
 ---------------------------------------------------------------------
      1          6           0       -3.933040    0.837596    0.142709
      2          6           0       -2.526359    1.105784    0.251415
      3          6           0       -1.741257    0.041241   -0.047137
      4          6           0       -4.182729   -0.432176   -0.235679
      5          1           0       -4.699533    1.571323    0.343717
      6         16           0       -2.734746   -1.329517   -0.489142
      7          1           0       -5.143559   -0.892484   -0.389915
      8          6           0       -0.278962   -0.035105   -0.025940
      9         16           0        0.529125   -1.523820    0.459324
     10          6           0        2.084572   -0.789215    0.222084
     11          6           0        1.956730    0.507842   -0.179174
     12          6           0        0.602055    0.947883   -0.327755
     13          1           0        0.303728    1.932390   -0.643680
     14         16           0        3.512458    1.245618   -0.411335
     15          6           0        4.305899   -0.239416    0.046220
     16          6           0        3.443126   -1.230308    0.354278
     17          1           0        5.381583   -0.285882    0.058812
     18          1           0        3.746941   -2.218459    0.659154
     19          8           0       -2.022592    2.308824    0.607575
     20          1           0       -2.698023    2.861266    0.963633
 ---------------------------------------------------------------------

 The electronic state is 1-A.
 Alpha  occ. eigenvalues --  -91.99118 -91.98593 -91.98536 -20.61257 -11.31802
 Alpha  occ. eigenvalues --  -11.28616 -11.28423 -11.27344 -11.27314 -11.26824
 Alpha  occ. eigenvalues --  -11.26669 -11.25639 -11.25418 -11.24945  -8.99329
 Alpha  occ. eigenvalues --   -8.98776  -8.98720  -6.67498  -6.67406  -6.67206
 Alpha  occ. eigenvalues --   -6.66943  -6.66887  -6.66865  -6.66807  -6.66659
 Alpha  occ. eigenvalues --   -6.66595  -1.43189  -1.21290  -1.18578  -1.12593
 Alpha  occ. eigenvalues --   -1.03055  -1.02018  -0.98840  -0.95529  -0.94256
 Alpha  occ. eigenvalues --   -0.82773  -0.81331  -0.76979  -0.75128  -0.72305
 Alpha  occ. eigenvalues --   -0.69807  -0.66922  -0.66342  -0.62247  -0.61343
 Alpha  occ. eigenvalues --   -0.58369  -0.56332  -0.55981  -0.54149  -0.53078
 Alpha  occ. eigenvalues --   -0.52234  -0.51083  -0.49497  -0.48423  -0.46537
 Alpha  occ. eigenvalues --   -0.45706  -0.38738  -0.35686  -0.33958  -0.31836
 Alpha  occ. eigenvalues --   -0.27828
 Alpha virt. eigenvalues --    0.02710   0.03742   0.03882   0.05105   0.05129
 Alpha virt. eigenvalues --    0.06383   0.07385   0.08258   0.08663   0.09437
 Alpha virt. eigenvalues --    0.10213   0.10506   0.10721   0.11018   0.11452

 Mulliken charges:
               1
     1  C    0.601909
     2  C    0.213582
     3  C    0.806762
     4  C   -0.321231
     5  H   -0.461739
     6  S    0.481296
     7  H   -0.346719
     8  C    0.110642
     9  S    0.452446
    10  C   -0.714341
    11  C    0.004796
    12  C    0.187432
    13  H   -0.461533
    14  S    0.575199
    15  C   -0.121583
    16  C    0.430043
    17  H   -0.378100
    18  H   -0.320084
    19  O   -0.912275
    20  H    0.173497
 Sum of Mulliken charges =  -0.00000

 Dipole moment (field-independent basis, Debye):
    X=             -2.2271    Y=              1.1667    Z=              0.6066  Tot=              2.5863
 Quadrupole moment (field-independent basis, Debye-Ang):
   XX=            -77.6635   YY=            -96.6047   ZZ=           -108.6889
   XY=            -10.5868   XZ=             -1.0337   YZ=              0.9530

 Normal termination of Gaussian 16 at Mon Oct 25 23:29:03 2021.
