 Gaussian 16, Revision C.01,
 Gaussian 16:  ES64L-G16RevC.01  3-Jul-2019

 ---------------------------------
 # opt=modredundant hf/aug-cc-pvdz
 ---------------------------------

 --------------
 pBTTT_-105.pdb
 --------------
 Symbolic Z-matrix:
 Charge =  0 Multiplicity = 1

 SCF Done:  E(RHF) =  -1649.50410321     A.U. after   18 cycles
 SCF Done:  E(RHF) =  -1649.57362878     A.U. after   15 cycles
 SCF Done:  E(RHF) =  -1649.62491990     A.U. after   16 cycles
 SCF Done:  E(RHF) =  -1649.63655673     A.U. after   15 cycles
 SCF Done:  E(RHF) =  -1649.63995420     A.U. after   15 cycles
 SCF Done:  E(RHF) =  -1649.64078548     A.U. after   14 cycles
 SCF Done:  E(RHF) =  -1649.64120189     A.U. after   15 cycles
 SCF Done:  E(RHF) =  -1649.64148639     A.U. after   13 cycles
 SCF Done:  E(RHF) =  -1649.64151088     A.U. after   13 cycles
 SCF Done:  E(RHF) =  -1649.64156976     A.U. after   12 cycles
 SCF Done:  E(RHF) =  -1649.64157279     A.U. after   11 cycles
 SCF Done:  E(RHF) =  -1649.64157513     A.U. after   10 cycles
 SCF Done:  E(RHF) =  -1649.64157524     A.U. after    9 cycles
 Optimization completed.
    -- Stationary point found.

                         Standard orientation:
 ---------------------------------------------------------------------
 Center     Atomic      Atomic             Coordinates (Angstroms)
 Number     Number       Type             X           Y           Z
 ---------------------------------------------------------------------
      1          6           0        3.951255    0.707884    0.272594
      2          6           0        2.550521    0.936130    0.506703
      3          6           0        1.744434    0.031803   -0.096144
      4          6           0        4.167652   -0.376930   -0.498746
      5          1           0        4.736116    1.333241    0.671784
      6         16           0        2.700111   -1.144064   -0.970381
      7          1           0        5.117564   -0.767181   -0.822577
      8          6           0        0.275453   -0.037907   -0.048166
      9         16           0       -0.529777   -1.256658    0.933440
     10          6           0       -2.084900   -0.646061    0.462842
     11          6           0       -1.959517    0.420672   -0.378436
     12          6           0       -0.602853    0.771660   -0.678691
     13          1           0       -0.299046    1.579620   -1.323574
     14         16           0       -3.515550    1.033289   -0.850377
     15          6           0       -4.307015   -0.185696    0.114000
     16          6           0       -3.444608   -1.003885    0.752080
     17          1           0       -5.382718   -0.219706    0.149496
     18          1           0       -3.748346   -1.815351    1.393059
     19          8           0        2.072640    1.953812    1.252826
     20          1           0        2.776252    2.431817    1.658062
 ---------------------------------------------------------------------

 The electronic state is 1-A.
 Alpha  occ. eigenvalues --  -91.98946 -91.98655 -91.98440 -20.60943 -11.31790
 Alpha  occ. eigenvalues --  -11.28381 -11.28355 -11.27431 -11.26877 -11.26864
 Alpha  occ. eigenvalues --  -11.26702 -11.25468 -11.25435 -11.25309  -8.99136
 Alpha  occ. eigenvalues --   -8.98839  -8.98604  -6.67303  -6.67211  -6.67012
 Alpha  occ. eigenvalues --   -6.67006  -6.66928  -6.66768  -6.66721  -6.66686
 Alpha  occ. eigenvalues --   -6.66478  -1.42967  -1.21272  -1.18389  -1.12580
 Alpha  occ. eigenvalues --   -1.02847  -1.01992  -0.98600  -0.95632  -0.94236
 Alpha  occ. eigenvalues --   -0.82550  -0.81112  -0.77025  -0.74966  -0.72227
 Alpha  occ. eigenvalues --   -0.69678  -0.66799  -0.66471  -0.62106  -0.61019
 Alpha  occ. eigenvalues --   -0.58321  -0.56339  -0.56032  -0.53778  -0.53216
 Alpha  occ. eigenvalues --   -0.52692  -0.50633  -0.49281  -0.48621  -0.45959
 Alpha  occ. eigenvalues --   -0.45823  -0.38380  -0.34942  -0.32763  -0.31690
 Alpha  occ. eigenvalues --   -0.29791
 Alpha virt. eigenvalues --    0.02764   0.03711   0.03971   0.04944   0.05093
 Alpha virt. eigenvalues --    0.06231   0.08044   0.08377   0.08712   0.09010
 Alpha virt. eigenvalues --    0.09846   0.10254   0.10417   0.10919   0.11401

 Mulliken charges:
               1
     1  C    0.670378
     2  C    0.304907
     3  C    0.623385
     4  C   -0.342140
     5  H   -0.452077
     6  S    0.388555
     7  H   -0.333486
     8  C    0.409500
     9  S    0.388960
    10  C   -0.812387
    11  C   -0.200414
    12  C    0.079489
    13  H   -0.423878
    14  S    0.641234
    15  C   -0.087796
    16  C    0.617314
    17  H   -0.377073
    18  H   -0.326343
    19  O   -0.927218
    20  H    0.159092
 Sum of Mulliken charges =  -0.00000

 Dipole moment (field-independent basis, Debye):
    X=              2.1373    Y=              1.0215    Z=              0.7436  Tot=              2.4828
 Quadrupole moment (field-independent basis, Debye-Ang):
   XX=            -77.3167   YY=           -100.7670   ZZ=           -104.7517
   XY=              9.1040   XZ=              0.6054   YZ=              0.1698

 Normal termination of Gaussian 16 at Mon Oct 25 22:32:49 2021.
