 Gaussian 16, Revision C.01,
 Gaussian 16:  ES64L-G16RevC.01  3-Jul-2019

 ---------------------------------
 # opt=modredundant hf/aug-cc-pvdz
 ---------------------------------

 --------------
 pBTTT_-140.pdb
 --------------
 Symbolic Z-matrix:
 Charge =  0 Multiplicity = 1

 SCF Done:  E(RHF) =  -1649.50704508     A.U. after   18 cycles
 SCF Done:  E(RHF) =  -1649.57585948     A.U. after   16 cycles
 SCF Done:  E(RHF) =  -1649.62600470     A.U. after   16 cycles
 SCF Done:  E(RHF) =  -1649.63753660     A.U. after   15 cycles
 SCF Done:  E(RHF) =  -1649.64094656     A.U. after   15 cycles
 SCF Done:  E(RHF) =  -1649.64182626     A.U. after   15 cycles
 SCF Done:  E(RHF) =  -1649.64216962     A.U. after   15 cycles
 SCF Done:  E(RHF) =  -1649.64248494     A.U. after   14 cycles
 SCF Done:  E(RHF) =  -1649.64250934     A.U. after   14 cycles
 SCF Done:  E(RHF) =  -1649.64256309     A.U. after   13 cycles
 SCF Done:  E(RHF) =  -1649.64256609     A.U. after   11 cycles
 SCF Done:  E(RHF) =  -1649.64256782     A.U. after   10 cycles
 Optimization completed.
    -- Stationary point found.

                         Standard orientation:
 ---------------------------------------------------------------------
 Center     Atomic      Atomic             Coordinates (Angstroms)
 Number     Number       Type             X           Y           Z
 ---------------------------------------------------------------------
      1          6           0        3.932807    0.828559    0.164710
      2          6           0        2.525796    1.092493    0.284034
      3          6           0        1.741454    0.040820   -0.057183
      4          6           0        4.182158   -0.425732   -0.262571
      5          1           0        4.699521    1.553750    0.393924
      6         16           0        2.734176   -1.312848   -0.550354
      7          1           0        5.143131   -0.879447   -0.434691
      8          6           0        0.278735   -0.037194   -0.034614
      9         16           0       -0.528288   -1.503794    0.514665
     10          6           0       -2.083887   -0.778475    0.251115
     11          6           0       -1.956660    0.500908   -0.203889
     12          6           0       -0.601781    0.932788   -0.374473
     13          1           0       -0.302577    1.903250   -0.731314
     14         16           0       -3.512575    1.229052   -0.463497
     15          6           0       -4.305467   -0.235432    0.056732
     16          6           0       -3.442506   -1.213110    0.403824
     17          1           0       -5.381147   -0.280646    0.073997
     18          1           0       -3.746089   -2.187654    0.749928
     19          8           0        2.021746    2.280174    0.687592
     20          1           0        2.696302    2.817033    1.068292
 ---------------------------------------------------------------------

 The electronic state is 1-A.
 Alpha  occ. eigenvalues --  -91.99098 -91.98603 -91.98535 -20.61192 -11.31794
 Alpha  occ. eigenvalues --  -11.28571 -11.28415 -11.27329 -11.27287 -11.26831
 Alpha  occ. eigenvalues --  -11.26679 -11.25616 -11.25422 -11.24997  -8.99306
 Alpha  occ. eigenvalues --   -8.98786  -8.98714  -6.67475  -6.67383  -6.67183
 Alpha  occ. eigenvalues --   -6.66953  -6.66881  -6.66875  -6.66800  -6.66669
 Alpha  occ. eigenvalues --   -6.66589  -1.43130  -1.21290  -1.18552  -1.12594
 Alpha  occ. eigenvalues --   -1.03031  -1.02016  -0.98807  -0.95538  -0.94258
 Alpha  occ. eigenvalues --   -0.82747  -0.81280  -0.76986  -0.75098  -0.72308
 Alpha  occ. eigenvalues --   -0.69773  -0.66878  -0.66390  -0.62235  -0.61290
 Alpha  occ. eigenvalues --   -0.58351  -0.56335  -0.55979  -0.54111  -0.53051
 Alpha  occ. eigenvalues --   -0.52323  -0.50995  -0.49465  -0.48466  -0.46464
 Alpha  occ. eigenvalues --   -0.45735  -0.38682  -0.35587  -0.33885  -0.31831
 Alpha  occ. eigenvalues --   -0.28014
 Alpha virt. eigenvalues --    0.02723   0.03739   0.03895   0.05103   0.05117
 Alpha virt. eigenvalues --    0.06334   0.07521   0.08241   0.08634   0.09392
 Alpha virt. eigenvalues --    0.10165   0.10504   0.10682   0.10994   0.11409

 Mulliken charges:
               1
     1  C    0.596289
     2  C    0.226745
     3  C    0.805272
     4  C   -0.316664
     5  H   -0.458359
     6  S    0.469885
     7  H   -0.343846
     8  C    0.134521
     9  S    0.443427
    10  C   -0.736936
    11  C   -0.006317
    12  C    0.150795
    13  H   -0.455515
    14  S    0.588058
    15  C   -0.110424
    16  C    0.451700
    17  H   -0.377984
    18  H   -0.320006
    19  O   -0.911432
    20  H    0.170791
 Sum of Mulliken charges =  -0.00000

 Dipole moment (field-independent basis, Debye):
    X=              2.2047    Y=              1.1399    Z=              0.6607  Tot=              2.5684
 Quadrupole moment (field-independent basis, Debye-Ang):
   XX=            -77.6917   YY=            -97.0826   ZZ=           -108.2238
   XY=             10.3955   XZ=              1.0692   YZ=              0.9089

 Normal termination of Gaussian 16 at Mon Oct 25 22:27:31 2021.
