 Gaussian 16, Revision C.01,
 Gaussian 16:  ES64L-G16RevC.01  3-Jul-2019

 ---------------------------------
 # opt=modredundant hf/aug-cc-pvdz
 ---------------------------------

 -------------
 pBTTT_155.pdb
 -------------
 Symbolic Z-matrix:
 Charge =  0 Multiplicity = 1

 SCF Done:  E(RHF) =  -1649.50754562     A.U. after   18 cycles
 SCF Done:  E(RHF) =  -1649.57629514     A.U. after   16 cycles
 SCF Done:  E(RHF) =  -1649.62587949     A.U. after   16 cycles
 SCF Done:  E(RHF) =  -1649.63753751     A.U. after   15 cycles
 SCF Done:  E(RHF) =  -1649.64099172     A.U. after   16 cycles
 SCF Done:  E(RHF) =  -1649.64203450     A.U. after   15 cycles
 SCF Done:  E(RHF) =  -1649.64220951     A.U. after   15 cycles
 SCF Done:  E(RHF) =  -1649.64255826     A.U. after   14 cycles
 SCF Done:  E(RHF) =  -1649.64254486     A.U. after   14 cycles
 SCF Done:  E(RHF) =  -1649.64260156     A.U. after   13 cycles
 SCF Done:  E(RHF) =  -1649.64260516     A.U. after   11 cycles
 SCF Done:  E(RHF) =  -1649.64260693     A.U. after   10 cycles
 SCF Done:  E(RHF) =  -1649.64260697     A.U. after    9 cycles
 Optimization completed.
    -- Stationary point found.

                         Standard orientation:
 ---------------------------------------------------------------------
 Center     Atomic      Atomic             Coordinates (Angstroms)
 Number     Number       Type             X           Y           Z
 ---------------------------------------------------------------------
      1          6           0       -3.934015    0.852076    0.097841
      2          6           0       -2.527928    1.127503    0.184854
      3          6           0       -1.741110    0.042448   -0.026778
      4          6           0       -4.184350   -0.442977   -0.180955
      5          1           0       -4.700062    1.599700    0.240965
      6         16           0       -2.736455   -1.357203   -0.362286
      7          1           0       -5.144854   -0.914323   -0.299106
      8          6           0       -0.279163   -0.031239   -0.008581
      9         16           0        0.530624   -1.556437    0.344503
     10          6           0        2.086102   -0.806602    0.162651
     11          6           0        1.957643    0.518996   -0.129163
     12          6           0        0.603576    0.972810   -0.232504
     13          1           0        0.307827    1.980482   -0.464381
     14         16           0        3.513394    1.272375   -0.304606
     15          6           0        4.307158   -0.245970    0.025844
     16          6           0        3.444296   -1.258286    0.253974
     17          1           0        5.382815   -0.294191    0.030316
     18          1           0        3.748033   -2.268526    0.475004
     19          8           0       -2.025142    2.355275    0.445760
     20          1           0       -2.706881    2.942340    0.726246
 ---------------------------------------------------------------------

 The electronic state is 1-A.
 Alpha  occ. eigenvalues --  -91.99151 -91.98571 -91.98529 -20.61402 -11.31837
 Alpha  occ. eigenvalues --  -11.28709 -11.28451 -11.27448 -11.27285 -11.26805
 Alpha  occ. eigenvalues --  -11.26646 -11.25685 -11.25409 -11.24837  -8.99369
 Alpha  occ. eigenvalues --   -8.98754  -8.98722  -6.67539  -6.67447  -6.67245
 Alpha  occ. eigenvalues --   -6.66921  -6.66890  -6.66843  -6.66810  -6.66637
 Alpha  occ. eigenvalues --   -6.66597  -1.43331  -1.21284  -1.18626  -1.12584
 Alpha  occ. eigenvalues --   -1.03097  -1.02016  -0.98902  -0.95516  -0.94246
 Alpha  occ. eigenvalues --   -0.82816  -0.81452  -0.76964  -0.75189  -0.72296
 Alpha  occ. eigenvalues --   -0.69883  -0.67013  -0.66242  -0.62261  -0.61458
 Alpha  occ. eigenvalues --   -0.58412  -0.56316  -0.56007  -0.54209  -0.53134
 Alpha  occ. eigenvalues --   -0.52078  -0.51268  -0.49556  -0.48329  -0.46673
 Alpha  occ. eigenvalues --   -0.45634  -0.38843  -0.35861  -0.34065  -0.31830
 Alpha  occ. eigenvalues --   -0.27514
 Alpha virt. eigenvalues --    0.02678   0.03743   0.03859   0.05108   0.05137
 Alpha virt. eigenvalues --    0.06514   0.07149   0.08289   0.08738   0.09513
 Alpha virt. eigenvalues --    0.10342   0.10506   0.10772   0.11054   0.11583

 Mulliken charges:
               1
     1  C    0.618855
     2  C    0.208072
     3  C    0.784254
     4  C   -0.329899
     5  H   -0.470338
     6  S    0.498099
     7  H   -0.355583
     8  C    0.066295
     9  S    0.467641
    10  C   -0.679782
    11  C    0.028243
    12  C    0.289982
    13  H   -0.474168
    14  S    0.543384
    15  C   -0.146754
    16  C    0.394622
    17  H   -0.378620
    18  H   -0.320983
    19  O   -0.926593
    20  H    0.183273
 Sum of Mulliken charges =   0.00000

 Dipole moment (field-independent basis, Debye):
    X=             -2.2815    Y=              1.2284    Z=              0.4575  Tot=              2.6313
 Quadrupole moment (field-independent basis, Debye-Ang):
   XX=            -77.5529   YY=            -95.6871   ZZ=           -109.5755
   XY=            -10.9789   XZ=             -0.8413   YZ=              0.8918

 1\1\GINC-CX3-2-1\FOpt\RHF\Aug-CC-pVDZ\C10H6O1S3\NS5018\25-Oct-2021\0\\
 # opt=modredundant hf/aug-cc-pvdz\\pBTTT_155.pdb\\0,1\C,-4.1081219924,
 -1.1955855685,-0.0930648221\C,-2.7853081197,-0.9947205967,-0.612996445
 6\C,-2.0398833009,-2.1270317834,-0.6715590058\C,-4.3389346918,-2.48349
 91473,0.2318359956\H,-4.8318940579,-0.4026081887,0.0235348631\S,-2.978
 4675161,-3.4870155893,-0.0955356023\H,-5.241092828,-2.904884564,0.6407
 846778\C,-0.6618342659,-2.2786003509,-1.141726868\S,0.3354525489,-3.61
 04061981,-0.5600354398\C,1.6676987606,-3.0790627507,-1.5386214053\C,1.

 Normal termination of Gaussian 16 at Mon Oct 25 23:33:54 2021.
