 Gaussian 16, Revision C.01,
 Gaussian 16:  ES64L-G16RevC.01  3-Jul-2019

 ---------------------------------
 # opt=modredundant hf/aug-cc-pvdz
 ---------------------------------

 --------------
 pBTTT_-160.pdb
 --------------
 Symbolic Z-matrix:
 Charge =  0 Multiplicity = 1

 SCF Done:  E(RHF) =  -1649.50820350     A.U. after   18 cycles
 SCF Done:  E(RHF) =  -1649.57660717     A.U. after   16 cycles
 SCF Done:  E(RHF) =  -1649.62593231     A.U. after   16 cycles
 SCF Done:  E(RHF) =  -1649.63757460     A.U. after   15 cycles
 SCF Done:  E(RHF) =  -1649.64094096     A.U. after   15 cycles
 SCF Done:  E(RHF) =  -1649.64184695     A.U. after   15 cycles
 SCF Done:  E(RHF) =  -1649.64217406     A.U. after   15 cycles
 SCF Done:  E(RHF) =  -1649.64247058     A.U. after   14 cycles
 SCF Done:  E(RHF) =  -1649.64248084     A.U. after   14 cycles
 SCF Done:  E(RHF) =  -1649.64253579     A.U. after   13 cycles
 SCF Done:  E(RHF) =  -1649.64253838     A.U. after   11 cycles
 SCF Done:  E(RHF) =  -1649.64253985     A.U. after   10 cycles
 Optimization completed.
    -- Stationary point found.

                         Standard orientation:
 ---------------------------------------------------------------------
 Center     Atomic      Atomic             Coordinates (Angstroms)
 Number     Number       Type             X           Y           Z
 ---------------------------------------------------------------------
      1          6           0        3.934359    0.858047    0.076731
      2          6           0        2.528343    1.136163    0.150519
      3          6           0        1.741133    0.043314   -0.018088
      4          6           0        4.185627   -0.446828   -0.150480
      5          1           0        4.699829    1.611199    0.191017
      6         16           0        2.738236   -1.367952   -0.295670
      7          1           0        5.146209   -0.922452   -0.248838
      8          6           0        0.279165   -0.029854   -0.002385
      9         16           0       -0.531037   -1.569291    0.282945
     10          6           0       -2.086784   -0.813444    0.131876
     11          6           0       -1.958444    0.523052   -0.104188
     12          6           0       -0.604806    0.982248   -0.185697
     13          1           0       -0.310703    1.999060   -0.374032
     14         16           0       -3.514467    1.282528   -0.248559
     15          6           0       -4.307887   -0.248641    0.017529
     16          6           0       -3.444664   -1.269220    0.203871
     17          1           0       -5.383521   -0.297404    0.019367
     18          1           0       -3.748028   -2.287951    0.382337
     19          8           0        2.025638    2.373377    0.362298
     20          1           0        2.711144    2.976952    0.594205
 ---------------------------------------------------------------------

 The electronic state is 1-A.
 Alpha  occ. eigenvalues --  -91.99164 -91.98560 -91.98522 -20.61475 -11.31862
 Alpha  occ. eigenvalues --  -11.28753 -11.28469 -11.27494 -11.27273 -11.26793
 Alpha  occ. eigenvalues --  -11.26634 -11.25707 -11.25404 -11.24785  -8.99385
 Alpha  occ. eigenvalues --   -8.98743  -8.98719  -6.67555  -6.67464  -6.67261
 Alpha  occ. eigenvalues --   -6.66909  -6.66888  -6.66832  -6.66808  -6.66626
 Alpha  occ. eigenvalues --   -6.66594  -1.43405  -1.21279  -1.18647  -1.12578
 Alpha  occ. eigenvalues --   -1.03114  -1.02013  -0.98931  -0.95512  -0.94239
 Alpha  occ. eigenvalues --   -0.82834  -0.81514  -0.76957  -0.75219  -0.72290
 Alpha  occ. eigenvalues --   -0.69921  -0.67055  -0.66196  -0.62263  -0.61516
 Alpha  occ. eigenvalues --   -0.58435  -0.56304  -0.56030  -0.54230  -0.53160
 Alpha  occ. eigenvalues --   -0.52007  -0.51360  -0.49583  -0.48282  -0.46732
 Alpha  occ. eigenvalues --   -0.45595  -0.38888  -0.35932  -0.34105  -0.31818
 Alpha  occ. eigenvalues --   -0.27389
 Alpha virt. eigenvalues --    0.02662   0.03739   0.03850   0.05108   0.05135
 Alpha virt. eigenvalues --    0.06587   0.07057   0.08302   0.08784   0.09557
 Alpha virt. eigenvalues --    0.10398   0.10511   0.10807   0.11053   0.11671

 Mulliken charges:
               1
     1  C    0.629216
     2  C    0.213791
     3  C    0.767388
     4  C   -0.331496
     5  H   -0.475187
     6  S    0.502376
     7  H   -0.361310
     8  C    0.035769
     9  S    0.477242
    10  C   -0.667907
    11  C    0.040164
    12  C    0.353521
    13  H   -0.480636
    14  S    0.525084
    15  C   -0.159430
    16  C    0.382025
    17  H   -0.379169
    18  H   -0.321877
    19  O   -0.939572
    20  H    0.190009
 Sum of Mulliken charges =  -0.00000

 Dipole moment (field-independent basis, Debye):
    X=              2.3098    Y=              1.2591    Z=              0.3702  Tot=              2.6566
 Quadrupole moment (field-independent basis, Debye-Ang):
   XX=            -77.4907   YY=            -95.2807   ZZ=           -109.9626
   XY=             11.1558   XZ=              0.6963   YZ=              0.7842

 Normal termination of Gaussian 16 at Mon Oct 25 21:41:19 2021.
