 Gaussian 16, Revision C.01,
 Gaussian 16:  ES64L-G16RevC.01  3-Jul-2019

 ---------------------------------
 # opt=modredundant hf/aug-cc-pvdz
 ---------------------------------

 -------------
 pBTTT_110.pdb
 -------------
 Symbolic Z-matrix:
 Charge =  0 Multiplicity = 1

 SCF Done:  E(RHF) =  -1649.50499237     A.U. after   18 cycles
 SCF Done:  E(RHF) =  -1649.57444055     A.U. after   15 cycles
 SCF Done:  E(RHF) =  -1649.62516802     A.U. after   16 cycles
 SCF Done:  E(RHF) =  -1649.63678186     A.U. after   15 cycles
 SCF Done:  E(RHF) =  -1649.64016330     A.U. after   15 cycles
 SCF Done:  E(RHF) =  -1649.64110769     A.U. after   14 cycles
 SCF Done:  E(RHF) =  -1649.64133734     A.U. after   14 cycles
 SCF Done:  E(RHF) =  -1649.64163514     A.U. after   13 cycles
 SCF Done:  E(RHF) =  -1649.64162906     A.U. after   13 cycles
 SCF Done:  E(RHF) =  -1649.64169224     A.U. after   12 cycles
 SCF Done:  E(RHF) =  -1649.64169377     A.U. after   11 cycles
 SCF Done:  E(RHF) =  -1649.64169620     A.U. after   10 cycles
 SCF Done:  E(RHF) =  -1649.64169629     A.U. after    9 cycles
 Optimization completed.
    -- Stationary point found.

                         Standard orientation:
 ---------------------------------------------------------------------
 Center     Atomic      Atomic             Coordinates (Angstroms)
 Number     Number       Type             X           Y           Z
 ---------------------------------------------------------------------
      1          6           0       -3.946120    0.731918    0.263630
      2          6           0       -2.543163    0.964892    0.478070
      3          6           0       -1.743978    0.034650   -0.094343
      4          6           0       -4.171740   -0.382763   -0.460983
      5          1           0       -4.726029    1.375336    0.643350
      6         16           0       -2.709982   -1.172228   -0.913542
      7          1           0       -5.125151   -0.783152   -0.761205
      8          6           0       -0.275973   -0.039867   -0.051781
      9         16           0        0.528549   -1.306920    0.867976
     10          6           0        2.084117   -0.672762    0.430587
     11          6           0        1.959240    0.437131   -0.352853
     12          6           0        0.602984    0.802829   -0.636627
     13          1           0        0.300052    1.643197   -1.238949
     14         16           0        3.515623    1.072870   -0.791689
     15          6           0        4.306472   -0.195614    0.107214
     16          6           0        3.443480   -1.046511    0.700188
     17          1           0        5.382145   -0.231837    0.141215
     18          1           0        3.746671   -1.891147    1.297069
     19          8           0       -2.057536    2.010974    1.179087
     20          1           0       -2.756348    2.496853    1.583300
 ---------------------------------------------------------------------

 The electronic state is 1-A.
 Alpha  occ. eigenvalues --  -91.98959 -91.98650 -91.98456 -20.60961 -11.31796
 Alpha  occ. eigenvalues --  -11.28387 -11.28371 -11.27420 -11.26920 -11.26859
 Alpha  occ. eigenvalues --  -11.26704 -11.25484 -11.25434 -11.25275  -8.99152
 Alpha  occ. eigenvalues --   -8.98834  -8.98621  -6.67319  -6.67226  -6.67028
 Alpha  occ. eigenvalues --   -6.67001  -6.66923  -6.66785  -6.66716  -6.66703
 Alpha  occ. eigenvalues --   -6.66495  -1.42975  -1.21273  -1.18406  -1.12582
 Alpha  occ. eigenvalues --   -1.02870  -1.01993  -0.98621  -0.95618  -0.94241
 Alpha  occ. eigenvalues --   -0.82572  -0.81125  -0.77020  -0.74971  -0.72254
 Alpha  occ. eigenvalues --   -0.69674  -0.66792  -0.66480  -0.62127  -0.61044
 Alpha  occ. eigenvalues --   -0.58311  -0.56329  -0.56027  -0.53829  -0.53149
 Alpha  occ. eigenvalues --   -0.52700  -0.50653  -0.49296  -0.48613  -0.46014
 Alpha  occ. eigenvalues --   -0.45820  -0.38405  -0.35001  -0.32982  -0.31712
 Alpha  occ. eigenvalues --   -0.29514
 Alpha virt. eigenvalues --    0.02760   0.03716   0.03962   0.04966   0.05093
 Alpha virt. eigenvalues --    0.06233   0.08075   0.08328   0.08637   0.09041
 Alpha virt. eigenvalues --    0.09948   0.10254   0.10444   0.10939   0.11355

 Mulliken charges:
               1
     1  C    0.653014
     2  C    0.291037
     3  C    0.671339
     4  C   -0.334309
     5  H   -0.452228
     6  S    0.398680
     7  H   -0.336104
     8  C    0.355864
     9  S    0.394746
    10  C   -0.814722
    11  C   -0.166286
    12  C    0.088774
    13  H   -0.424185
    14  S    0.635731
    15  C   -0.088208
    16  C    0.595151
    17  H   -0.376952
    18  H   -0.325127
    19  O   -0.926756
    20  H    0.160542
 Sum of Mulliken charges =  -0.00000

 Dipole moment (field-independent basis, Debye):
    X=             -2.1399    Y=              1.0411    Z=              0.7424  Tot=              2.4928
 Quadrupole moment (field-independent basis, Debye-Ang):
   XX=            -77.4052   YY=           -100.1418   ZZ=           -105.3198
   XY=             -9.3381   XZ=             -0.7126   YZ=              0.2449

 1\1\GINC-CX3-6-4\FOpt\RHF\Aug-CC-pVDZ\C10H6O1S3\NS5018\25-Oct-2021\0\\
 # opt=modredundant hf/aug-cc-pvdz\\pBTTT_110.pdb\\0,1\C,-4.1077076517,
 -1.1677573559,-0.1883265212\C,-2.7444475981,-1.0325053659,-0.626250542
 4\C,-2.0548113982,-2.1970229539,-0.6242004833\C,-4.4108324467,-2.43845
 37049,0.1462305414\H,-4.8042103601,-0.3442709902,-0.1318880121\S,-3.07
 5319938,-3.5041986271,-0.0668293969\H,-5.3559380799,-2.8106278704,0.50
 35815124\C,-0.6463627087,-2.4096399365,-0.9895322932\S,0.5452594941,-2
 .813959906,0.241399496\C,1.8055132525,-2.8457017688,-0.9519196191\C,1.

 Normal termination of Gaussian 16 at Mon Oct 25 23:32:37 2021.
