 Gaussian 16, Revision C.01,
 Gaussian 16:  ES64L-G16RevC.01  3-Jul-2019

 -------------------------------------
 # opt=modredundant b3lyp/6-311+g(d,p)
 -------------------------------------

 -----------
 NDI_100.pdb
 -----------
 Symbolic Z-matrix:
 Charge = -2 Multiplicity = 1

 SCF Done:  E(RB3LYP) =  -2359.36965740     A.U. after   25 cycles
 SCF Done:  E(RB3LYP) =  -2359.38673911     A.U. after   16 cycles
 SCF Done:  E(RB3LYP) =  -2359.38967242     A.U. after   16 cycles
 SCF Done:  E(RB3LYP) =  -2359.38988043     A.U. after   15 cycles
 SCF Done:  E(RB3LYP) =  -2359.39005249     A.U. after   15 cycles
 SCF Done:  E(RB3LYP) =  -2359.39016225     A.U. after   13 cycles
 SCF Done:  E(RB3LYP) =  -2359.39019267     A.U. after   14 cycles
 SCF Done:  E(RB3LYP) =  -2359.39021404     A.U. after   14 cycles
 SCF Done:  E(RB3LYP) =  -2359.39023666     A.U. after   14 cycles
 SCF Done:  E(RB3LYP) =  -2359.39032829     A.U. after   15 cycles
 SCF Done:  E(RB3LYP) =  -2359.39565312     A.U. after   15 cycles
 SCF Done:  E(RB3LYP) =  -2359.39565503     A.U. after   13 cycles
 SCF Done:  E(RB3LYP) =  -2359.39565576     A.U. after   12 cycles
 SCF Done:  E(RB3LYP) =  -2359.39565601     A.U. after   10 cycles
 SCF Done:  E(RB3LYP) =  -2359.39565617     A.U. after   10 cycles
 SCF Done:  E(RB3LYP) =  -2359.39565637     A.U. after   11 cycles
 SCF Done:  E(RB3LYP) =  -2359.39565652     A.U. after   11 cycles
 SCF Done:  E(RB3LYP) =  -2359.39565660     A.U. after   11 cycles
 SCF Done:  E(RB3LYP) =  -2359.39565664     A.U. after    9 cycles
 SCF Done:  E(RB3LYP) =  -2359.39565665     A.U. after   10 cycles
 Optimization completed.
    -- Stationary point found.

                         Standard orientation:
 ---------------------------------------------------------------------
 Center     Atomic      Atomic             Coordinates (Angstroms)
 Number     Number       Type             X           Y           Z
 ---------------------------------------------------------------------
      1          6           0        3.591560   -2.710899    0.107310
      2          6           0        2.827327   -1.498642    0.037969
      3          6           0        3.471923   -0.235605    0.123777
      4          6           0        4.876213   -0.139592    0.282308
      5          6           0        5.682714   -1.328471    0.364022
      6          6           0        1.412751   -1.562994   -0.111060
      7          6           0        2.673206    0.969968    0.034836
      8          6           0        1.256388    0.879494   -0.129217
      9          6           0        0.634581   -0.436193   -0.178484
     10          6           0        0.492571    2.083645   -0.276426
     11          6           0        2.595477    3.449041   -0.012017
     12          6           0        3.335953    2.223682    0.097693
     13          6           0        4.758744    2.283769    0.260987
     14          6           0        5.503227    1.146173    0.352433
     15          1           0        6.579478    1.176134    0.474064
     16          1           0        5.212349    3.266773    0.304980
     17          1           0        0.957792   -2.545610   -0.148526
     18          7           0        1.205486    3.301314   -0.198142
     19          7           0        4.985383   -2.555571    0.271575
     20          8           0        3.127018   -3.870114    0.034512
     21          8           0        6.925571   -1.335786    0.505281
     22          8           0        3.096754    4.595029    0.039045
     23          8           0       -0.745748    2.155131   -0.470984
     24          6           0        0.405250    4.512395   -0.336070
     25          1           0       -0.101663    4.524465   -1.305095
     26          1           0       -0.368459    4.544336    0.435616
     27          1           0        1.081359    5.358838   -0.243122
     28          6           0        5.757727   -3.789374    0.346800
     29          1           0        5.403656   -4.406187    1.177337
     30          1           0        5.628867   -4.374009   -0.568643
     31          1           0        6.800338   -3.513205    0.484770
     32          6           0       -0.823084   -0.619673   -0.332394
     33          6           0       -1.516970   -0.925141   -1.475522
     34         16           0       -1.924255   -0.475606    1.017660
     35          6           0       -2.926839   -0.984284   -1.288080
     36          1           0       -1.011925   -1.032142   -2.424143
     37          6           0       -3.337262   -0.738025    0.003206
     38          8           0       -3.858581   -1.208817   -2.274748
     39          6           0       -4.691568   -0.629538    0.523559
     40          6           0       -3.367116   -1.375086   -3.592463
     41          6           0       -5.424952    0.479842    0.900111
     42         16           0       -5.631942   -2.090002    0.876144
     43          1           0       -4.242975   -1.532640   -4.224118
     44          1           0       -2.826251   -0.486012   -3.936763
     45          1           0       -2.704778   -2.245554   -3.669572
     46          6           0       -6.704241    0.165040    1.463596
     47          8           0       -5.098808    1.796435    0.813236
     48          6           0       -6.955249   -1.173251    1.511568
     49          1           0       -7.389413    0.934698    1.795068
     50          6           0       -4.115302    2.232406   -0.149151
     51          1           0       -7.848286   -1.668041    1.863799
     52          1           0       -4.326892    1.793495   -1.127618
     53          1           0       -4.233239    3.315449   -0.195833
     54          1           0       -3.094725    1.991596    0.146404
 ---------------------------------------------------------------------

 The electronic state is 1-A.
 Alpha  occ. eigenvalues --  -88.72683 -88.68964 -19.00150 -18.99806 -18.86221
 Alpha  occ. eigenvalues --  -18.85983 -18.85981 -18.85938 -14.14218 -14.14188
 Alpha  occ. eigenvalues --  -10.08644 -10.08327 -10.06698 -10.06101 -10.05472
 Alpha  occ. eigenvalues --  -10.05182 -10.04703 -10.04518 -10.04456 -10.04400
 Alpha  occ. eigenvalues --  -10.03607 -10.02917 -10.02556  -9.99819  -9.99707
 Alpha  occ. eigenvalues --   -9.99380  -9.97648  -9.97450  -9.97400  -9.95703
 Alpha  occ. eigenvalues --   -9.95612  -9.94848  -9.94821  -9.94763  -9.94752
 Alpha  occ. eigenvalues --   -9.94683  -7.81281  -7.77568  -5.77580  -5.77212
 Alpha  occ. eigenvalues --   -5.76856  -5.73877  -5.73500  -5.73125  -0.91406
 Alpha  occ. eigenvalues --   -0.90831  -0.81967  -0.81914  -0.79454  -0.79349
 Alpha  occ. eigenvalues --   -0.73426  -0.70768  -0.70690  -0.70281  -0.65859
 Alpha  occ. eigenvalues --   -0.62020  -0.60009  -0.59633  -0.58761  -0.58484
 Alpha  occ. eigenvalues --   -0.55382  -0.54213  -0.53063  -0.52430  -0.51735
 Alpha  occ. eigenvalues --   -0.50482  -0.49156  -0.46967  -0.43958  -0.42590
 Alpha  occ. eigenvalues --   -0.41751  -0.41596  -0.40473  -0.39378  -0.39007
 Alpha  occ. eigenvalues --   -0.37939  -0.37017  -0.33416  -0.33141  -0.32629
 Alpha  occ. eigenvalues --   -0.32455  -0.31168  -0.30992  -0.30475  -0.29970
 Alpha  occ. eigenvalues --   -0.29390  -0.28823  -0.26778  -0.26328  -0.26171
 Alpha  occ. eigenvalues --   -0.25785  -0.25380  -0.24833  -0.24419  -0.24212
 Alpha  occ. eigenvalues --   -0.24081  -0.22901  -0.22556  -0.22184  -0.21320
 Alpha  occ. eigenvalues --   -0.20959  -0.20874  -0.20276  -0.20065  -0.19858
 Alpha  occ. eigenvalues --   -0.19369  -0.18601  -0.18479  -0.18418  -0.17893
 Alpha  occ. eigenvalues --   -0.17431  -0.17107  -0.16763  -0.16447  -0.16246
 Alpha  occ. eigenvalues --   -0.15717  -0.15174  -0.14333  -0.14147  -0.11421
 Alpha  occ. eigenvalues --   -0.10133  -0.09679  -0.07191  -0.06764  -0.06089
 Alpha  occ. eigenvalues --   -0.05956  -0.05437  -0.05271  -0.04673  -0.04340
 Alpha  occ. eigenvalues --   -0.03644  -0.03262  -0.02431  -0.00212   0.07391
 Alpha virt. eigenvalues --    0.11894   0.12225   0.13200   0.13763   0.14928
 Alpha virt. eigenvalues --    0.15358   0.16172   0.16412   0.16922   0.17250
 Alpha virt. eigenvalues --    0.17372   0.17541   0.17886   0.18237   0.18353

 Mulliken charges:
               1
     1  C    0.329012
     2  C   -0.057494
     3  C    0.078398
     4  C    0.234826
     5  C    0.190952
     6  C   -0.712124
     7  C    0.181392
     8  C   -0.069760
     9  C    0.459253
    10  C   -0.183308
    11  C    0.096691
    12  C    0.319847
    13  C   -0.631812
    14  C   -0.638395
    15  H    0.101765
    16  H    0.103114
    17  H    0.108779
    18  N   -0.153846
    19  N   -0.134808
    20  O   -0.439586
    21  O   -0.428587
    22  O   -0.425921
    23  O   -0.331668
    24  C   -0.203561
    25  H    0.131760
    26  H    0.136415
    27  H    0.159412
    28  C   -0.184490
    29  H    0.132106
    30  H    0.129485
    31  H    0.156088
    32  C    0.418048
    33  C   -0.528428
    34  S    0.024006
    35  C   -0.813010
    36  H    0.099441
    37  C    0.277206
    38  O   -0.123200
    39  C    0.275513
    40  C   -0.229284
    41  C   -0.019471
    42  S   -0.156614
    43  H    0.127319
    44  H    0.148730
    45  H    0.140510
    46  C   -0.156814
    47  O   -0.196297
    48  C   -0.191683
    49  H    0.105351
    50  C   -0.284784
    51  H    0.128040
    52  H    0.134728
    53  H    0.127759
    54  H    0.238998
 Sum of Mulliken charges =  -2.00000

 Dipole moment (field-independent basis, Debye):
    X=            -19.3960    Y=             -1.7798    Z=             -3.1116  Tot=             19.7245
 Quadrupole moment (field-independent basis, Debye-Ang):
   XX=           -424.3872   YY=           -317.8288   ZZ=           -229.6737
   XY=             -0.9277   XZ=             -1.8587   YZ=              2.2424

 Normal termination of Gaussian 16 at Fri Oct  8 15:55:31 2021.
