 Gaussian 16, Revision C.01,
 Gaussian 16:  ES64L-G16RevC.01  3-Jul-2019

 -------------------------------------
 # opt=modredundant b3lyp/6-311+g(d,p)
 -------------------------------------

 ----------
 NDI_60.pdb
 ----------
 Symbolic Z-matrix:
 Charge = -2 Multiplicity = 1

 SCF Done:  E(RB3LYP) =  -2359.37367889     A.U. after   24 cycles
 SCF Done:  E(RB3LYP) =  -2359.39086719     A.U. after   17 cycles
 SCF Done:  E(RB3LYP) =  -2359.39452490     A.U. after   18 cycles
 SCF Done:  E(RB3LYP) =  -2359.39489277     A.U. after   14 cycles
 SCF Done:  E(RB3LYP) =  -2359.39499952     A.U. after   14 cycles
 SCF Done:  E(RB3LYP) =  -2359.39518472     A.U. after   13 cycles
 SCF Done:  E(RB3LYP) =  -2359.39527700     A.U. after   14 cycles
 SCF Done:  E(RB3LYP) =  -2359.39533177     A.U. after   14 cycles
 SCF Done:  E(RB3LYP) =  -2359.39535434     A.U. after   13 cycles
 SCF Done:  E(RB3LYP) =  -2359.39538950     A.U. after   13 cycles
 SCF Done:  E(RB3LYP) =  -2359.39868931     A.U. after   13 cycles
 SCF Done:  E(RB3LYP) =  -2359.39869574     A.U. after   13 cycles
 SCF Done:  E(RB3LYP) =  -2359.39869634     A.U. after   11 cycles
 SCF Done:  E(RB3LYP) =  -2359.39869663     A.U. after   12 cycles
 SCF Done:  E(RB3LYP) =  -2359.39869671     A.U. after   10 cycles
 SCF Done:  E(RB3LYP) =  -2359.39869674     A.U. after   10 cycles
 SCF Done:  E(RB3LYP) =  -2359.39869675     A.U. after    9 cycles
 SCF Done:  E(RB3LYP) =  -2359.39869678     A.U. after    9 cycles
 SCF Done:  E(RB3LYP) =  -2359.39869679     A.U. after    9 cycles
 SCF Done:  E(RB3LYP) =  -2359.39869680     A.U. after    9 cycles
 Optimization completed.
    -- Stationary point found.

                         Standard orientation:
 ---------------------------------------------------------------------
 Center     Atomic      Atomic             Coordinates (Angstroms)
 Number     Number       Type             X           Y           Z
 ---------------------------------------------------------------------
      1          6           0       -2.655833   -2.920155    0.449521
      2          6           0       -2.307321   -1.540485    0.235367
      3          6           0       -3.322009   -0.558705    0.061786
      4          6           0       -4.689706   -0.913762    0.079631
      5          6           0       -5.085731   -2.286279    0.283737
      6          6           0       -0.946041   -1.158694    0.222286
      7          6           0       -2.931364    0.819969   -0.140420
      8          6           0       -1.548390    1.184027   -0.148988
      9          6           0       -0.540606    0.154769    0.085930
     10          6           0       -1.196062    2.550845   -0.417748
     11          6           0       -3.639302    3.159889   -0.581166
     12          6           0       -3.960120    1.778319   -0.342308
     13          6           0       -5.334991    1.385583   -0.319805
     14          6           0       -5.693702    0.086349   -0.112107
     15          1           0       -6.730869   -0.225614   -0.093213
     16          1           0       -6.074200    2.161876   -0.477622
     17          1           0       -0.215019   -1.938372    0.394607
     18          7           0       -2.266562    3.458777   -0.621888
     19          7           0       -4.035801   -3.216259    0.455776
     20          8           0       -1.847185   -3.854097    0.624229
     21          8           0       -6.269282   -2.681065    0.315802
     22          8           0       -4.482762    4.066912   -0.754782
     23          8           0       -0.038400    3.014717   -0.496393
     24          6           0       -1.876708    4.836733   -0.898364
     25          1           0       -1.323719    5.254863   -0.051998
     26          1           0       -1.214114    4.871528   -1.766295
     27          1           0       -2.788064    5.402394   -1.075950
     28          6           0       -4.385580   -4.615991    0.666719
     29          1           0       -3.922956   -5.239510   -0.102771
     30          1           0       -4.008029   -4.959530    1.633893
     31          1           0       -5.469457   -4.691343    0.627965
     32          6           0        0.898576    0.413552    0.177796
     33          6           0        1.600073    1.214369    1.058227
     34         16           0        2.014234   -0.584676   -0.738061
     35          6           0        2.993170    1.035043    0.998594
     36          1           0        1.096998    1.922721    1.696787
     37          6           0        3.433362    0.071876    0.091923
     38          8           0        3.916219    1.701315    1.768334
     39          6           0        4.773236   -0.348795   -0.183841
     40          6           0        3.449427    2.820237    2.504513
     41          6           0        5.223351   -1.402149   -0.977228
     42         16           0        6.188730    0.501874    0.462434
     43          1           0        4.334531    3.285833    2.941205
     44          1           0        2.934321    3.535123    1.854596
     45          1           0        2.768790    2.514411    3.307921
     46          6           0        6.635216   -1.513850   -1.079239
     47          8           0        4.372471   -2.249270   -1.659722
     48          6           0        7.301284   -0.561646   -0.361617
     49          1           0        7.114909   -2.280031   -1.676438
     50          6           0        3.994327   -3.421366   -0.933445
     51          1           0        8.365242   -0.416206   -0.254498
     52          1           0        3.504240   -3.161424    0.009047
     53          1           0        3.287039   -3.963226   -1.562273
     54          1           0        4.869631   -4.052462   -0.730410
 ---------------------------------------------------------------------

 The electronic state is 1-A.
 Alpha  occ. eigenvalues --  -88.71701 -88.68648 -18.99795 -18.98783 -18.87279
 Alpha  occ. eigenvalues --  -18.86963 -18.86549 -18.86074 -14.15057 -14.14504
 Alpha  occ. eigenvalues --  -10.07658 -10.06827 -10.06279 -10.06179 -10.05737
 Alpha  occ. eigenvalues --  -10.05405 -10.05387 -10.05022 -10.04834 -10.04134
 Alpha  occ. eigenvalues --  -10.02661 -10.02385 -10.02357 -10.00523  -9.99967
 Alpha  occ. eigenvalues --   -9.98549  -9.98219  -9.98108  -9.98090  -9.96492
 Alpha  occ. eigenvalues --   -9.96026  -9.95800  -9.95631  -9.95483  -9.95441
 Alpha  occ. eigenvalues --   -9.95376  -7.80252  -7.77212  -5.76566  -5.76193
 Alpha  occ. eigenvalues --   -5.75805  -5.73542  -5.73150  -5.72747  -0.91074
 Alpha  occ. eigenvalues --   -0.89987  -0.83021  -0.82391  -0.80574  -0.79867
 Alpha  occ. eigenvalues --   -0.72297  -0.71706  -0.71044  -0.69685  -0.66473
 Alpha  occ. eigenvalues --   -0.62178  -0.59942  -0.59216  -0.58782  -0.57968
 Alpha  occ. eigenvalues --   -0.55219  -0.54341  -0.53019  -0.52717  -0.52277
 Alpha  occ. eigenvalues --   -0.50334  -0.49673  -0.47382  -0.43934  -0.42782
 Alpha  occ. eigenvalues --   -0.42258  -0.41812  -0.40341  -0.39787  -0.38505
 Alpha  occ. eigenvalues --   -0.37205  -0.36764  -0.33962  -0.33637  -0.31893
 Alpha  occ. eigenvalues --   -0.31767  -0.31443  -0.31030  -0.30932  -0.30129
 Alpha  occ. eigenvalues --   -0.29405  -0.28792  -0.27087  -0.27000  -0.26535
 Alpha  occ. eigenvalues --   -0.26293  -0.25678  -0.25102  -0.24710  -0.24668
 Alpha  occ. eigenvalues --   -0.23564  -0.23081  -0.22296  -0.22265  -0.21584
 Alpha  occ. eigenvalues --   -0.20946  -0.20786  -0.20616  -0.20362  -0.20158
 Alpha  occ. eigenvalues --   -0.19448  -0.19179  -0.18971  -0.18722  -0.17979
 Alpha  occ. eigenvalues --   -0.17889  -0.17279  -0.16986  -0.16308  -0.16045
 Alpha  occ. eigenvalues --   -0.15404  -0.14917  -0.14820  -0.12573  -0.12112
 Alpha  occ. eigenvalues --   -0.11333  -0.10050  -0.09176  -0.06777  -0.06635
 Alpha  occ. eigenvalues --   -0.06230  -0.06038  -0.05421  -0.05357  -0.04461
 Alpha  occ. eigenvalues --   -0.04298  -0.03479  -0.01527  -0.00427   0.06805
 Alpha virt. eigenvalues --    0.11809   0.12626   0.13661   0.14206   0.15601
 Alpha virt. eigenvalues --    0.16026   0.16544   0.16837   0.16975   0.17020
 Alpha virt. eigenvalues --    0.17219   0.17808   0.18353   0.18484   0.18779

 Mulliken charges:
               1
     1  C    0.281270
     2  C   -0.111303
     3  C    0.050055
     4  C    0.227113
     5  C    0.124431
     6  C   -0.720640
     7  C    0.212564
     8  C    0.129910
     9  C    0.574871
    10  C   -0.341833
    11  C    0.253196
    12  C    0.151272
    13  C   -0.546742
    14  C   -0.629724
    15  H    0.102640
    16  H    0.105976
    17  H    0.143044
    18  N   -0.147052
    19  N   -0.136951
    20  O   -0.429345
    21  O   -0.413787
    22  O   -0.423543
    23  O   -0.321568
    24  C   -0.187443
    25  H    0.129434
    26  H    0.139997
    27  H    0.158114
    28  C   -0.179675
    29  H    0.134556
    30  H    0.132821
    31  H    0.157387
    32  C   -0.003132
    33  C   -0.318433
    34  S   -0.486439
    35  C   -0.554589
    36  H    0.116978
    37  C    0.458862
    38  O   -0.125772
    39  C    0.475697
    40  C   -0.265620
    41  C    0.126659
    42  S   -0.356126
    43  H    0.129548
    44  H    0.165362
    45  H    0.129038
    46  C   -0.125393
    47  O   -0.135634
    48  C   -0.184047
    49  H    0.094872
    50  C   -0.310164
    51  H    0.121124
    52  H    0.170883
    53  H    0.151005
    54  H    0.106280
 Sum of Mulliken charges =  -2.00000

 Dipole moment (field-independent basis, Debye):
    X=             16.3979    Y=             -0.3738    Z=              2.6023  Tot=             16.6073
 Quadrupole moment (field-independent basis, Debye-Ang):
   XX=           -425.8596   YY=           -308.1978   ZZ=           -237.6430
   XY=              0.5696   XZ=              4.0172   YZ=             16.7640

 Normal termination of Gaussian 16 at Fri Oct  8 13:23:06 2021.
