 Gaussian 16, Revision C.01,
 Gaussian 16:  ES64L-G16RevC.01  3-Jul-2019

 -------------------------------------
 # opt=modredundant b3lyp/6-311+g(d,p)
 -------------------------------------

 -----------
 NDI_160.pdb
 -----------
 Symbolic Z-matrix:
 Charge = -2 Multiplicity = 1

 SCF Done:  E(RB3LYP) =  -2359.34695415     A.U. after   23 cycles
 SCF Done:  E(RB3LYP) =  -2359.37344266     A.U. after   20 cycles
 SCF Done:  E(RB3LYP) =  -2359.38698507     A.U. after   16 cycles
 SCF Done:  E(RB3LYP) =  -2359.39144782     A.U. after   15 cycles
 SCF Done:  E(RB3LYP) =  -2359.39299812     A.U. after   17 cycles
 SCF Done:  E(RB3LYP) =  -2359.39335892     A.U. after   17 cycles
 SCF Done:  E(RB3LYP) =  -2359.39403928     A.U. after   14 cycles
 SCF Done:  E(RB3LYP) =  -2359.39423689     A.U. after   17 cycles
 SCF Done:  E(RB3LYP) =  -2359.39437311     A.U. after   14 cycles
 SCF Done:  E(RB3LYP) =  -2359.39445117     A.U. after   14 cycles
 SCF Done:  E(RB3LYP) =  -2359.39864288     A.U. after   13 cycles
 SCF Done:  E(RB3LYP) =  -2359.39865500     A.U. after   13 cycles
 SCF Done:  E(RB3LYP) =  -2359.39866264     A.U. after   12 cycles
 SCF Done:  E(RB3LYP) =  -2359.39866680     A.U. after   12 cycles
 SCF Done:  E(RB3LYP) =  -2359.39867172     A.U. after   13 cycles
 SCF Done:  E(RB3LYP) =  -2359.39867459     A.U. after   12 cycles
 SCF Done:  E(RB3LYP) =  -2359.39867588     A.U. after   11 cycles
 SCF Done:  E(RB3LYP) =  -2359.39867713     A.U. after   11 cycles
 SCF Done:  E(RB3LYP) =  -2359.39867762     A.U. after   11 cycles
 SCF Done:  E(RB3LYP) =  -2359.39867771     A.U. after   10 cycles
 Optimization completed.
    -- Stationary point found.

                         Standard orientation:
 ---------------------------------------------------------------------
 Center     Atomic      Atomic             Coordinates (Angstroms)
 Number     Number       Type             X           Y           Z
 ---------------------------------------------------------------------
      1          6           0       -3.512355   -2.688692   -0.098189
      2          6           0       -2.782165   -1.456601    0.056757
      3          6           0       -3.437058   -0.202964   -0.108665
      4          6           0       -4.810143   -0.135159   -0.423545
      5          6           0       -5.582338   -1.346145   -0.589101
      6          6           0       -1.395348   -1.497641    0.297243
      7          6           0       -2.666852    1.006951    0.070411
      8          6           0       -1.276901    0.938199    0.398043
      9          6           0       -0.610798   -0.363737    0.443605
     10          6           0       -0.626371    2.145571    0.822044
     11          6           0       -2.664450    3.489131    0.197194
     12          6           0       -3.351286    2.246311   -0.046792
     13          6           0       -4.739361    2.282367   -0.378417
     14          6           0       -5.451929    1.133374   -0.567076
     15          1           0       -6.506766    1.146462   -0.812404
     16          1           0       -5.202334    3.258403   -0.462906
     17          1           0       -0.937580   -2.477574    0.274729
     18          7           0       -1.335492    3.360497    0.627798
     19          7           0       -4.882103   -2.560695   -0.411253
     20          8           0       -3.035130   -3.834413    0.022675
     21          8           0       -6.796486   -1.371739   -0.868673
     22          8           0       -3.179841    4.621115    0.076391
     23          8           0        0.499031    2.225494    1.356848
     24          6           0       -0.614989    4.575586    0.990680
     25          1           0       -0.424790    4.603248    2.068014
     26          1           0        0.354450    4.595559    0.488891
     27          1           0       -1.231453    5.420631    0.693981
     28          6           0       -5.620616   -3.808860   -0.564811
     29          1           0       -5.186167   -4.409146   -1.368779
     30          1           0       -5.557587   -4.399164    0.353100
     31          1           0       -6.652734   -3.552634   -0.790340
     32          6           0        0.827916   -0.596758    0.450897
     33          6           0        1.468715   -1.761548    0.878083
     34         16           0        1.992499    0.454221   -0.330284
     35          6           0        2.839215   -1.799406    0.583661
     36          1           0        0.940288   -2.540288    1.406621
     37          6           0        3.331730   -0.676207   -0.080349
     38          8           0        3.705825   -2.813586    0.923258
     39          6           0        4.685556   -0.370574   -0.427546
     40          6           0        3.159184   -3.936089    1.588317
     41          6           0        5.226303    0.802327   -0.955644
     42         16           0        5.996952   -1.555289   -0.257552
     43          1           0        3.988289   -4.626954    1.750084
     44          1           0        2.724420   -3.657143    2.555679
     45          1           0        2.388581   -4.426163    0.981974
     46          6           0        6.619484    0.749301   -1.224199
     47          8           0        4.473172    1.917830   -1.260685
     48          6           0        7.185927   -0.451883   -0.905037
     49          1           0        7.157940    1.588390   -1.648555
     50          6           0        4.356503    2.874797   -0.201366
     51          1           0        8.214923   -0.762868   -1.000420
     52          1           0        5.346749    3.247267    0.092847
     53          1           0        3.754021    3.695157   -0.592802
     54          1           0        3.843678    2.447779    0.664154
 ---------------------------------------------------------------------

 The electronic state is 1-A.
 Alpha  occ. eigenvalues --  -88.71101 -88.67737 -18.99635 -18.97890 -18.87928
 Alpha  occ. eigenvalues --  -18.87601 -18.86742 -18.86190 -14.15582 -14.14552
 Alpha  occ. eigenvalues --  -10.07795 -10.06370 -10.06003 -10.05718 -10.05671
 Alpha  occ. eigenvalues --  -10.05576 -10.05232 -10.04849 -10.04782 -10.03497
 Alpha  occ. eigenvalues --  -10.02076 -10.02033 -10.01708 -10.00992  -9.99996
 Alpha  occ. eigenvalues --   -9.98447  -9.98408  -9.98369  -9.98188  -9.96975
 Alpha  occ. eigenvalues --   -9.96337  -9.96090  -9.95941  -9.95846  -9.95723
 Alpha  occ. eigenvalues --   -9.95699  -7.79653  -7.76280  -5.75968  -5.75596
 Alpha  occ. eigenvalues --   -5.75204  -5.72615  -5.72215  -5.71804  -0.90924
 Alpha  occ. eigenvalues --   -0.89042  -0.83660  -0.82548  -0.81250  -0.80056
 Alpha  occ. eigenvalues --   -0.72283  -0.71633  -0.71186  -0.69163  -0.66752
 Alpha  occ. eigenvalues --   -0.62277  -0.59888  -0.59296  -0.58142  -0.57579
 Alpha  occ. eigenvalues --   -0.55410  -0.53683  -0.53470  -0.52617  -0.51938
 Alpha  occ. eigenvalues --   -0.50236  -0.49772  -0.47625  -0.43787  -0.42723
 Alpha  occ. eigenvalues --   -0.42387  -0.41785  -0.40457  -0.39665  -0.37860
 Alpha  occ. eigenvalues --   -0.37246  -0.36368  -0.34236  -0.33883  -0.31989
 Alpha  occ. eigenvalues --   -0.31917  -0.31465  -0.30307  -0.29959  -0.29723
 Alpha  occ. eigenvalues --   -0.29130  -0.28118  -0.27586  -0.27309  -0.26653
 Alpha  occ. eigenvalues --   -0.26201  -0.25416  -0.25255  -0.25026  -0.24498
 Alpha  occ. eigenvalues --   -0.23419  -0.23081  -0.22559  -0.21989  -0.21412
 Alpha  occ. eigenvalues --   -0.21255  -0.20923  -0.20875  -0.20359  -0.19829
 Alpha  occ. eigenvalues --   -0.19586  -0.19270  -0.18754  -0.18526  -0.18251
 Alpha  occ. eigenvalues --   -0.17898  -0.17727  -0.16636  -0.16513  -0.16242
 Alpha  occ. eigenvalues --   -0.15307  -0.14854  -0.14501  -0.12513  -0.11740
 Alpha  occ. eigenvalues --   -0.11548  -0.09694  -0.08620  -0.07163  -0.06981
 Alpha  occ. eigenvalues --   -0.06547  -0.06122  -0.05757  -0.05128  -0.04840
 Alpha  occ. eigenvalues --   -0.04634  -0.03313  -0.01738   0.00013   0.06491
 Alpha virt. eigenvalues --    0.12177   0.12948   0.13770   0.14588   0.15758
 Alpha virt. eigenvalues --    0.15944   0.16580   0.16639   0.16860   0.17416
 Alpha virt. eigenvalues --    0.17511   0.18041   0.18658   0.18922   0.19025

 Mulliken charges:
               1
     1  C    0.224741
     2  C   -0.072125
     3  C    0.107981
     4  C    0.239178
     5  C    0.097601
     6  C    0.023214
     7  C    0.123825
     8  C    0.217990
     9  C    0.241544
    10  C   -0.597782
    11  C    0.227822
    12  C    0.102563
    13  C   -0.506423
    14  C   -0.584634
    15  H    0.103101
    16  H    0.107385
    17  H    0.123999
    18  N   -0.040563
    19  N   -0.135798
    20  O   -0.430351
    21  O   -0.406225
    22  O   -0.421786
    23  O   -0.352721
    24  C   -0.157132
    25  H    0.134639
    26  H    0.140540
    27  H    0.156307
    28  C   -0.179518
    29  H    0.135414
    30  H    0.133932
    31  H    0.157127
    32  C    0.113054
    33  C   -0.764322
    34  S   -0.731181
    35  C   -0.426266
    36  H    0.114881
    37  C    0.663147
    38  O   -0.132019
    39  C    0.407465
    40  C   -0.227095
    41  C    0.083169
    42  S   -0.362112
    43  H    0.132172
    44  H    0.133489
    45  H    0.143687
    46  C   -0.063927
    47  O   -0.143528
    48  C   -0.206486
    49  H    0.093305
    50  C   -0.296998
    51  H    0.118862
    52  H    0.100466
    53  H    0.143666
    54  H    0.192723
 Sum of Mulliken charges =  -2.00000

 Dipole moment (field-independent basis, Debye):
    X=             14.4912    Y=             -3.2564    Z=              1.7748  Tot=             14.9583
 Quadrupole moment (field-independent basis, Debye-Ang):
   XX=           -421.0921   YY=           -303.6247   ZZ=           -242.0577
   XY=              6.0874   XZ=             -4.0212   YZ=             -6.8057

 Normal termination of Gaussian 16 at Fri Oct  8 14:25:44 2021.
