 Gaussian 16, Revision C.01,
 Gaussian 16:  ES64L-G16RevC.01  3-Jul-2019

 -------------------------------------
 # opt=modredundant b3lyp/6-311+g(d,p)
 -------------------------------------

 -----------
 NDI_175.pdb
 -----------
 Symbolic Z-matrix:
 Charge = -2 Multiplicity = 1

 SCF Done:  E(RB3LYP) =  -2359.33360257     A.U. after   23 cycles
 SCF Done:  E(RB3LYP) =  -2359.36990379     A.U. after   20 cycles
 SCF Done:  E(RB3LYP) =  -2359.38485582     A.U. after   16 cycles
 SCF Done:  E(RB3LYP) =  -2359.38920559     A.U. after   15 cycles
 SCF Done:  E(RB3LYP) =  -2359.39084591     A.U. after   17 cycles
 SCF Done:  E(RB3LYP) =  -2359.39178432     A.U. after   17 cycles
 SCF Done:  E(RB3LYP) =  -2359.39222386     A.U. after   14 cycles
 SCF Done:  E(RB3LYP) =  -2359.39264664     A.U. after   15 cycles
 SCF Done:  E(RB3LYP) =  -2359.39286622     A.U. after   14 cycles
 SCF Done:  E(RB3LYP) =  -2359.39301934     A.U. after   14 cycles
 SCF Done:  E(RB3LYP) =  -2359.39706543     A.U. after   11 cycles
 SCF Done:  E(RB3LYP) =  -2359.39706613     A.U. after   11 cycles
 SCF Done:  E(RB3LYP) =  -2359.39706644     A.U. after   11 cycles
 SCF Done:  E(RB3LYP) =  -2359.39706656     A.U. after   11 cycles
 SCF Done:  E(RB3LYP) =  -2359.39706663     A.U. after   10 cycles
 SCF Done:  E(RB3LYP) =  -2359.39706670     A.U. after   10 cycles
 SCF Done:  E(RB3LYP) =  -2359.39706675     A.U. after   10 cycles
 SCF Done:  E(RB3LYP) =  -2359.39706679     A.U. after   11 cycles
 SCF Done:  E(RB3LYP) =  -2359.39706681     A.U. after   10 cycles
 SCF Done:  E(RB3LYP) =  -2359.39706683     A.U. after    9 cycles
 Optimization completed.
    -- Stationary point found.

                         Standard orientation:
 ---------------------------------------------------------------------
 Center     Atomic      Atomic             Coordinates (Angstroms)
 Number     Number       Type             X           Y           Z
 ---------------------------------------------------------------------
      1          6           0       -3.554708   -2.657415    0.072325
      2          6           0       -2.807326   -1.427658    0.160810
      3          6           0       -3.440607   -0.177788   -0.091715
      4          6           0       -4.806433   -0.109429   -0.432215
      5          6           0       -5.594974   -1.317840   -0.534468
      6          6           0       -1.425739   -1.476052    0.412420
      7          6           0       -2.651347    1.025772    0.028099
      8          6           0       -1.267867    0.954903    0.381932
      9          6           0       -0.612719   -0.353402    0.501772
     10          6           0       -0.621215    2.174914    0.768403
     11          6           0       -2.615870    3.512032    0.014042
     12          6           0       -3.315630    2.266440   -0.172479
     13          6           0       -4.696044    2.303421   -0.531668
     14          6           0       -5.425458    1.156772   -0.664268
     15          1           0       -6.475517    1.171783   -0.928930
     16          1           0       -5.140754    3.279950   -0.682691
     17          1           0       -0.999808   -2.468609    0.451725
     18          7           0       -1.301206    3.388058    0.484957
     19          7           0       -4.917167   -2.529363   -0.269027
     20          8           0       -3.096397   -3.799611    0.270300
     21          8           0       -6.804251   -1.342727   -0.831604
     22          8           0       -3.110260    4.642200   -0.184408
     23          8           0        0.481966    2.267061    1.347995
     24          6           0       -0.571638    4.610461    0.802912
     25          1           0       -0.433613    4.707769    1.884331
     26          1           0        0.420520    4.576539    0.349384
     27          1           0       -1.154072    5.445741    0.421780
     28          6           0       -5.673240   -3.773603   -0.355531
     29          1           0       -5.241256   -4.427033   -1.118387
     30          1           0       -5.627123   -4.308723    0.596428
     31          1           0       -6.699230   -3.516348   -0.606275
     32          6           0        0.822640   -0.615128    0.487156
     33          6           0        1.434769   -1.857966    0.701254
     34         16           0        2.026584    0.516667   -0.105581
     35          6           0        2.798913   -1.889413    0.393691
     36          1           0        0.892218   -2.708695    1.082316
     37          6           0        3.324894   -0.689011   -0.084681
     38          8           0        3.632012   -2.974972    0.549848
     39          6           0        4.684681   -0.375140   -0.394435
     40          6           0        3.050849   -4.175636    1.019795
     41          6           0        5.258660    0.844976   -0.756907
     42         16           0        5.964654   -1.607440   -0.397849
     43          1           0        3.857918   -4.909218    1.058711
     44          1           0        2.624738   -4.050470    2.022579
     45          1           0        2.265019   -4.533260    0.344232
     46          6           0        6.649222    0.792045   -1.036743
     47          8           0        4.533658    2.010514   -0.903622
     48          6           0        7.183563   -0.456621   -0.890532
     49          1           0        7.209809    1.666613   -1.345213
     50          6           0        4.466510    2.830370    0.267401
     51          1           0        8.202416   -0.779960   -1.038988
     52          1           0        5.470511    3.160223    0.566996
     53          1           0        3.854849    3.694089    0.005222
     54          1           0        3.985041    2.301372    1.093864
 ---------------------------------------------------------------------

 The electronic state is 1-A.
 Alpha  occ. eigenvalues --  -88.70862 -88.67554 -18.99432 -18.97701 -18.88179
 Alpha  occ. eigenvalues --  -18.87868 -18.86813 -18.86302 -14.15793 -14.14632
 Alpha  occ. eigenvalues --  -10.07632 -10.06612 -10.06257 -10.05580 -10.05468
 Alpha  occ. eigenvalues --  -10.05325 -10.05303 -10.04913 -10.04563 -10.03255
 Alpha  occ. eigenvalues --  -10.02088 -10.01832 -10.01325 -10.01175 -10.00043
 Alpha  occ. eigenvalues --   -9.98506  -9.98467  -9.98394  -9.98267  -9.97136
 Alpha  occ. eigenvalues --   -9.96542  -9.96293  -9.96025  -9.95992  -9.95836
 Alpha  occ. eigenvalues --   -9.95824  -7.79414  -7.76068  -5.75729  -5.75358
 Alpha  occ. eigenvalues --   -5.74963  -5.72403  -5.71997  -5.71596  -0.90716
 Alpha  occ. eigenvalues --   -0.88868  -0.83919  -0.82651  -0.81526  -0.80157
 Alpha  occ. eigenvalues --   -0.72517  -0.71389  -0.71280  -0.68935  -0.66868
 Alpha  occ. eigenvalues --   -0.62300  -0.59947  -0.59258  -0.57950  -0.57381
 Alpha  occ. eigenvalues --   -0.55425  -0.53616  -0.53518  -0.52735  -0.51798
 Alpha  occ. eigenvalues --   -0.50270  -0.49770  -0.47692  -0.43874  -0.42777
 Alpha  occ. eigenvalues --   -0.42370  -0.41773  -0.40539  -0.39561  -0.37711
 Alpha  occ. eigenvalues --   -0.37241  -0.36206  -0.34378  -0.33989  -0.32096
 Alpha  occ. eigenvalues --   -0.31745  -0.31434  -0.30200  -0.29800  -0.29556
 Alpha  occ. eigenvalues --   -0.29008  -0.27980  -0.27788  -0.27365  -0.26741
 Alpha  occ. eigenvalues --   -0.26272  -0.25548  -0.25197  -0.25146  -0.24366
 Alpha  occ. eigenvalues --   -0.23508  -0.22899  -0.22636  -0.22083  -0.21443
 Alpha  occ. eigenvalues --   -0.21344  -0.21055  -0.20827  -0.20320  -0.19893
 Alpha  occ. eigenvalues --   -0.19484  -0.19377  -0.18820  -0.18381  -0.18330
 Alpha  occ. eigenvalues --   -0.17954  -0.17796  -0.16773  -0.16497  -0.16322
 Alpha  occ. eigenvalues --   -0.15253  -0.14949  -0.14033  -0.12623  -0.11866
 Alpha  occ. eigenvalues --   -0.11317  -0.09625  -0.08448  -0.07366  -0.07107
 Alpha  occ. eigenvalues --   -0.06676  -0.06203  -0.05813  -0.05203  -0.04997
 Alpha  occ. eigenvalues --   -0.04750  -0.03310  -0.01868   0.00198   0.06394
 Alpha virt. eigenvalues --    0.12218   0.13061   0.13874   0.14666   0.15681
 Alpha virt. eigenvalues --    0.16022   0.16516   0.16564   0.16907   0.17456
 Alpha virt. eigenvalues --    0.17549   0.18136   0.18766   0.18938   0.19116

 Mulliken charges:
               1
     1  C    0.244417
     2  C   -0.099504
     3  C    0.163897
     4  C    0.231841
     5  C    0.106608
     6  C    0.137969
     7  C    0.047068
     8  C    0.270973
     9  C    0.282643
    10  C   -0.763037
    11  C    0.141552
    12  C    0.120899
    13  C   -0.482338
    14  C   -0.580588
    15  H    0.103186
    16  H    0.108199
    17  H    0.124090
    18  N   -0.032464
    19  N   -0.139111
    20  O   -0.426647
    21  O   -0.401830
    22  O   -0.421224
    23  O   -0.350078
    24  C   -0.151584
    25  H    0.133452
    26  H    0.141168
    27  H    0.155945
    28  C   -0.181081
    29  H    0.135525
    30  H    0.134884
    31  H    0.156790
    32  C    0.168355
    33  C   -0.416658
    34  S   -0.881265
    35  C   -0.637588
    36  H    0.106945
    37  C    0.624427
    38  O   -0.129886
    39  C    0.477305
    40  C   -0.233137
    41  C   -0.020392
    42  S   -0.357109
    43  H    0.132569
    44  H    0.133422
    45  H    0.142334
    46  C    0.002282
    47  O   -0.138093
    48  C   -0.226017
    49  H    0.092365
    50  C   -0.301530
    51  H    0.118142
    52  H    0.099993
    53  H    0.147223
    54  H    0.184693
 Sum of Mulliken charges =  -2.00000

 Dipole moment (field-independent basis, Debye):
    X=             13.7624    Y=             -3.6173    Z=              1.5996  Tot=             14.3195
 Quadrupole moment (field-independent basis, Debye-Ang):
   XX=           -421.0729   YY=           -302.9146   ZZ=           -242.5578
   XY=              6.1755   XZ=             -4.5489   YZ=             -1.0090

 Normal termination of Gaussian 16 at Fri Oct  8 13:37:21 2021.
