 Gaussian 16, Revision C.01,
 Gaussian 16:  ES64L-G16RevC.01  3-Jul-2019

 -------------------------------------
 # opt=modredundant b3lyp/6-311+g(d,p)
 -------------------------------------

 ----------
 NDI_30.pdb
 ----------
 Symbolic Z-matrix:
 Charge = -2 Multiplicity = 1

 SCF Done:  E(RB3LYP) =  -2359.37256733     A.U. after   23 cycles
 SCF Done:  E(RB3LYP) =  -2359.37862512     A.U. after   19 cycles
 SCF Done:  E(RB3LYP) =  -2359.39172382     A.U. after   18 cycles
 SCF Done:  E(RB3LYP) =  -2359.39380939     A.U. after   17 cycles
 SCF Done:  E(RB3LYP) =  -2359.39482802     A.U. after   14 cycles
 SCF Done:  E(RB3LYP) =  -2359.39551660     A.U. after   15 cycles
 SCF Done:  E(RB3LYP) =  -2359.39615128     A.U. after   18 cycles
 SCF Done:  E(RB3LYP) =  -2359.39699385     A.U. after   14 cycles
 SCF Done:  E(RB3LYP) =  -2359.39743022     A.U. after   18 cycles
 SCF Done:  E(RB3LYP) =  -2359.39784209     A.U. after   15 cycles
 SCF Done:  E(RB3LYP) =  -2359.40149327     A.U. after   14 cycles
 SCF Done:  E(RB3LYP) =  -2359.40144543     A.U. after   13 cycles
 SCF Done:  E(RB3LYP) =  -2359.40144583     A.U. after   11 cycles
 SCF Done:  E(RB3LYP) =  -2359.40149515     A.U. after   13 cycles
 SCF Done:  E(RB3LYP) =  -2359.40144602     A.U. after   13 cycles
 SCF Done:  E(RB3LYP) =  -2359.40144605     A.U. after   10 cycles
 SCF Done:  E(RB3LYP) =  -2359.40149640     A.U. after   14 cycles
 SCF Done:  E(RB3LYP) =  -2359.40144611     A.U. after   13 cycles
 SCF Done:  E(RB3LYP) =  -2359.40144612     A.U. after    9 cycles
 SCF Done:  E(RB3LYP) =  -2359.40144612     A.U. after    9 cycles
 Optimization completed.
    -- Stationary point found.

                         Standard orientation:
 ---------------------------------------------------------------------
 Center     Atomic      Atomic             Coordinates (Angstroms)
 Number     Number       Type             X           Y           Z
 ---------------------------------------------------------------------
      1          6           0       -2.634097   -2.983097    0.111087
      2          6           0       -2.298457   -1.586855   -0.011102
      3          6           0       -3.314860   -0.590998    0.046416
      4          6           0       -4.670010   -0.946659    0.212656
      5          6           0       -5.053823   -2.335711    0.330748
      6          6           0       -0.947064   -1.204920   -0.109870
      7          6           0       -2.932772    0.798942   -0.078125
      8          6           0       -1.558377    1.162467   -0.248289
      9          6           0       -0.532039    0.114802   -0.190958
     10          6           0       -1.258651    2.527744   -0.583757
     11          6           0       -3.676633    3.164866   -0.240542
     12          6           0       -3.971934    1.767823   -0.058450
     13          6           0       -5.333551    1.376244    0.120600
     14          6           0       -5.679153    0.063514    0.256612
     15          1           0       -6.707843   -0.249015    0.387459
     16          1           0       -6.076521    2.164771    0.134101
     17          1           0       -0.216460   -2.000471   -0.033022
     18          7           0       -2.331976    3.457822   -0.509514
     19          7           0       -4.005426   -3.279042    0.265435
     20          8           0       -1.822252   -3.927814    0.091002
     21          8           0       -6.227012   -2.728464    0.481453
     22          8           0       -4.524601    4.082499   -0.195634
     23          8           0       -0.152251    2.984089   -0.942905
     24          6           0       -1.983117    4.843260   -0.803503
     25          1           0       -1.194366    5.185424   -0.128539
     26          1           0       -1.596559    4.930208   -1.822502
     27          1           0       -2.884960    5.437919   -0.680380
     28          6           0       -4.343687   -4.693212    0.378133
     29          1           0       -3.970672   -5.237785   -0.492689
     30          1           0       -3.869401   -5.128412    1.262369
     31          1           0       -5.425945   -4.766300    0.449902
     32          6           0        0.892851    0.361004   -0.046348
     33          6           0        1.552203    1.399579    0.591561
     34         16           0        2.075798   -0.801297   -0.657377
     35          6           0        2.947051    1.246271    0.631902
     36          1           0        1.020121    2.245501    0.990713
     37          6           0        3.445268    0.092475    0.028422
     38          8           0        3.824145    2.123288    1.220886
     39          6           0        4.799676   -0.350494   -0.069765
     40          6           0        3.294190    3.364359    1.660658
     41          6           0        5.308153   -1.551089   -0.566516
     42         16           0        6.168260    0.660634    0.436275
     43          1           0        4.149566    3.959652    1.984412
     44          1           0        2.765248    3.878302    0.851835
     45          1           0        2.607266    3.228013    2.504126
     46          6           0        6.723850   -1.651249   -0.557685
     47          8           0        4.508493   -2.554535   -1.079826
     48          6           0        7.338427   -0.543232   -0.047100
     49          1           0        7.245263   -2.525087   -0.930037
     50          6           0        4.113343   -3.543981   -0.127563
     51          1           0        8.392713   -0.352557    0.082084
     52          1           0        3.567683   -3.093321    0.706419
     53          1           0        3.451207   -4.234578   -0.651262
     54          1           0        4.987655   -4.086728    0.256056
 ---------------------------------------------------------------------

 The electronic state is 1-A.
 Alpha  occ. eigenvalues --  -88.71304 -88.68136 -18.99458 -18.98456 -18.87882
 Alpha  occ. eigenvalues --  -18.87478 -18.86819 -18.86192 -14.15510 -14.14678
 Alpha  occ. eigenvalues --  -10.07205 -10.06565 -10.06326 -10.05919 -10.05861
 Alpha  occ. eigenvalues --  -10.05849 -10.05289 -10.05050 -10.05013 -10.03707
 Alpha  occ. eigenvalues --  -10.02310 -10.02006 -10.02002 -10.00908 -10.00168
 Alpha  occ. eigenvalues --   -9.98510  -9.98424  -9.98235  -9.97954  -9.96912
 Alpha  occ. eigenvalues --   -9.96319  -9.96170  -9.96056  -9.95848  -9.95770
 Alpha  occ. eigenvalues --   -9.95711  -7.79852  -7.76705  -5.76168  -5.75795
 Alpha  occ. eigenvalues --   -5.75402  -5.73042  -5.72660  -5.72214  -0.90736
 Alpha  occ. eigenvalues --   -0.89639  -0.83612  -0.82624  -0.81197  -0.80098
 Alpha  occ. eigenvalues --   -0.72225  -0.71873  -0.71235  -0.69233  -0.66748
 Alpha  occ. eigenvalues --   -0.62284  -0.59962  -0.59337  -0.58423  -0.57620
 Alpha  occ. eigenvalues --   -0.55260  -0.54185  -0.53221  -0.52706  -0.52247
 Alpha  occ. eigenvalues --   -0.50286  -0.49829  -0.47577  -0.44073  -0.42737
 Alpha  occ. eigenvalues --   -0.42417  -0.41892  -0.40521  -0.39700  -0.38156
 Alpha  occ. eigenvalues --   -0.37169  -0.36418  -0.34238  -0.33880  -0.31840
 Alpha  occ. eigenvalues --   -0.31468  -0.31367  -0.30841  -0.30636  -0.30018
 Alpha  occ. eigenvalues --   -0.29111  -0.28541  -0.27516  -0.27151  -0.26729
 Alpha  occ. eigenvalues --   -0.26334  -0.25520  -0.25304  -0.25028  -0.24410
 Alpha  occ. eigenvalues --   -0.23366  -0.23220  -0.22437  -0.22279  -0.21590
 Alpha  occ. eigenvalues --   -0.21255  -0.20958  -0.20701  -0.20376  -0.19855
 Alpha  occ. eigenvalues --   -0.19572  -0.19319  -0.19150  -0.18662  -0.18407
 Alpha  occ. eigenvalues --   -0.18010  -0.17702  -0.16831  -0.16349  -0.15991
 Alpha  occ. eigenvalues --   -0.15404  -0.15040  -0.14880  -0.12737  -0.11926
 Alpha  occ. eigenvalues --   -0.11703  -0.09852  -0.08860  -0.07119  -0.06994
 Alpha  occ. eigenvalues --   -0.06457  -0.06252  -0.05655  -0.05413  -0.04807
 Alpha  occ. eigenvalues --   -0.04730  -0.03476  -0.01769  -0.00094   0.06447
 Alpha virt. eigenvalues --    0.11946   0.12828   0.13941   0.14465   0.15696
 Alpha virt. eigenvalues --    0.15814   0.16595   0.16717   0.16832   0.17182
 Alpha virt. eigenvalues --    0.17416   0.17993   0.18535   0.18823   0.19025

 Mulliken charges:
               1
     1  C    0.190209
     2  C   -0.096741
     3  C    0.133021
     4  C    0.246191
     5  C    0.090062
     6  C   -0.115726
     7  C    0.266052
     8  C    0.405001
     9  C    0.266522
    10  C   -0.710649
    11  C    0.094386
    12  C    0.209051
    13  C   -0.455938
    14  C   -0.604176
    15  H    0.103273
    16  H    0.107241
    17  H    0.142513
    18  N   -0.081904
    19  N   -0.135127
    20  O   -0.425374
    21  O   -0.406573
    22  O   -0.418341
    23  O   -0.360155
    24  C   -0.167041
    25  H    0.129173
    26  H    0.137558
    27  H    0.155708
    28  C   -0.180697
    29  H    0.136631
    30  H    0.133834
    31  H    0.156245
    32  C   -0.071865
    33  C   -0.478774
    34  S   -0.763087
    35  C   -0.478933
    36  H    0.132462
    37  C    0.503659
    38  O   -0.125523
    39  C    0.514329
    40  C   -0.257361
    41  C    0.167687
    42  S   -0.386125
    43  H    0.128670
    44  H    0.168868
    45  H    0.130587
    46  C   -0.148472
    47  O   -0.137831
    48  C   -0.179969
    49  H    0.093511
    50  C   -0.300621
    51  H    0.119433
    52  H    0.168618
    53  H    0.150967
    54  H    0.105541
 Sum of Mulliken charges =  -2.00000

 Dipole moment (field-independent basis, Debye):
    X=             14.8696    Y=             -0.0672    Z=              2.4609  Tot=             15.0721
 Quadrupole moment (field-independent basis, Debye-Ang):
   XX=           -426.3854   YY=           -306.9327   ZZ=           -238.9464
   XY=              3.5294   XZ=             10.6573   YZ=              8.4083

 Normal termination of Gaussian 16 at Fri Oct  8 20:43:28 2021.
