 Gaussian 16, Revision C.01,
 Gaussian 16:  ES64L-G16RevC.01  3-Jul-2019

 -------------------------------------
 # opt=modredundant b3lyp/6-311+g(d,p)
 -------------------------------------

 -----------
 NDI_135.pdb
 -----------
 Symbolic Z-matrix:
 Charge = -2 Multiplicity = 1

 SCF Done:  E(RB3LYP) =  -2359.37016374     A.U. after   22 cycles
 SCF Done:  E(RB3LYP) =  -2359.38425294     A.U. after   20 cycles
 SCF Done:  E(RB3LYP) =  -2359.39150503     A.U. after   17 cycles
 SCF Done:  E(RB3LYP) =  -2359.39323135     A.U. after   16 cycles
 SCF Done:  E(RB3LYP) =  -2359.39346860     A.U. after   16 cycles
 SCF Done:  E(RB3LYP) =  -2359.39393075     A.U. after   13 cycles
 SCF Done:  E(RB3LYP) =  -2359.39399012     A.U. after   13 cycles
 SCF Done:  E(RB3LYP) =  -2359.39401694     A.U. after   13 cycles
 SCF Done:  E(RB3LYP) =  -2359.39403290     A.U. after   12 cycles
 SCF Done:  E(RB3LYP) =  -2359.39407128     A.U. after   13 cycles
 SCF Done:  E(RB3LYP) =  -2359.39857504     A.U. after   12 cycles
 SCF Done:  E(RB3LYP) =  -2359.39858055     A.U. after   14 cycles
 SCF Done:  E(RB3LYP) =  -2359.39858290     A.U. after   12 cycles
 SCF Done:  E(RB3LYP) =  -2359.39857934     A.U. after   13 cycles
 SCF Done:  E(RB3LYP) =  -2359.39858611     A.U. after   14 cycles
 SCF Done:  E(RB3LYP) =  -2359.39858883     A.U. after   12 cycles
 SCF Done:  E(RB3LYP) =  -2359.39859015     A.U. after   12 cycles
 SCF Done:  E(RB3LYP) =  -2359.39859034     A.U. after   11 cycles
 SCF Done:  E(RB3LYP) =  -2359.39859039     A.U. after   10 cycles
 SCF Done:  E(RB3LYP) =  -2359.39859040     A.U. after    9 cycles
 Optimization completed.
    -- Stationary point found.

                         Standard orientation:
 ---------------------------------------------------------------------
 Center     Atomic      Atomic             Coordinates (Angstroms)
 Number     Number       Type             X           Y           Z
 ---------------------------------------------------------------------
      1          6           0        3.536454   -2.690117    0.290814
      2          6           0        2.794275   -1.475503    0.083519
      3          6           0        3.449653   -0.212583    0.130076
      4          6           0        4.837079   -0.119946    0.378360
      5          6           0        5.620376   -1.312291    0.598987
      6          6           0        1.395132   -1.535230   -0.112966
      7          6           0        2.673028    0.985294   -0.105350
      8          6           0        1.270601    0.893616   -0.364690
      9          6           0        0.618249   -0.407480   -0.292821
     10          6           0        0.575366    2.071124   -0.803329
     11          6           0        2.650248    3.449921   -0.409090
     12          6           0        3.354978    2.230492   -0.110704
     13          6           0        4.758711    2.290338    0.152275
     14          6           0        5.479641    1.157560    0.394382
     15          1           0        6.544803    1.187549    0.589048
     16          1           0        5.223795    3.268943    0.141411
     17          1           0        0.927007   -2.508934   -0.036652
     18          7           0        1.296195    3.292224   -0.751392
     19          7           0        4.917453   -2.537004    0.539521
     20          8           0        3.061537   -3.844181    0.267075
     21          8           0        6.846905   -1.317187    0.828115
     22          8           0        3.166133    4.588757   -0.402228
     23          8           0       -0.596060    2.118310   -1.234085
     24          6           0        0.549581    4.480586   -1.147705
     25          1           0        0.237585    4.404754   -2.193442
     26          1           0       -0.356990    4.571605   -0.544793
     27          1           0        1.202956    5.337733   -1.004422
     28          6           0        5.666759   -3.769741    0.751685
     29          1           0        5.256015   -4.319561    1.602748
     30          1           0        5.583829   -4.418114   -0.124882
     31          1           0        6.703083   -3.495203    0.932293
     32          6           0       -0.825403   -0.630444   -0.328441
     33          6           0       -1.492446   -1.590822   -1.072403
     34         16           0       -1.958653    0.228763    0.691942
     35          6           0       -2.881972   -1.621951   -0.838691
     36          1           0       -0.971888   -2.213191   -1.784948
     37          6           0       -3.343787   -0.683016    0.078497
     38          8           0       -3.781261   -2.457123   -1.459403
     39          6           0       -4.696301   -0.401794    0.462157
     40          6           0       -3.267513   -3.362393   -2.418368
     41          6           0       -5.205575    0.671442    1.190329
     42         16           0       -6.036616   -1.492685    0.067715
     43          1           0       -4.122163   -3.933172   -2.785009
     44          1           0       -2.796264   -2.834238   -3.255597
     45          1           0       -2.536082   -4.046653   -1.972942
     46          6           0       -6.603657    0.613316    1.435918
     47          8           0       -4.431048    1.697258    1.688892
     48          6           0       -7.199039   -0.492394    0.899373
     49          1           0       -7.123416    1.380935    1.996440
     50          6           0       -4.192479    2.773994    0.771105
     51          1           0       -8.239902   -0.776969    0.917908
     52          1           0       -5.142697    3.217771    0.446722
     53          1           0       -3.605852    3.514832    1.315335
     54          1           0       -3.616450    2.439572   -0.095057
 ---------------------------------------------------------------------

 The electronic state is 1-A.
 Alpha  occ. eigenvalues --  -88.71608 -88.68118 -19.00019 -18.98216 -18.87367
 Alpha  occ. eigenvalues --  -18.87054 -18.86532 -18.86080 -14.15129 -14.14417
 Alpha  occ. eigenvalues --  -10.08114 -10.06200 -10.06129 -10.05823 -10.05768
 Alpha  occ. eigenvalues --  -10.05465 -10.05209 -10.05022 -10.04730 -10.04049
 Alpha  occ. eigenvalues --  -10.02456 -10.02297 -10.02278 -10.00602  -9.99897
 Alpha  occ. eigenvalues --   -9.98849  -9.98160  -9.98113  -9.97884  -9.96574
 Alpha  occ. eigenvalues --   -9.95865  -9.95829  -9.95672  -9.95511  -9.95441
 Alpha  occ. eigenvalues --   -9.95397  -7.80165  -7.76689  -5.76477  -5.76105
 Alpha  occ. eigenvalues --   -5.75720  -5.73023  -5.72629  -5.72211  -0.91314
 Alpha  occ. eigenvalues --   -0.89365  -0.83097  -0.82343  -0.80653  -0.79846
 Alpha  occ. eigenvalues --   -0.72154  -0.71777  -0.71009  -0.69579  -0.66484
 Alpha  occ. eigenvalues --   -0.62202  -0.59876  -0.59212  -0.58503  -0.57981
 Alpha  occ. eigenvalues --   -0.55357  -0.53963  -0.53192  -0.52379  -0.52154
 Alpha  occ. eigenvalues --   -0.50300  -0.49648  -0.47456  -0.43672  -0.42818
 Alpha  occ. eigenvalues --   -0.42244  -0.41775  -0.40274  -0.39804  -0.38172
 Alpha  occ. eigenvalues --   -0.37230  -0.36737  -0.33959  -0.33654  -0.32257
 Alpha  occ. eigenvalues --   -0.31814  -0.31583  -0.30493  -0.30204  -0.29925
 Alpha  occ. eigenvalues --   -0.29375  -0.28403  -0.27175  -0.27146  -0.26494
 Alpha  occ. eigenvalues --   -0.26090  -0.25506  -0.25121  -0.24762  -0.24676
 Alpha  occ. eigenvalues --   -0.23566  -0.23059  -0.22375  -0.21940  -0.21529
 Alpha  occ. eigenvalues --   -0.21094  -0.20790  -0.20637  -0.20359  -0.20062
 Alpha  occ. eigenvalues --   -0.19434  -0.19064  -0.18868  -0.18596  -0.17961
 Alpha  occ. eigenvalues --   -0.17830  -0.17300  -0.16896  -0.16309  -0.16005
 Alpha  occ. eigenvalues --   -0.15580  -0.14857  -0.14646  -0.12197  -0.12002
 Alpha  occ. eigenvalues --   -0.11355  -0.09871  -0.08958  -0.06759  -0.06650
 Alpha  occ. eigenvalues --   -0.06234  -0.05967  -0.05581  -0.05011  -0.04472
 Alpha  occ. eigenvalues --   -0.04360  -0.03387  -0.01558  -0.00365   0.06777
 Alpha virt. eigenvalues --    0.11934   0.12726   0.13476   0.14407   0.15762
 Alpha virt. eigenvalues --    0.16012   0.16412   0.16875   0.16924   0.17287
 Alpha virt. eigenvalues --    0.17410   0.17844   0.18440   0.18546   0.19012

 Mulliken charges:
               1
     1  C    0.247512
     2  C   -0.161062
     3  C    0.079315
     4  C    0.298622
     5  C    0.154463
     6  C   -0.331933
     7  C    0.206820
     8  C    0.087731
     9  C    0.216364
    10  C   -0.370026
    11  C    0.204380
    12  C    0.259078
    13  C   -0.508409
    14  C   -0.626022
    15  H    0.102922
    16  H    0.106099
    17  H    0.122673
    18  N   -0.078770
    19  N   -0.135103
    20  O   -0.432486
    21  O   -0.414375
    22  O   -0.424254
    23  O   -0.347913
    24  C   -0.161303
    25  H    0.135192
    26  H    0.136966
    27  H    0.157333
    28  C   -0.181206
    29  H    0.134950
    30  H    0.132092
    31  H    0.157318
    32  C   -0.082758
    33  C   -0.470533
    34  S   -0.338132
    35  C   -0.477909
    36  H    0.112832
    37  C    0.252911
    38  O   -0.119663
    39  C    0.434375
    40  C   -0.241119
    41  C    0.132369
    42  S   -0.336223
    43  H    0.132105
    44  H    0.137537
    45  H    0.142485
    46  C   -0.060497
    47  O   -0.155038
    48  C   -0.181126
    49  H    0.095499
    50  C   -0.311426
    51  H    0.121263
    52  H    0.102163
    53  H    0.141389
    54  H    0.202525
 Sum of Mulliken charges =  -2.00000

 Dipole moment (field-independent basis, Debye):
    X=            -16.0528    Y=             -2.6880    Z=             -2.1528  Tot=             16.4181
 Quadrupole moment (field-independent basis, Debye-Ang):
   XX=           -422.6066   YY=           -305.7883   ZZ=           -239.9063
   XY=             -5.5485   XZ=             -2.0754   YZ=             13.4766

 Normal termination of Gaussian 16 at Fri Oct  8 11:31:48 2021.
