 Gaussian 16, Revision C.01,
 Gaussian 16:  ES64L-G16RevC.01  3-Jul-2019

 -------------------------------------
 # opt=modredundant b3lyp/6-311+g(d,p)
 -------------------------------------

 -----------
 NDI_110.pdb
 -----------
 Symbolic Z-matrix:
 Charge = -2 Multiplicity = 1

 SCF Done:  E(RB3LYP) =  -2359.37185952     A.U. after   24 cycles
 SCF Done:  E(RB3LYP) =  -2359.38796583     A.U. after   15 cycles
 SCF Done:  E(RB3LYP) =  -2359.39067461     A.U. after   15 cycles
 SCF Done:  E(RB3LYP) =  -2359.39086463     A.U. after   14 cycles
 SCF Done:  E(RB3LYP) =  -2359.39098683     A.U. after   14 cycles
 SCF Done:  E(RB3LYP) =  -2359.39107119     A.U. after   13 cycles
 SCF Done:  E(RB3LYP) =  -2359.39109869     A.U. after   13 cycles
 SCF Done:  E(RB3LYP) =  -2359.39112251     A.U. after   13 cycles
 SCF Done:  E(RB3LYP) =  -2359.39121216     A.U. after   15 cycles
 SCF Done:  E(RB3LYP) =  -2359.39124966     A.U. after   15 cycles
 SCF Done:  E(RB3LYP) =  -2359.39563108     A.U. after   12 cycles
 SCF Done:  E(RB3LYP) =  -2359.39563360     A.U. after   13 cycles
 SCF Done:  E(RB3LYP) =  -2359.39563774     A.U. after   14 cycles
 SCF Done:  E(RB3LYP) =  -2359.39564093     A.U. after   13 cycles
 SCF Done:  E(RB3LYP) =  -2359.39564398     A.U. after   13 cycles
 SCF Done:  E(RB3LYP) =  -2359.39564529     A.U. after   12 cycles
 SCF Done:  E(RB3LYP) =  -2359.39564560     A.U. after   10 cycles
 SCF Done:  E(RB3LYP) =  -2359.39564571     A.U. after   10 cycles
 SCF Done:  E(RB3LYP) =  -2359.39564577     A.U. after   11 cycles
 SCF Done:  E(RB3LYP) =  -2359.39564579     A.U. after   11 cycles
 Optimization completed.
    -- Stationary point found.

                         Standard orientation:
 ---------------------------------------------------------------------
 Center     Atomic      Atomic             Coordinates (Angstroms)
 Number     Number       Type             X           Y           Z
 ---------------------------------------------------------------------
      1          6           0        3.607794   -2.678867    0.358536
      2          6           0        2.833398   -1.486765    0.153816
      3          6           0        3.464603   -0.213071    0.128964
      4          6           0        4.862969   -0.086852    0.305462
      5          6           0        5.678607   -1.254367    0.522456
      6          6           0        1.424605   -1.579947   -0.001459
      7          6           0        2.656650    0.966486   -0.101220
      8          6           0        1.245082    0.843662   -0.285659
      9          6           0        0.630491   -0.471786   -0.178151
     10          6           0        0.483707    2.010429   -0.629504
     11          6           0        2.564291    3.423562   -0.439492
     12          6           0        3.309695    2.225435   -0.165998
     13          6           0        4.726260    2.317382    0.020869
     14          6           0        5.478655    1.204296    0.252458
     15          1           0        6.551709    1.258540    0.391631
     16          1           0        5.171347    3.303632   -0.036072
     17          1           0        0.977385   -2.563889    0.074398
     18          7           0        1.186993    3.238496   -0.668560
     19          7           0        4.995967   -2.492591    0.535993
     20          8           0        3.155478   -3.843531    0.390327
     21          8           0        6.916789   -1.232193    0.690433
     22          8           0        3.056508    4.572519   -0.497133
     23          8           0       -0.737867    2.040827   -0.903390
     24          6           0        0.387865    4.411934   -1.001205
     25          1           0       -0.080357    4.285443   -1.981056
     26          1           0       -0.416541    4.542066   -0.272078
     27          1           0        1.055276    5.270261   -0.997010
     28          6           0        5.778125   -3.704238    0.748627
     29          1           0        5.413292   -4.239136    1.629672
     30          1           0        5.673052   -4.378014   -0.106441
     31          1           0        6.815151   -3.404398    0.878492
     32          6           0       -0.819592   -0.701939   -0.278801
     33          6           0       -1.499676   -1.323999   -1.300842
     34         16           0       -1.937166   -0.177724    0.958802
     35          6           0       -2.903591   -1.344090   -1.115362
     36          1           0       -0.984811   -1.693121   -2.175383
     37          6           0       -3.342369   -0.726602    0.045966
     38          8           0       -3.819130   -1.883380   -1.987552
     39          6           0       -4.693804   -0.500583    0.487440
     40          6           0       -3.329219   -2.339779   -3.235513
     41          6           0       -5.186324    0.470853    1.351297
     42         16           0       -6.029930   -1.548032   -0.005472
     43          1           0       -4.199355   -2.691923   -3.791763
     44          1           0       -2.841651   -1.531976   -3.793061
     45          1           0       -2.619718   -3.166220   -3.111194
     46          6           0       -6.578937    0.364853    1.623669
     47          8           0       -4.426695    1.449434    1.948088
     48          6           0       -7.176197   -0.675051    0.970908
     49          1           0       -7.092203    1.058607    2.277845
     50          6           0       -4.013646    2.523961    1.084230
     51          1           0       -8.217236   -0.959990    0.966885
     52          1           0       -4.891318    2.997152    0.626492
     53          1           0       -3.499913    3.241610    1.724259
     54          1           0       -3.318626    2.183207    0.313940
 ---------------------------------------------------------------------

 The electronic state is 1-A.
 Alpha  occ. eigenvalues --  -88.72269 -88.68633 -19.00285 -18.98513 -18.86664
 Alpha  occ. eigenvalues --  -18.86404 -18.86201 -18.85988 -14.14575 -14.14275
 Alpha  occ. eigenvalues --  -10.08357 -10.06951 -10.06665 -10.05654 -10.05577
 Alpha  occ. eigenvalues --  -10.05135 -10.04890 -10.04818 -10.04683 -10.04592
 Alpha  occ. eigenvalues --  -10.03004 -10.02809 -10.02698 -10.00125  -9.99788
 Alpha  occ. eigenvalues --   -9.99286  -9.97857  -9.97730  -9.97614  -9.96045
 Alpha  occ. eigenvalues --   -9.95735  -9.95249  -9.95139  -9.95078  -9.95040
 Alpha  occ. eigenvalues --   -9.94977  -7.80840  -7.77226  -5.77147  -5.76776
 Alpha  occ. eigenvalues --   -5.76405  -5.73554  -5.73159  -5.72758  -0.91583
 Alpha  occ. eigenvalues --   -0.89653  -0.82406  -0.82083  -0.79922  -0.79549
 Alpha  occ. eigenvalues --   -0.72841  -0.71158  -0.70807  -0.70077  -0.66120
 Alpha  occ. eigenvalues --   -0.62118  -0.59947  -0.58948  -0.58877  -0.58417
 Alpha  occ. eigenvalues --   -0.55325  -0.54220  -0.52888  -0.52396  -0.51948
 Alpha  occ. eigenvalues --   -0.50463  -0.49371  -0.47189  -0.43795  -0.42903
 Alpha  occ. eigenvalues --   -0.41944  -0.41691  -0.40243  -0.39625  -0.38481
 Alpha  occ. eigenvalues --   -0.37258  -0.37132  -0.33639  -0.33356  -0.32512
 Alpha  occ. eigenvalues --   -0.32089  -0.31451  -0.30516  -0.30336  -0.29979
 Alpha  occ. eigenvalues --   -0.29542  -0.28730  -0.26972  -0.26629  -0.26331
 Alpha  occ. eigenvalues --   -0.26015  -0.25691  -0.24953  -0.24665  -0.24354
 Alpha  occ. eigenvalues --   -0.23941  -0.22833  -0.22209  -0.22114  -0.21513
 Alpha  occ. eigenvalues --   -0.21024  -0.20517  -0.20467  -0.20229  -0.20032
 Alpha  occ. eigenvalues --   -0.19475  -0.18990  -0.18652  -0.18494  -0.17748
 Alpha  occ. eigenvalues --   -0.17582  -0.17132  -0.16824  -0.16233  -0.16005
 Alpha  occ. eigenvalues --   -0.15671  -0.14606  -0.14374  -0.12718  -0.11718
 Alpha  occ. eigenvalues --   -0.10937  -0.09936  -0.09143  -0.06438  -0.06234
 Alpha  occ. eigenvalues --   -0.06049  -0.05613  -0.05373  -0.04830  -0.04177
 Alpha  occ. eigenvalues --   -0.03824  -0.03378  -0.01806  -0.00409   0.07163
 Alpha virt. eigenvalues --    0.11487   0.12456   0.13286   0.14192   0.15622
 Alpha virt. eigenvalues --    0.16152   0.16264   0.16850   0.16987   0.17209
 Alpha virt. eigenvalues --    0.17267   0.17708   0.18076   0.18292   0.18973

 Mulliken charges:
               1
     1  C    0.291825
     2  C   -0.109718
     3  C    0.086712
     4  C    0.256207
     5  C    0.148877
     6  C   -0.693902
     7  C    0.204890
     8  C   -0.053691
     9  C    0.488055
    10  C   -0.307698
    11  C    0.159265
    12  C    0.297824
    13  C   -0.613832
    14  C   -0.631124
    15  H    0.102178
    16  H    0.104513
    17  H    0.112151
    18  N   -0.121884
    19  N   -0.135902
    20  O   -0.435666
    21  O   -0.423700
    22  O   -0.427402
    23  O   -0.331544
    24  C   -0.193451
    25  H    0.134860
    26  H    0.133426
    27  H    0.158645
    28  C   -0.183309
    29  H    0.133457
    30  H    0.130472
    31  H    0.156530
    32  C    0.340372
    33  C   -0.640200
    34  S   -0.089153
    35  C   -0.518555
    36  H    0.100600
    37  C    0.276496
    38  O   -0.122851
    39  C    0.265507
    40  C   -0.242478
    41  C    0.179393
    42  S   -0.351386
    43  H    0.130941
    44  H    0.144613
    45  H    0.138454
    46  C   -0.119295
    47  O   -0.164739
    48  C   -0.117360
    49  H    0.099500
    50  C   -0.338186
    51  H    0.124256
    52  H    0.101320
    53  H    0.138345
    54  H    0.227342
 Sum of Mulliken charges =  -2.00000

 Dipole moment (field-independent basis, Debye):
    X=            -18.0280    Y=             -1.9679    Z=             -2.7509  Tot=             18.3426
 Quadrupole moment (field-independent basis, Debye-Ang):
   XX=           -423.1888   YY=           -310.9247   ZZ=           -235.6364
   XY=             -4.8498   XZ=              0.2261   YZ=             14.4461

 Normal termination of Gaussian 16 at Fri Oct  8 09:16:39 2021.
