 Gaussian 16, Revision C.01,
 Gaussian 16:  ES64L-G16RevC.01  3-Jul-2019

 -------------------------------------
 # opt=modredundant b3lyp/6-311+g(d,p)
 -------------------------------------

 -----------
 NDI_-40.pdb
 -----------
 Symbolic Z-matrix:
 Charge = -2 Multiplicity = 1

 SCF Done:  E(RB3LYP) =  -2359.38149512     A.U. after   23 cycles
 SCF Done:  E(RB3LYP) =  -2359.39562332     A.U. after   15 cycles
 SCF Done:  E(RB3LYP) =  -2359.39758484     A.U. after   15 cycles
 SCF Done:  E(RB3LYP) =  -2359.39769516     A.U. after   14 cycles
 SCF Done:  E(RB3LYP) =  -2359.39776208     A.U. after   13 cycles
 SCF Done:  E(RB3LYP) =  -2359.39780974     A.U. after   12 cycles
 SCF Done:  E(RB3LYP) =  -2359.39782846     A.U. after   13 cycles
 SCF Done:  E(RB3LYP) =  -2359.39783745     A.U. after   12 cycles
 SCF Done:  E(RB3LYP) =  -2359.39784678     A.U. after   13 cycles
 SCF Done:  E(RB3LYP) =  -2359.39785801     A.U. after   12 cycles
 SCF Done:  E(RB3LYP) =  -2359.40115316     A.U. after   14 cycles
 SCF Done:  E(RB3LYP) =  -2359.40115342     A.U. after   11 cycles
 SCF Done:  E(RB3LYP) =  -2359.40120577     A.U. after   14 cycles
 SCF Done:  E(RB3LYP) =  -2359.40123157     A.U. after   14 cycles
 SCF Done:  E(RB3LYP) =  -2359.40117356     A.U. after   14 cycles
 SCF Done:  E(RB3LYP) =  -2359.40115242     A.U. after   14 cycles
 SCF Done:  E(RB3LYP) =  -2359.40123186     A.U. after   12 cycles
 SCF Done:  E(RB3LYP) =  -2359.40123203     A.U. after   10 cycles
 SCF Done:  E(RB3LYP) =  -2359.40123223     A.U. after   11 cycles
 SCF Done:  E(RB3LYP) =  -2359.40123225     A.U. after   10 cycles
 Optimization completed.
    -- Stationary point found.

                         Standard orientation:
 ---------------------------------------------------------------------
 Center     Atomic      Atomic             Coordinates (Angstroms)
 Number     Number       Type             X           Y           Z
 ---------------------------------------------------------------------
      1          6           0        2.637977   -2.967895    0.227641
      2          6           0        2.299754   -1.576584    0.069757
      3          6           0        3.318824   -0.582698    0.050416
      4          6           0        4.680114   -0.936371    0.171060
      5          6           0        5.066472   -2.320663    0.321551
      6          6           0        0.944575   -1.195636   -0.004666
      7          6           0        2.935258    0.804138   -0.103123
      8          6           0        1.555434    1.166066   -0.223301
      9          6           0        0.534100    0.122493   -0.107831
     10          6           0        1.235109    2.530988   -0.540989
     11          6           0        3.671975    3.163555   -0.360146
     12          6           0        3.974430    1.771369   -0.156236
     13          6           0        5.342654    1.381411   -0.025640
     14          6           0        5.691264    0.072727    0.137096
     15          1           0        6.724248   -0.238346    0.233522
     16          1           0        6.086909    2.167645   -0.068744
     17          1           0        0.212185   -1.985200    0.106282
     18          7           0        2.313904    3.455980   -0.557202
     19          7           0        4.014091   -3.262159    0.335763
     20          8           0        1.824313   -3.910900    0.273983
     21          8           0        6.244734   -2.712335    0.435579
     22          8           0        4.522858    4.079358   -0.387063
     23          8           0        0.104520    2.987932   -0.812859
     24          6           0        1.950193    4.838073   -0.848919
     25          1           0        1.471561    4.904719   -1.829350
     26          1           0        1.229854    5.204026   -0.112271
     27          1           0        2.863993    5.426532   -0.821653
     28          6           0        4.354317   -4.672275    0.485890
     29          1           0        3.909187   -5.075211    1.400017
     30          1           0        3.951879   -5.246385   -0.352419
     31          1           0        5.438346   -4.745150    0.523263
     32          6           0       -0.894588    0.375590    0.015889
     33          6           0       -1.560731    1.347577    0.742707
     34         16           0       -2.061713   -0.735991   -0.697474
     35          6           0       -2.955680    1.187296    0.755873
     36          1           0       -1.032227    2.153483    1.223281
     37          6           0       -3.442012    0.087704    0.049571
     38          8           0       -3.842729    2.003693    1.414016
     39          6           0       -4.794478   -0.347864   -0.104257
     40          6           0       -3.326843    3.211976    1.950161
     41          6           0       -5.290717   -1.508458   -0.697706
     42         16           0       -6.173728    0.622802    0.448193
     43          1           0       -4.188705    3.771554    2.317510
     44          1           0       -2.639815    3.017911    2.782276
     45          1           0       -2.802509    3.792972    1.184752
     46          6           0       -6.706305   -1.609224   -0.724454
     47          8           0       -4.479811   -2.472335   -1.265769
     48          6           0       -7.332161   -0.541445   -0.146453
     49          1           0       -7.218836   -2.453701   -1.169633
     50          6           0       -4.088995   -3.518862   -0.374160
     51          1           0       -8.389031   -0.361483   -0.023081
     52          1           0       -4.964440   -4.088785   -0.035344
     53          1           0       -3.417996   -4.171572   -0.933843
     54          1           0       -3.554254   -3.119966    0.492516
 ---------------------------------------------------------------------

 The electronic state is 1-A.
 Alpha  occ. eigenvalues --  -88.71406 -88.68300 -18.99547 -18.98538 -18.87700
 Alpha  occ. eigenvalues --  -18.87321 -18.86751 -18.86150 -14.15375 -14.14633
 Alpha  occ. eigenvalues --  -10.07336 -10.06619 -10.06149 -10.05959 -10.05948
 Alpha  occ. eigenvalues --  -10.05757 -10.05222 -10.05141 -10.04971 -10.03817
 Alpha  occ. eigenvalues --  -10.02398 -10.02106 -10.02083 -10.00793 -10.00107
 Alpha  occ. eigenvalues --   -9.98438  -9.98339  -9.98205  -9.98144  -9.96779
 Alpha  occ. eigenvalues --   -9.96166  -9.96144  -9.95926  -9.95743  -9.95683
 Alpha  occ. eigenvalues --   -9.95618  -7.79955  -7.76867  -5.76270  -5.75898
 Alpha  occ. eigenvalues --   -5.75506  -5.73201  -5.72816  -5.72384  -0.90826
 Alpha  occ. eigenvalues --   -0.89722  -0.83434  -0.82564  -0.81007  -0.80039
 Alpha  occ. eigenvalues --   -0.72069  -0.71983  -0.71183  -0.69368  -0.66670
 Alpha  occ. eigenvalues --   -0.62251  -0.59937  -0.59321  -0.58510  -0.57717
 Alpha  occ. eigenvalues --   -0.55243  -0.54219  -0.53176  -0.52651  -0.52309
 Alpha  occ. eigenvalues --   -0.50278  -0.49803  -0.47524  -0.44022  -0.42714
 Alpha  occ. eigenvalues --   -0.42395  -0.41875  -0.40464  -0.39735  -0.38243
 Alpha  occ. eigenvalues --   -0.37177  -0.36512  -0.34159  -0.33810  -0.31797
 Alpha  occ. eigenvalues --   -0.31587  -0.31373  -0.30889  -0.30705  -0.30070
 Alpha  occ. eigenvalues --   -0.29193  -0.28603  -0.27386  -0.27108  -0.26673
 Alpha  occ. eigenvalues --   -0.26317  -0.25522  -0.25286  -0.24938  -0.24476
 Alpha  occ. eigenvalues --   -0.23349  -0.23233  -0.22386  -0.22256  -0.21614
 Alpha  occ. eigenvalues --   -0.21157  -0.20899  -0.20658  -0.20389  -0.19938
 Alpha  occ. eigenvalues --   -0.19555  -0.19252  -0.19099  -0.18708  -0.18279
 Alpha  occ. eigenvalues --   -0.17991  -0.17572  -0.16860  -0.16369  -0.15952
 Alpha  occ. eigenvalues --   -0.15383  -0.15065  -0.14887  -0.12658  -0.12015
 Alpha  occ. eigenvalues --   -0.11587  -0.09912  -0.08938  -0.07009  -0.06891
 Alpha  occ. eigenvalues --   -0.06339  -0.06245  -0.05579  -0.05419  -0.04699
 Alpha  occ. eigenvalues --   -0.04617  -0.03472  -0.01678  -0.00210   0.06546
 Alpha virt. eigenvalues --    0.11929   0.12776   0.13858   0.14382   0.15710
 Alpha virt. eigenvalues --    0.15854   0.16600   0.16768   0.16874   0.17133
 Alpha virt. eigenvalues --    0.17334   0.17920   0.18488   0.18709   0.19004

 Mulliken charges:
               1
     1  C    0.202792
     2  C   -0.054249
     3  C    0.091468
     4  C    0.216961
     5  C    0.111619
     6  C   -0.349948
     7  C    0.208799
     8  C    0.239495
     9  C    0.345713
    10  C   -0.488393
    11  C    0.318793
    12  C    0.077469
    13  C   -0.523960
    14  C   -0.610627
    15  H    0.103120
    16  H    0.107349
    17  H    0.147326
    18  N   -0.108051
    19  N   -0.135369
    20  O   -0.426086
    21  O   -0.408470
    22  O   -0.419928
    23  O   -0.345340
    24  C   -0.160421
    25  H    0.139196
    26  H    0.130881
    27  H    0.157843
    28  C   -0.180589
    29  H    0.133763
    30  H    0.135938
    31  H    0.157263
    32  C   -0.036586
    33  C   -0.128573
    34  S   -0.661657
    35  C   -0.636114
    36  H    0.125896
    37  C    0.268899
    38  O   -0.118207
    39  C    0.579410
    40  C   -0.264411
    41  C    0.071950
    42  S   -0.356376
    43  H    0.129002
    44  H    0.129843
    45  H    0.167953
    46  C   -0.093163
    47  O   -0.135285
    48  C   -0.192065
    49  H    0.093742
    50  C   -0.306555
    51  H    0.120186
    52  H    0.106296
    53  H    0.150986
    54  H    0.170468
 Sum of Mulliken charges =  -2.00000

 Dipole moment (field-independent basis, Debye):
    X=            -15.2901    Y=             -0.1273    Z=              2.5447  Tot=             15.5010
 Quadrupole moment (field-independent basis, Debye-Ang):
   XX=           -426.8523   YY=           -307.2777   ZZ=           -238.3256
   XY=             -2.6361   XZ=             -8.6145   YZ=             11.3165

 Normal termination of Gaussian 16 at Fri Oct  8 08:24:06 2021.
