 Gaussian 16, Revision C.01,
 Gaussian 16:  ES64L-G16RevC.01  3-Jul-2019

 -------------------------------------
 # opt=modredundant b3lyp/6-311+g(d,p)
 -------------------------------------

 -----------
 NDI_170.pdb
 -----------
 Symbolic Z-matrix:
 Charge = -2 Multiplicity = 1

 SCF Done:  E(RB3LYP) =  -2359.33663559     A.U. after   23 cycles
 SCF Done:  E(RB3LYP) =  -2359.37069160     A.U. after   20 cycles
 SCF Done:  E(RB3LYP) =  -2359.38555314     A.U. after   18 cycles
 SCF Done:  E(RB3LYP) =  -2359.39011374     A.U. after   17 cycles
 SCF Done:  E(RB3LYP) =  -2359.39200786     A.U. after   17 cycles
 SCF Done:  E(RB3LYP) =  -2359.39275474     A.U. after   17 cycles
 SCF Done:  E(RB3LYP) =  -2359.39314821     A.U. after   14 cycles
 SCF Done:  E(RB3LYP) =  -2359.39343622     A.U. after   15 cycles
 SCF Done:  E(RB3LYP) =  -2359.39355198     A.U. after   14 cycles
 SCF Done:  E(RB3LYP) =  -2359.39361552     A.U. after   14 cycles
 SCF Done:  E(RB3LYP) =  -2359.39769481     A.U. after   14 cycles
 SCF Done:  E(RB3LYP) =  -2359.39770163     A.U. after   14 cycles
 SCF Done:  E(RB3LYP) =  -2359.39770377     A.U. after   12 cycles
 SCF Done:  E(RB3LYP) =  -2359.39770421     A.U. after   12 cycles
 SCF Done:  E(RB3LYP) =  -2359.39770438     A.U. after   10 cycles
 SCF Done:  E(RB3LYP) =  -2359.39770475     A.U. after   10 cycles
 SCF Done:  E(RB3LYP) =  -2359.39770523     A.U. after   10 cycles
 SCF Done:  E(RB3LYP) =  -2359.39770563     A.U. after   10 cycles
 SCF Done:  E(RB3LYP) =  -2359.39770582     A.U. after   11 cycles
 SCF Done:  E(RB3LYP) =  -2359.39770585     A.U. after   10 cycles
 Optimization completed.
    -- Stationary point found.

                         Standard orientation:
 ---------------------------------------------------------------------
 Center     Atomic      Atomic             Coordinates (Angstroms)
 Number     Number       Type             X           Y           Z
 ---------------------------------------------------------------------
      1          6           0       -3.535477   -2.671001    0.009766
      2          6           0       -2.796100   -1.439020    0.124584
      3          6           0       -3.438243   -0.187723   -0.097261
      4          6           0       -4.806135   -0.120754   -0.431032
      5          6           0       -5.587249   -1.331462   -0.557584
      6          6           0       -1.413201   -1.483423    0.374635
      7          6           0       -2.657068    1.019167    0.044618
      8          6           0       -1.271719    0.950266    0.391553
      9          6           0       -0.611540   -0.355628    0.488099
     10          6           0       -0.625668    2.166909    0.791782
     11          6           0       -2.636071    3.505108    0.079085
     12          6           0       -3.329618    2.259220   -0.128107
     13          6           0       -4.712191    2.294761   -0.479732
     14          6           0       -5.434326    1.146181   -0.632999
     15          1           0       -6.485687    1.159632   -0.892608
     16          1           0       -5.164111    3.271187   -0.608264
     17          1           0       -0.974699   -2.471516    0.389542
     18          7           0       -1.316912    3.380670    0.537615
     19          7           0       -4.900411   -2.544076   -0.322784
     20          8           0       -3.069089   -3.814598    0.179516
     21          8           0       -6.797729   -1.357568   -0.850468
     22          8           0       -3.139065    4.635804   -0.093381
     23          8           0        0.484523    2.255922    1.357409
     24          6           0       -0.592055    4.601598    0.871405
     25          1           0       -0.438419    4.675876    1.952487
     26          1           0        0.393620    4.585948    0.402727
     27          1           0       -1.186389    5.440343    0.517209
     28          6           0       -5.648652   -3.790979   -0.434720
     29          1           0       -5.217934   -4.422543   -1.216539
     30          1           0       -5.591836   -4.349002    0.503383
     31          1           0       -6.678099   -3.534706   -0.671981
     32          6           0        0.825130   -0.606004    0.483117
     33          6           0        1.448169   -1.826660    0.770249
     34         16           0        2.013930    0.502018   -0.177608
     35          6           0        2.813333   -1.861048    0.462930
     36          1           0        0.912003   -2.655071    1.206419
     37          6           0        3.326398   -0.683601   -0.081948
     38          8           0        3.658840   -2.925790    0.681461
     39          6           0        4.683373   -0.372081   -0.407484
     40          6           0        3.090401   -4.104381    1.218335
     41          6           0        5.244919    0.834208   -0.829809
     42         16           0        5.974617   -1.590752   -0.352047
     43          1           0        3.905078   -4.826213    1.297292
     44          1           0        2.663702   -3.927677    2.213066
     45          1           0        2.307985   -4.507068    0.564561
     46          6           0        6.635785    0.780844   -1.108574
     47          8           0        4.509622    1.984905   -1.031374
     48          6           0        7.181888   -0.454103   -0.902204
     49          1           0        7.187905    1.644753   -1.459362
     50          6           0        4.429411    2.855519    0.101987
     51          1           0        8.203959   -0.774318   -1.034405
     52          1           0        5.430000    3.198955    0.397374
     53          1           0        3.821071    3.706738   -0.205198
     54          1           0        3.938573    2.363423    0.945506
 ---------------------------------------------------------------------

 The electronic state is 1-A.
 Alpha  occ. eigenvalues --  -88.70932 -88.67608 -18.99491 -18.97758 -18.88107
 Alpha  occ. eigenvalues --  -18.87789 -18.86795 -18.86261 -14.15731 -14.14607
 Alpha  occ. eigenvalues --  -10.07679 -10.06543 -10.06183 -10.05606 -10.05541
 Alpha  occ. eigenvalues --  -10.05398 -10.05285 -10.04892 -10.04628 -10.03324
 Alpha  occ. eigenvalues --  -10.02070 -10.01890 -10.01450 -10.01122 -10.00030
 Alpha  occ. eigenvalues --   -9.98479  -9.98440  -9.98328  -9.98318  -9.97090
 Alpha  occ. eigenvalues --   -9.96484  -9.96231  -9.95997  -9.95950  -9.95806
 Alpha  occ. eigenvalues --   -9.95789  -7.79483  -7.76133  -5.75799  -5.75427
 Alpha  occ. eigenvalues --   -5.75033  -5.72468  -5.72064  -5.71660  -0.90776
 Alpha  occ. eigenvalues --   -0.88921  -0.83844  -0.82620  -0.81446  -0.80127
 Alpha  occ. eigenvalues --   -0.72449  -0.71458  -0.71254  -0.69005  -0.66835
 Alpha  occ. eigenvalues --   -0.62294  -0.59926  -0.59273  -0.58007  -0.57439
 Alpha  occ. eigenvalues --   -0.55421  -0.53603  -0.53538  -0.52702  -0.51839
 Alpha  occ. eigenvalues --   -0.50255  -0.49774  -0.47673  -0.43846  -0.42754
 Alpha  occ. eigenvalues --   -0.42378  -0.41777  -0.40516  -0.39593  -0.37753
 Alpha  occ. eigenvalues --   -0.37243  -0.36252  -0.34335  -0.33958  -0.32062
 Alpha  occ. eigenvalues --   -0.31795  -0.31441  -0.30231  -0.29849  -0.29610
 Alpha  occ. eigenvalues --   -0.29043  -0.28019  -0.27729  -0.27349  -0.26714
 Alpha  occ. eigenvalues --   -0.26249  -0.25505  -0.25206  -0.25117  -0.24406
 Alpha  occ. eigenvalues --   -0.23477  -0.22962  -0.22610  -0.22050  -0.21424
 Alpha  occ. eigenvalues --   -0.21318  -0.21010  -0.20858  -0.20328  -0.19864
 Alpha  occ. eigenvalues --   -0.19518  -0.19350  -0.18796  -0.18419  -0.18315
 Alpha  occ. eigenvalues --   -0.17919  -0.17811  -0.16706  -0.16492  -0.16322
 Alpha  occ. eigenvalues --   -0.15264  -0.14921  -0.14192  -0.12594  -0.11831
 Alpha  occ. eigenvalues --   -0.11392  -0.09642  -0.08498  -0.07308  -0.07071
 Alpha  occ. eigenvalues --   -0.06645  -0.06179  -0.05803  -0.05171  -0.04967
 Alpha  occ. eigenvalues --   -0.04709  -0.03300  -0.01827   0.00148   0.06418
 Alpha virt. eigenvalues --    0.12213   0.13029   0.13844   0.14646   0.15702
 Alpha virt. eigenvalues --    0.15997   0.16551   0.16587   0.16881   0.17447
 Alpha virt. eigenvalues --    0.17542   0.18111   0.18732   0.18951   0.19112

 Mulliken charges:
               1
     1  C    0.240503
     2  C   -0.089778
     3  C    0.153288
     4  C    0.233768
     5  C    0.105654
     6  C    0.111393
     7  C    0.064444
     8  C    0.260257
     9  C    0.283267
    10  C   -0.721761
    11  C    0.171303
    12  C    0.105067
    13  C   -0.491272
    14  C   -0.583555
    15  H    0.103178
    16  H    0.107937
    17  H    0.123536
    18  N   -0.034215
    19  N   -0.137978
    20  O   -0.428135
    21  O   -0.402999
    22  O   -0.421202
    23  O   -0.351575
    24  C   -0.153520
    25  H    0.133915
    26  H    0.140901
    27  H    0.156067
    28  C   -0.180278
    29  H    0.135200
    30  H    0.134802
    31  H    0.156918
    32  C    0.159778
    33  C   -0.553119
    34  S   -0.839932
    35  C   -0.593006
    36  H    0.109904
    37  C    0.665350
    38  O   -0.129702
    39  C    0.461172
    40  C   -0.231745
    41  C    0.005433
    42  S   -0.355143
    43  H    0.132464
    44  H    0.133112
    45  H    0.142898
    46  C   -0.017569
    47  O   -0.139606
    48  C   -0.219981
    49  H    0.092632
    50  C   -0.300105
    51  H    0.118395
    52  H    0.100078
    53  H    0.145744
    54  H    0.187818
 Sum of Mulliken charges =  -2.00000

 Dipole moment (field-independent basis, Debye):
    X=             13.9732    Y=             -3.4961    Z=              1.6622  Tot=             14.4996
 Quadrupole moment (field-independent basis, Debye-Ang):
   XX=           -420.9370   YY=           -303.1348   ZZ=           -242.4458
   XY=              6.1850   XZ=             -4.4588   YZ=             -3.0782

 Normal termination of Gaussian 16 at Fri Oct  8 21:32:10 2021.
