 Gaussian 16, Revision C.01,
 Gaussian 16:  ES64L-G16RevC.01  3-Jul-2019

 -------------------------------------
 # opt=modredundant b3lyp/6-311+g(d,p)
 -------------------------------------

 -----------
 NDI_115.pdb
 -----------
 Symbolic Z-matrix:
 Charge = -2 Multiplicity = 1

 SCF Done:  E(RB3LYP) =  -2359.37264516     A.U. after   24 cycles
 SCF Done:  E(RB3LYP) =  -2359.38866131     A.U. after   15 cycles
 SCF Done:  E(RB3LYP) =  -2359.39138168     A.U. after   15 cycles
 SCF Done:  E(RB3LYP) =  -2359.39149780     A.U. after   14 cycles
 SCF Done:  E(RB3LYP) =  -2359.39160825     A.U. after   13 cycles
 SCF Done:  E(RB3LYP) =  -2359.39168716     A.U. after   13 cycles
 SCF Done:  E(RB3LYP) =  -2359.39170869     A.U. after   12 cycles
 SCF Done:  E(RB3LYP) =  -2359.39173351     A.U. after   12 cycles
 SCF Done:  E(RB3LYP) =  -2359.39182836     A.U. after   15 cycles
 SCF Done:  E(RB3LYP) =  -2359.39184636     A.U. after   14 cycles
 SCF Done:  E(RB3LYP) =  -2359.39630292     A.U. after   14 cycles
 SCF Done:  E(RB3LYP) =  -2359.39631219     A.U. after   13 cycles
 SCF Done:  E(RB3LYP) =  -2359.39631472     A.U. after   12 cycles
 SCF Done:  E(RB3LYP) =  -2359.39631585     A.U. after   12 cycles
 SCF Done:  E(RB3LYP) =  -2359.39631645     A.U. after   11 cycles
 SCF Done:  E(RB3LYP) =  -2359.39631736     A.U. after   12 cycles
 SCF Done:  E(RB3LYP) =  -2359.39631837     A.U. after   12 cycles
 SCF Done:  E(RB3LYP) =  -2359.39631921     A.U. after   12 cycles
 SCF Done:  E(RB3LYP) =  -2359.39631981     A.U. after   12 cycles
 SCF Done:  E(RB3LYP) =  -2359.39632001     A.U. after   11 cycles
 Optimization completed.
    -- Stationary point found.

                         Standard orientation:
 ---------------------------------------------------------------------
 Center     Atomic      Atomic             Coordinates (Angstroms)
 Number     Number       Type             X           Y           Z
 ---------------------------------------------------------------------
      1          6           0        3.598062   -2.676708    0.361640
      2          6           0        2.828055   -1.482432    0.149665
      3          6           0        3.462537   -0.209796    0.131022
      4          6           0        4.858952   -0.086911    0.320509
      5          6           0        5.669979   -1.256846    0.545563
      6          6           0        1.420972   -1.571820   -0.011432
      7          6           0        2.659151    0.970817   -0.108237
      8          6           0        1.249217    0.850699   -0.306484
      9          6           0        0.628670   -0.461450   -0.192931
     10          6           0        0.498949    2.015115   -0.682627
     11          6           0        2.577632    3.426608   -0.460191
     12          6           0        3.316648    2.227504   -0.171425
     13          6           0        4.730937    2.316504    0.029682
     14          6           0        5.478624    1.202213    0.271729
     15          1           0        6.550367    1.254148    0.421200
     16          1           0        5.178948    3.301510   -0.025982
     17          1           0        0.970237   -2.553493    0.072234
     18          7           0        1.204882    3.242731   -0.712848
     19          7           0        4.984835   -2.493661    0.551935
     20          8           0        3.142750   -3.839928    0.389305
     21          8           0        6.906085   -1.237012    0.725421
     22          8           0        3.073343    4.574027   -0.513323
     23          8           0       -0.713204    2.044081   -0.992206
     24          6           0        0.414638    4.414775   -1.070854
     25          1           0       -0.019631    4.289568   -2.066534
     26          1           0       -0.414378    4.540635   -0.369360
     27          1           0        1.079339    5.274757   -1.043295
     28          6           0        5.762409   -3.707122    0.771498
     29          1           0        5.390109   -4.240119    1.650566
     30          1           0        5.661595   -4.381379   -0.083623
     31          1           0        6.799235   -3.409914    0.908608
     32          6           0       -0.819867   -0.693650   -0.275012
     33          6           0       -1.498174   -1.400497   -1.244228
     34         16           0       -1.939989   -0.081013    0.919769
     35          6           0       -2.899685   -1.420703   -1.051460
     36          1           0       -0.982419   -1.834586   -2.087877
     37          6           0       -3.343048   -0.718129    0.060166
     38          8           0       -3.813004   -2.035061   -1.874979
     39          6           0       -4.694865   -0.473140    0.484728
     40          6           0       -3.319382   -2.610043   -3.071094
     41          6           0       -5.187670    0.516978    1.328352
     42         16           0       -6.038903   -1.512447   -0.008179
     43          1           0       -4.187210   -3.018210   -3.591495
     44          1           0       -2.833560   -1.859240   -3.704806
     45          1           0       -2.606941   -3.417295   -2.864776
     46          6           0       -6.583837    0.432233    1.585646
     47          8           0       -4.417717    1.492825    1.918803
     48          6           0       -7.186384   -0.610434    0.942021
     49          1           0       -7.095732    1.140563    2.225300
     50          6           0       -4.043663    2.582018    1.057323
     51          1           0       -8.229856   -0.886060    0.933096
     52          1           0       -4.939795    3.060426    0.642411
     53          1           0       -3.504451    3.291278    1.685770
     54          1           0       -3.380774    2.253134    0.253934
 ---------------------------------------------------------------------

 The electronic state is 1-A.
 Alpha  occ. eigenvalues --  -88.72114 -88.68510 -19.00256 -18.98444 -18.86817
 Alpha  occ. eigenvalues --  -18.86544 -18.86276 -18.86007 -14.14695 -14.14304
 Alpha  occ. eigenvalues --  -10.08326 -10.06738 -10.06576 -10.05645 -10.05565
 Alpha  occ. eigenvalues --  -10.05285 -10.04958 -10.04760 -10.04674 -10.04621
 Alpha  occ. eigenvalues --  -10.02872 -10.02718 -10.02596 -10.00229  -9.99810
 Alpha  occ. eigenvalues --   -9.99203  -9.97923  -9.97818  -9.97670  -9.96158
 Alpha  occ. eigenvalues --   -9.95759  -9.95385  -9.95257  -9.95169  -9.95134
 Alpha  occ. eigenvalues --   -9.95072  -7.80681  -7.77099  -5.76989  -5.76618
 Alpha  occ. eigenvalues --   -5.76243  -5.73429  -5.73034  -5.72628  -0.91556
 Alpha  occ. eigenvalues --   -0.89588  -0.82556  -0.82140  -0.80081  -0.79616
 Alpha  occ. eigenvalues --   -0.72678  -0.71293  -0.70849  -0.69968  -0.66202
 Alpha  occ. eigenvalues --   -0.62131  -0.59933  -0.59001  -0.58798  -0.58333
 Alpha  occ. eigenvalues --   -0.55320  -0.54178  -0.52943  -0.52382  -0.52017
 Alpha  occ. eigenvalues --   -0.50428  -0.49436  -0.47252  -0.43737  -0.42904
 Alpha  occ. eigenvalues --   -0.42012  -0.41716  -0.40234  -0.39693  -0.38414
 Alpha  occ. eigenvalues --   -0.37203  -0.37090  -0.33708  -0.33423  -0.32480
 Alpha  occ. eigenvalues --   -0.31986  -0.31507  -0.30530  -0.30311  -0.29962
 Alpha  occ. eigenvalues --   -0.29531  -0.28657  -0.27019  -0.26740  -0.26365
 Alpha  occ. eigenvalues --   -0.26024  -0.25666  -0.24972  -0.24713  -0.24432
 Alpha  occ. eigenvalues --   -0.23859  -0.22874  -0.22180  -0.22119  -0.21528
 Alpha  occ. eigenvalues --   -0.21046  -0.20587  -0.20450  -0.20281  -0.20078
 Alpha  occ. eigenvalues --   -0.19423  -0.19029  -0.18722  -0.18512  -0.17741
 Alpha  occ. eigenvalues --   -0.17658  -0.17118  -0.16903  -0.16156  -0.16075
 Alpha  occ. eigenvalues --   -0.15692  -0.14684  -0.14436  -0.12513  -0.11823
 Alpha  occ. eigenvalues --   -0.11010  -0.09961  -0.09143  -0.06477  -0.06308
 Alpha  occ. eigenvalues --   -0.06095  -0.05704  -0.05415  -0.04873  -0.04249
 Alpha  occ. eigenvalues --   -0.03926  -0.03391  -0.01698  -0.00447   0.07079
 Alpha virt. eigenvalues --    0.11589   0.12520   0.13315   0.14250   0.15663
 Alpha virt. eigenvalues --    0.16179   0.16281   0.16859   0.17034   0.17172
 Alpha virt. eigenvalues --    0.17304   0.17740   0.18143   0.18366   0.18995

 Mulliken charges:
               1
     1  C    0.283162
     2  C   -0.139179
     3  C    0.085631
     4  C    0.259721
     5  C    0.148936
     6  C   -0.636832
     7  C    0.207017
     8  C   -0.002819
     9  C    0.462614
    10  C   -0.334615
    11  C    0.170714
    12  C    0.287529
    13  C   -0.594718
    14  C   -0.634700
    15  H    0.102355
    16  H    0.104869
    17  H    0.114571
    18  N   -0.112444
    19  N   -0.135616
    20  O   -0.434779
    21  O   -0.421884
    22  O   -0.426952
    23  O   -0.334364
    24  C   -0.184783
    25  H    0.135149
    26  H    0.134246
    27  H    0.158345
    28  C   -0.183011
    29  H    0.133748
    30  H    0.130864
    31  H    0.156772
    32  C    0.269061
    33  C   -0.641181
    34  S   -0.121292
    35  C   -0.511717
    36  H    0.102219
    37  C    0.270676
    38  O   -0.121016
    39  C    0.283163
    40  C   -0.244032
    41  C    0.194042
    42  S   -0.349587
    43  H    0.131575
    44  H    0.143169
    45  H    0.139071
    46  C   -0.094542
    47  O   -0.163872
    48  C   -0.135048
    49  H    0.098446
    50  C   -0.332619
    51  H    0.123507
    52  H    0.101908
    53  H    0.139263
    54  H    0.219258
 Sum of Mulliken charges =  -2.00000

 Dipole moment (field-independent basis, Debye):
    X=            -17.5791    Y=             -2.1473    Z=             -2.6132  Tot=             17.9015
 Quadrupole moment (field-independent basis, Debye-Ang):
   XX=           -423.3041   YY=           -309.5202   ZZ=           -236.6997
   XY=             -5.0418   XZ=             -0.1347   YZ=             15.1065

 Normal termination of Gaussian 16 at Fri Oct  8 13:31:46 2021.
