 Gaussian 16, Revision C.01,
 Gaussian 16:  ES64L-G16RevC.01  3-Jul-2019

 -------------------------------------
 # opt=modredundant b3lyp/6-311+g(d,p)
 -------------------------------------

 -----------
 NDI_-10.pdb
 -----------
 Symbolic Z-matrix:
 Charge = -2 Multiplicity = 1

 SCF Done:  E(RB3LYP) =  -2359.36935009     A.U. after   23 cycles
 SCF Done:  E(RB3LYP) =  -2359.37088153     A.U. after   20 cycles
 SCF Done:  E(RB3LYP) =  -2359.38121956     A.U. after   14 cycles
 SCF Done:  E(RB3LYP) =  -2359.39084909     A.U. after   16 cycles
 SCF Done:  E(RB3LYP) =  -2359.39541789     A.U. after   18 cycles
 SCF Done:  E(RB3LYP) =  -2359.39624933     A.U. after   16 cycles
 SCF Done:  E(RB3LYP) =  -2359.39647955     A.U. after   15 cycles
 SCF Done:  E(RB3LYP) =  -2359.39668839     A.U. after   14 cycles
 SCF Done:  E(RB3LYP) =  -2359.39676426     A.U. after   13 cycles
 SCF Done:  E(RB3LYP) =  -2359.39678012     A.U. after   13 cycles
 SCF Done:  E(RB3LYP) =  -2359.40005476     A.U. after   13 cycles
 SCF Done:  E(RB3LYP) =  -2359.40006928     A.U. after   13 cycles
 SCF Done:  E(RB3LYP) =  -2359.40008281     A.U. after   13 cycles
 SCF Done:  E(RB3LYP) =  -2359.40008974     A.U. after   12 cycles
 SCF Done:  E(RB3LYP) =  -2359.40009820     A.U. after   13 cycles
 SCF Done:  E(RB3LYP) =  -2359.40010465     A.U. after   11 cycles
 SCF Done:  E(RB3LYP) =  -2359.40010697     A.U. after   12 cycles
 SCF Done:  E(RB3LYP) =  -2359.40010777     A.U. after   12 cycles
 SCF Done:  E(RB3LYP) =  -2359.40010812     A.U. after   11 cycles
 SCF Done:  E(RB3LYP) =  -2359.40010819     A.U. after   10 cycles
 Optimization completed.
    -- Stationary point found.

                         Standard orientation:
 ---------------------------------------------------------------------
 Center     Atomic      Atomic             Coordinates (Angstroms)
 Number     Number       Type             X           Y           Z
 ---------------------------------------------------------------------
      1          6           0       -2.598857   -2.993742    0.152348
      2          6           0       -2.280320   -1.587032    0.180676
      3          6           0       -3.294538   -0.610711   -0.038263
      4          6           0       -4.627901   -0.994453   -0.285937
      5          6           0       -4.993120   -2.394498   -0.323208
      6          6           0       -0.942844   -1.183790    0.323816
      7          6           0       -2.929257    0.787540    0.016158
      8          6           0       -1.576239    1.179008    0.275062
      9          6           0       -0.528999    0.141420    0.337537
     10          6           0       -1.341150    2.555529    0.611432
     11          6           0       -3.708517    3.148008   -0.026711
     12          6           0       -3.972943    1.738501   -0.151721
     13          6           0       -5.310486    1.318840   -0.418540
     14          6           0       -5.636496   -0.004349   -0.489486
     15          1           0       -6.648646   -0.337767   -0.682268
     16          1           0       -6.054388    2.095866   -0.548453
     17          1           0       -0.212799   -1.984200    0.342273
     18          7           0       -2.403773    3.470136    0.368864
     19          7           0       -3.950705   -3.317401   -0.091120
     20          8           0       -1.787861   -3.922991    0.319839
     21          8           0       -6.146757   -2.810592   -0.539815
     22          8           0       -4.553337    4.050341   -0.213394
     23          8           0       -0.300206    3.040067    1.108057
     24          6           0       -2.103367    4.870819    0.643604
     25          1           0       -1.870206    5.011500    1.702721
     26          1           0       -1.225345    5.185815    0.074480
     27          1           0       -2.979018    5.451050    0.362983
     28          6           0       -4.272132   -4.739965   -0.113077
     29          1           0       -3.728071   -5.240567   -0.919062
     30          1           0       -3.965812   -5.206847    0.826013
     31          1           0       -5.344916   -4.831334   -0.262943
     32          6           0        0.892247    0.376896    0.163953
     33          6           0        1.567035    1.511458   -0.266993
     34         16           0        2.079141   -0.895570    0.530445
     35          6           0        2.959320    1.354164   -0.350644
     36          1           0        1.048961    2.431372   -0.468751
     37          6           0        3.452366    0.106058    0.021986
     38          8           0        3.839275    2.322569   -0.764742
     39          6           0        4.801154   -0.360642    0.013596
     40          6           0        3.302567    3.608708   -1.035955
     41          6           0        5.305929   -1.630808    0.297266
     42         16           0        6.171050    0.704500   -0.364822
     43          1           0        4.156118    4.247044   -1.269981
     44          1           0        2.620720    3.582144   -1.893580
     45          1           0        2.764906    4.006212   -0.169462
     46          6           0        6.718789   -1.743304    0.227438
     47          8           0        4.505577   -2.693040    0.672928
     48          6           0        7.335810   -0.574848   -0.119512
     49          1           0        7.237649   -2.670601    0.439961
     50          6           0        4.096953   -3.540021   -0.402241
     51          1           0        8.388901   -0.377014   -0.247679
     52          1           0        4.964420   -4.029271   -0.865466
     53          1           0        3.435287   -4.292973    0.027866
     54          1           0        3.546979   -2.976003   -1.161298
 ---------------------------------------------------------------------

 The electronic state is 1-A.
 Alpha  occ. eigenvalues --  -88.71168 -88.67837 -18.99327 -18.98337 -18.88191
 Alpha  occ. eigenvalues --  -18.87752 -18.86907 -18.86289 -14.15738 -14.14755
 Alpha  occ. eigenvalues --  -10.07001 -10.06624 -10.06494 -10.06201 -10.05708
 Alpha  occ. eigenvalues --  -10.05704 -10.05371 -10.05092 -10.04921 -10.03562
 Alpha  occ. eigenvalues --  -10.02192 -10.01968 -10.01848 -10.01100 -10.00265
 Alpha  occ. eigenvalues --   -9.98619  -9.98552  -9.98308  -9.97519  -9.97139
 Alpha  occ. eigenvalues --   -9.96571  -9.96290  -9.96238  -9.96022  -9.95897
 Alpha  occ. eigenvalues --   -9.95853  -7.79716  -7.76411  -5.76032  -5.75659
 Alpha  occ. eigenvalues --   -5.75264  -5.72754  -5.72373  -5.71906  -0.90599
 Alpha  occ. eigenvalues --   -0.89525  -0.83919  -0.82720  -0.81524  -0.80185
 Alpha  occ. eigenvalues --   -0.72490  -0.71720  -0.71327  -0.68993  -0.66871
 Alpha  occ. eigenvalues --   -0.62331  -0.60027  -0.59340  -0.58306  -0.57471
 Alpha  occ. eigenvalues --   -0.55285  -0.54146  -0.53267  -0.52831  -0.52102
 Alpha  occ. eigenvalues --   -0.50343  -0.49845  -0.47656  -0.44172  -0.42817
 Alpha  occ. eigenvalues --   -0.42446  -0.41912  -0.40614  -0.39651  -0.38031
 Alpha  occ. eigenvalues --   -0.37156  -0.36263  -0.34376  -0.33996  -0.31940
 Alpha  occ. eigenvalues --   -0.31371  -0.31277  -0.30770  -0.30537  -0.29906
 Alpha  occ. eigenvalues --   -0.28980  -0.28461  -0.27738  -0.27217  -0.26834
 Alpha  occ. eigenvalues --   -0.26348  -0.25637  -0.25261  -0.25146  -0.24316
 Alpha  occ. eigenvalues --   -0.23528  -0.23089  -0.22560  -0.22395  -0.21499
 Alpha  occ. eigenvalues --   -0.21420  -0.21017  -0.20820  -0.20361  -0.19795
 Alpha  occ. eigenvalues --   -0.19473  -0.19441  -0.19255  -0.18619  -0.18574
 Alpha  occ. eigenvalues --   -0.18018  -0.17860  -0.16846  -0.16311  -0.16129
 Alpha  occ. eigenvalues --   -0.15463  -0.14998  -0.14693  -0.12847  -0.11915
 Alpha  occ. eigenvalues --   -0.11688  -0.09780  -0.08761  -0.07329  -0.07139
 Alpha  occ. eigenvalues --   -0.06637  -0.06256  -0.05751  -0.05373  -0.05041
 Alpha  occ. eigenvalues --   -0.04890  -0.03551  -0.01937   0.00091   0.06303
 Alpha virt. eigenvalues --    0.11905   0.12898   0.14042   0.14548   0.15564
 Alpha virt. eigenvalues --    0.15842   0.16568   0.16624   0.16775   0.17261
 Alpha virt. eigenvalues --    0.17558   0.18094   0.18611   0.18912   0.19007

 Mulliken charges:
               1
     1  C    0.130949
     2  C    0.043152
     3  C    0.270613
     4  C    0.266126
     5  C    0.105470
     6  C    0.186259
     7  C    0.239458
     8  C    0.493661
     9  C   -0.002848
    10  C   -0.979931
    11  C    0.094309
    12  C    0.259945
    13  C   -0.473429
    14  C   -0.605660
    15  H    0.103553
    16  H    0.108627
    17  H    0.133947
    18  N   -0.054167
    19  N   -0.133540
    20  O   -0.420005
    21  O   -0.403543
    22  O   -0.420328
    23  O   -0.388993
    24  C   -0.143251
    25  H    0.137672
    26  H    0.129093
    27  H    0.156805
    28  C   -0.180002
    29  H    0.134924
    30  H    0.137309
    31  H    0.156235
    32  C   -0.291673
    33  C   -0.069174
    34  S   -0.887462
    35  C   -0.632977
    36  H    0.152822
    37  C    0.459264
    38  O   -0.119962
    39  C    0.473494
    40  C   -0.258636
    41  C    0.094933
    42  S   -0.357337
    43  H    0.129055
    44  H    0.133848
    45  H    0.167241
    46  C   -0.066736
    47  O   -0.142056
    48  C   -0.209055
    49  H    0.092762
    50  C   -0.289986
    51  H    0.119111
    52  H    0.103831
    53  H    0.151072
    54  H    0.165210
 Sum of Mulliken charges =  -2.00000

 Dipole moment (field-independent basis, Debye):
    X=             14.2393    Y=              0.0225    Z=             -2.2144  Tot=             14.4105
 Quadrupole moment (field-independent basis, Debye-Ang):
   XX=           -424.1380   YY=           -306.7351   ZZ=           -240.4009
   XY=              5.1805   XZ=            -14.3003   YZ=             -1.8964

 Normal termination of Gaussian 16 at Fri Oct  8 07:23:01 2021.
