 Gaussian 16, Revision C.01,
 Gaussian 16:  ES64L-G16RevC.01  3-Jul-2019

 -------------------------------------
 # opt=modredundant b3lyp/6-311+g(d,p)
 -------------------------------------

 ----------
 NDI_70.pdb
 ----------
 Symbolic Z-matrix:
 Charge = -2 Multiplicity = 1

 SCF Done:  E(RB3LYP) =  -2359.37099806     A.U. after   25 cycles
 SCF Done:  E(RB3LYP) =  -2359.38883864     A.U. after   17 cycles
 SCF Done:  E(RB3LYP) =  -2359.39264428     A.U. after   17 cycles
 SCF Done:  E(RB3LYP) =  -2359.39312475     A.U. after   15 cycles
 SCF Done:  E(RB3LYP) =  -2359.39322501     A.U. after   14 cycles
 SCF Done:  E(RB3LYP) =  -2359.39335476     A.U. after   13 cycles
 SCF Done:  E(RB3LYP) =  -2359.39341334     A.U. after   13 cycles
 SCF Done:  E(RB3LYP) =  -2359.39346063     A.U. after   13 cycles
 SCF Done:  E(RB3LYP) =  -2359.39348337     A.U. after   13 cycles
 SCF Done:  E(RB3LYP) =  -2359.39358576     A.U. after   14 cycles
 SCF Done:  E(RB3LYP) =  -2359.39666971     A.U. after   13 cycles
 SCF Done:  E(RB3LYP) =  -2359.39667348     A.U. after   13 cycles
 SCF Done:  E(RB3LYP) =  -2359.39667483     A.U. after   12 cycles
 SCF Done:  E(RB3LYP) =  -2359.39667514     A.U. after   12 cycles
 SCF Done:  E(RB3LYP) =  -2359.39667527     A.U. after   12 cycles
 SCF Done:  E(RB3LYP) =  -2359.39667530     A.U. after   10 cycles
 SCF Done:  E(RB3LYP) =  -2359.39667531     A.U. after    9 cycles
 SCF Done:  E(RB3LYP) =  -2359.39667534     A.U. after    9 cycles
 SCF Done:  E(RB3LYP) =  -2359.39667537     A.U. after    9 cycles
 SCF Done:  E(RB3LYP) =  -2359.39667540     A.U. after   10 cycles
 Optimization completed.
    -- Stationary point found.

                         Standard orientation:
 ---------------------------------------------------------------------
 Center     Atomic      Atomic             Coordinates (Angstroms)
 Number     Number       Type             X           Y           Z
 ---------------------------------------------------------------------
      1          6           0       -2.715113   -2.889920    0.524127
      2          6           0       -2.338664   -1.520760    0.296918
      3          6           0       -3.331768   -0.530053    0.063368
      4          6           0       -4.705179   -0.865185    0.034705
      5          6           0       -5.128703   -2.226079    0.252204
      6          6           0       -0.969307   -1.158011    0.319288
      7          6           0       -2.915638    0.839006   -0.152800
      8          6           0       -1.529430    1.182786   -0.113026
      9          6           0       -0.547207    0.146789    0.174816
     10          6           0       -1.143002    2.542535   -0.366843
     11          6           0       -3.565710    3.180922   -0.661406
     12          6           0       -3.919265    1.809493   -0.413188
     13          6           0       -5.300279    1.435959   -0.437979
     14          6           0       -5.685050    0.146283   -0.218268
     15          1           0       -6.726774   -0.150586   -0.234222
     16          1           0       -6.021919    2.218492   -0.640254
     17          1           0       -0.251987   -1.944629    0.517310
     18          7           0       -2.186710    3.460642   -0.641288
     19          7           0       -4.098731   -3.166218    0.484368
     20          8           0       -1.927035   -3.832244    0.747115
     21          8           0       -6.318547   -2.605252    0.247002
     22          8           0       -4.385066    4.098157   -0.889704
     23          8           0        0.025400    2.986385   -0.375334
     24          6           0       -1.764368    4.829939   -0.912320
     25          1           0       -1.272069    5.260427   -0.034883
     26          1           0       -1.038726    4.841815   -1.728691
     27          1           0       -2.654598    5.400118   -1.166336
     28          6           0       -4.476567   -4.556083    0.710698
     29          1           0       -3.998529   -5.201978   -0.030568
     30          1           0       -4.136205   -4.885710    1.696363
     31          1           0       -5.559633   -4.616113    0.637026
     32          6           0        0.899034    0.392767    0.275699
     33          6           0        1.614331    1.069642    1.241306
     34         16           0        1.991991   -0.505272   -0.757135
     35          6           0        3.007250    0.891866    1.142272
     36          1           0        1.122733    1.693157    1.971838
     37          6           0        3.426676    0.041208    0.121974
     38          8           0        3.944652    1.453900    1.975433
     39          6           0        4.761105   -0.353119   -0.219465
     40          6           0        3.500967    2.495117    2.830092
     41          6           0        5.191351   -1.320280   -1.124104
     42         16           0        6.190437    0.424374    0.483369
     43          1           0        4.395971    2.896940    3.307950
     44          1           0        2.995388    3.284045    2.263541
     45          1           0        2.819561    2.116804    3.601309
     46          6           0        6.601014   -1.423104   -1.264597
     47          8           0        4.325749   -2.092808   -1.872431
     48          6           0        7.283022   -0.549746   -0.466553
     49          1           0        7.066534   -2.125289   -1.945652
     50          6           0        3.944090   -3.324267   -1.253603
     51          1           0        8.349334   -0.418638   -0.364258
     52          1           0        3.462933   -3.148649   -0.287395
     53          1           0        3.228309   -3.800982   -1.924125
     54          1           0        4.816146   -3.977150   -1.116785
 ---------------------------------------------------------------------

 The electronic state is 1-A.
 Alpha  occ. eigenvalues --  -88.71933 -88.68868 -18.99995 -18.98977 -18.87006
 Alpha  occ. eigenvalues --  -18.86727 -18.86409 -18.86027 -14.14847 -14.14405
 Alpha  occ. eigenvalues --  -10.07884 -10.06996 -10.06535 -10.06379 -10.05618
 Alpha  occ. eigenvalues --  -10.05470 -10.05147 -10.04884 -10.04720 -10.04385
 Alpha  occ. eigenvalues --  -10.02864 -10.02609 -10.02584 -10.00346  -9.99877
 Alpha  occ. eigenvalues --   -9.98821  -9.98053  -9.97962  -9.97947  -9.96327
 Alpha  occ. eigenvalues --   -9.95900  -9.95560  -9.95442  -9.95311  -9.95272
 Alpha  occ. eigenvalues --   -9.95211  -7.80486  -7.77433  -5.76798  -5.76426
 Alpha  occ. eigenvalues --   -5.76041  -5.73761  -5.73365  -5.72974  -0.91275
 Alpha  occ. eigenvalues --   -0.90195  -0.82753  -0.82261  -0.80293  -0.79739
 Alpha  occ. eigenvalues --   -0.72543  -0.71467  -0.70944  -0.69910  -0.66338
 Alpha  occ. eigenvalues --   -0.62158  -0.59986  -0.59108  -0.58991  -0.58160
 Alpha  occ. eigenvalues --   -0.55250  -0.54426  -0.52931  -0.52845  -0.52158
 Alpha  occ. eigenvalues --   -0.50417  -0.49553  -0.47285  -0.43932  -0.42882
 Alpha  occ. eigenvalues --   -0.42126  -0.41769  -0.40307  -0.39760  -0.38711
 Alpha  occ. eigenvalues --   -0.37250  -0.36952  -0.33829  -0.33517  -0.32118
 Alpha  occ. eigenvalues --   -0.31862  -0.31522  -0.31128  -0.31099  -0.30137
 Alpha  occ. eigenvalues --   -0.29547  -0.28940  -0.26966  -0.26868  -0.26447
 Alpha  occ. eigenvalues --   -0.26318  -0.25768  -0.24960  -0.24819  -0.24553
 Alpha  occ. eigenvalues --   -0.23750  -0.23020  -0.22316  -0.22216  -0.21557
 Alpha  occ. eigenvalues --   -0.20899  -0.20763  -0.20600  -0.20359  -0.20152
 Alpha  occ. eigenvalues --   -0.19446  -0.19186  -0.18844  -0.18654  -0.17815
 Alpha  occ. eigenvalues --   -0.17792  -0.17193  -0.17007  -0.16305  -0.16089
 Alpha  occ. eigenvalues --   -0.15492  -0.14777  -0.14688  -0.12699  -0.12030
 Alpha  occ. eigenvalues --   -0.11233  -0.10089  -0.09367  -0.06661  -0.06480
 Alpha  occ. eigenvalues --   -0.06173  -0.05851  -0.05419  -0.05195  -0.04293
 Alpha  occ. eigenvalues --   -0.04094  -0.03473  -0.01519  -0.00482   0.06976
 Alpha virt. eigenvalues --    0.11675   0.12510   0.13516   0.14073   0.15472
 Alpha virt. eigenvalues --    0.16110   0.16437   0.16867   0.16892   0.17082
 Alpha virt. eigenvalues --    0.17198   0.17743   0.18276   0.18320   0.18618

 Mulliken charges:
               1
     1  C    0.307497
     2  C   -0.098442
     3  C    0.052261
     4  C    0.227321
     5  C    0.128566
     6  C   -0.793393
     7  C    0.205167
     8  C    0.096286
     9  C    0.653451
    10  C   -0.364227
    11  C    0.215075
    12  C    0.171793
    13  C   -0.549945
    14  C   -0.636813
    15  H    0.102267
    16  H    0.105020
    17  H    0.134892
    18  N   -0.155995
    19  N   -0.136934
    20  O   -0.431918
    21  O   -0.417629
    22  O   -0.426074
    23  O   -0.302372
    24  C   -0.195264
    25  H    0.128811
    26  H    0.140173
    27  H    0.158279
    28  C   -0.180060
    29  H    0.133937
    30  H    0.132241
    31  H    0.157281
    32  C   -0.009668
    33  C   -0.361865
    34  S   -0.403915
    35  C   -0.506127
    36  H    0.107848
    37  C    0.479325
    38  O   -0.129436
    39  C    0.424921
    40  C   -0.265832
    41  C    0.163881
    42  S   -0.357742
    43  H    0.130121
    44  H    0.164021
    45  H    0.129373
    46  C   -0.144135
    47  O   -0.136283
    48  C   -0.178039
    49  H    0.095837
    50  C   -0.314093
    51  H    0.121945
    52  H    0.171462
    53  H    0.150485
    54  H    0.106667
 Sum of Mulliken charges =  -2.00000

 Dipole moment (field-independent basis, Debye):
    X=             17.1620    Y=             -0.6276    Z=              2.6590  Tot=             17.3782
 Quadrupole moment (field-independent basis, Debye-Ang):
   XX=           -424.6540   YY=           -309.2153   ZZ=           -237.1848
   XY=             -0.6568   XZ=              2.2276   YZ=             19.0166

 Normal termination of Gaussian 16 at Fri Oct  8 12:39:51 2021.
