 Gaussian 16, Revision C.01,
 Gaussian 16:  ES64L-G16RevC.01  3-Jul-2019

 -------------------------------------
 # opt=modredundant b3lyp/6-311+g(d,p)
 -------------------------------------

 -----------
 NDI_-55.pdb
 -----------
 Symbolic Z-matrix:
 Charge = -2 Multiplicity = 1

 SCF Done:  E(RB3LYP) =  -2359.37907860     A.U. after   23 cycles
 SCF Done:  E(RB3LYP) =  -2359.39394620     A.U. after   17 cycles
 SCF Done:  E(RB3LYP) =  -2359.39577969     A.U. after   15 cycles
 SCF Done:  E(RB3LYP) =  -2359.39578183     A.U. after   14 cycles
 SCF Done:  E(RB3LYP) =  -2359.39618867     A.U. after   13 cycles
 SCF Done:  E(RB3LYP) =  -2359.39621454     A.U. after   12 cycles
 SCF Done:  E(RB3LYP) =  -2359.39622279     A.U. after   12 cycles
 SCF Done:  E(RB3LYP) =  -2359.39623093     A.U. after   12 cycles
 SCF Done:  E(RB3LYP) =  -2359.39623912     A.U. after   13 cycles
 SCF Done:  E(RB3LYP) =  -2359.39625008     A.U. after   13 cycles
 SCF Done:  E(RB3LYP) =  -2359.39954595     A.U. after   13 cycles
 SCF Done:  E(RB3LYP) =  -2359.39954648     A.U. after   11 cycles
 SCF Done:  E(RB3LYP) =  -2359.39954670     A.U. after   11 cycles
 SCF Done:  E(RB3LYP) =  -2359.39954677     A.U. after   11 cycles
 SCF Done:  E(RB3LYP) =  -2359.39954685     A.U. after   11 cycles
 SCF Done:  E(RB3LYP) =  -2359.39954690     A.U. after   10 cycles
 SCF Done:  E(RB3LYP) =  -2359.39954697     A.U. after   10 cycles
 SCF Done:  E(RB3LYP) =  -2359.39954703     A.U. after   10 cycles
 SCF Done:  E(RB3LYP) =  -2359.39954708     A.U. after    9 cycles
 SCF Done:  E(RB3LYP) =  -2359.39954711     A.U. after   10 cycles
 Optimization completed.
    -- Stationary point found.

                         Standard orientation:
 ---------------------------------------------------------------------
 Center     Atomic      Atomic             Coordinates (Angstroms)
 Number     Number       Type             X           Y           Z
 ---------------------------------------------------------------------
      1          6           0        2.644925   -2.933840    0.400547
      2          6           0        2.302051   -1.550711    0.197183
      3          6           0        3.320882   -0.567179    0.059343
      4          6           0        4.687180   -0.923963    0.102678
      5          6           0        5.077763   -2.300135    0.296257
      6          6           0        0.942769   -1.167021    0.167638
      7          6           0        2.934860    0.814229   -0.132903
      8          6           0        1.552210    1.179975   -0.168567
      9          6           0        0.538548    0.148370    0.037607
     10          6           0        1.209142    2.547054   -0.449145
     11          6           0        3.656320    3.157814   -0.532358
     12          6           0        3.969425    1.773096   -0.300235
     13          6           0        5.342862    1.379039   -0.251236
     14          6           0        5.696279    0.076899   -0.052497
     15          1           0        6.732481   -0.236400   -0.014402
     16          1           0        6.085699    2.156795   -0.382528
     17          1           0        0.209618   -1.947588    0.326066
     18          7           0        2.286039    3.457245   -0.610185
     19          7           0        4.024201   -3.231580    0.431889
     20          8           0        1.832242   -3.868825    0.546060
     21          8           0        6.259968   -2.695811    0.348752
     22          8           0        4.505154    4.065532   -0.672290
     23          8           0        0.055897    3.011799   -0.573044
     24          6           0        1.904627    4.836671   -0.891294
     25          1           0        1.283172    4.878849   -1.788979
     26          1           0        1.311151    5.243954   -0.067581
     27          1           0        2.821312    5.406617   -1.021325
     28          6           0        4.368463   -4.634496    0.630742
     29          1           0        3.974625   -4.989892    1.587107
     30          1           0        3.917622   -5.247056   -0.154270
     31          1           0        5.452710   -4.711195    0.609318
     32          6           0       -0.897663    0.407939    0.134193
     33          6           0       -1.589313    1.257840    0.976958
     34         16           0       -2.027238   -0.623639   -0.729436
     35          6           0       -2.983013    1.082463    0.937044
     36          1           0       -1.078682    1.995496    1.574473
     37          6           0       -3.436038    0.079182    0.081233
     38          8           0       -3.896475    1.790894    1.679874
     39          6           0       -4.779634   -0.347037   -0.162947
     40          6           0       -3.415711    2.935708    2.365714
     41          6           0       -5.242399   -1.430362   -0.907856
     42         16           0       -6.185498    0.534940    0.463006
     43          1           0       -4.294442    3.427926    2.785778
     44          1           0       -2.734263    2.657600    3.178463
     45          1           0       -2.896645    3.617121    1.683866
     46          6           0       -6.655513   -1.540922   -0.989497
     47          8           0       -4.401643   -2.307450   -1.565023
     48          6           0       -7.310799   -0.557775   -0.304249
     49          1           0       -7.144269   -2.329045   -1.549704
     50          6           0       -4.025113   -3.454446   -0.799160
     51          1           0       -8.373011   -0.404259   -0.191327
     52          1           0       -4.902461   -4.072731   -0.567373
     53          1           0       -3.325084   -4.022958   -1.412423
     54          1           0       -3.527232   -3.163173    0.130014
 ---------------------------------------------------------------------

 The electronic state is 1-A.
 Alpha  occ. eigenvalues --  -88.71613 -88.68553 -18.99721 -18.98713 -18.87391
 Alpha  occ. eigenvalues --  -18.87058 -18.86606 -18.86091 -14.15142 -14.14541
 Alpha  occ. eigenvalues --  -10.07567 -10.06772 -10.06182 -10.06107 -10.05847
 Alpha  occ. eigenvalues --  -10.05485 -10.05325 -10.05079 -10.04877 -10.04040
 Alpha  occ. eigenvalues --  -10.02584 -10.02300 -10.02270 -10.00595 -10.00002
 Alpha  occ. eigenvalues --   -9.98436  -9.98284  -9.98173  -9.98130  -9.96563
 Alpha  occ. eigenvalues --   -9.96069  -9.95899  -9.95708  -9.95553  -9.95509
 Alpha  occ. eigenvalues --   -9.95443  -7.80163  -7.77117  -5.76477  -5.76105
 Alpha  occ. eigenvalues --   -5.75716  -5.73448  -5.73058  -5.72648  -0.90999
 Alpha  occ. eigenvalues --   -0.89910  -0.83131  -0.82441  -0.80689  -0.79916
 Alpha  occ. eigenvalues --   -0.72205  -0.71803  -0.71083  -0.69594  -0.66526
 Alpha  occ. eigenvalues --   -0.62193  -0.59930  -0.59253  -0.58704  -0.57894
 Alpha  occ. eigenvalues --   -0.55220  -0.54303  -0.53065  -0.52670  -0.52312
 Alpha  occ. eigenvalues --   -0.50308  -0.49715  -0.47420  -0.43949  -0.42749
 Alpha  occ. eigenvalues --   -0.42305  -0.41830  -0.40368  -0.39780  -0.38429
 Alpha  occ. eigenvalues --   -0.37194  -0.36689  -0.34016  -0.33684  -0.31807
 Alpha  occ. eigenvalues --   -0.31756  -0.31416  -0.30994  -0.30868  -0.30120
 Alpha  occ. eigenvalues --   -0.29346  -0.28737  -0.27165  -0.27030  -0.26572
 Alpha  occ. eigenvalues --   -0.26293  -0.25635  -0.25158  -0.24773  -0.24610
 Alpha  occ. eigenvalues --   -0.23498  -0.23118  -0.22309  -0.22265  -0.21597
 Alpha  occ. eigenvalues --   -0.20995  -0.20805  -0.20622  -0.20372  -0.20106
 Alpha  occ. eigenvalues --   -0.19473  -0.19178  -0.19013  -0.18736  -0.18058
 Alpha  occ. eigenvalues --   -0.17919  -0.17352  -0.16943  -0.16332  -0.16005
 Alpha  occ. eigenvalues --   -0.15384  -0.14970  -0.14854  -0.12565  -0.12113
 Alpha  occ. eigenvalues --   -0.11397  -0.10016  -0.09104  -0.06835  -0.06701
 Alpha  occ. eigenvalues --   -0.06239  -0.06116  -0.05424  -0.05415  -0.04529
 Alpha  occ. eigenvalues --   -0.04383  -0.03476  -0.01553  -0.00379   0.06734
 Alpha virt. eigenvalues --    0.11855   0.12669   0.13717   0.14255   0.15640
 Alpha virt. eigenvalues --    0.15981   0.16570   0.16826   0.16955   0.17041
 Alpha virt. eigenvalues --    0.17240   0.17837   0.18386   0.18547   0.18845

 Mulliken charges:
               1
     1  C    0.264472
     2  C   -0.104535
     3  C    0.054842
     4  C    0.223061
     5  C    0.121871
     6  C   -0.657401
     7  C    0.214324
     8  C    0.147646
     9  C    0.524088
    10  C   -0.350168
    11  C    0.273426
    12  C    0.133603
    13  C   -0.544237
    14  C   -0.624485
    15  H    0.102781
    16  H    0.106372
    17  H    0.145529
    18  N   -0.140082
    19  N   -0.136793
    20  O   -0.428375
    21  O   -0.412249
    22  O   -0.422388
    23  O   -0.327842
    24  C   -0.181618
    25  H    0.139770
    26  H    0.129820
    27  H    0.158064
    28  C   -0.179652
    29  H    0.133008
    30  H    0.134920
    31  H    0.157410
    32  C    0.008791
    33  C   -0.285793
    34  S   -0.528211
    35  C   -0.581517
    36  H    0.119713
    37  C    0.424485
    38  O   -0.123809
    39  C    0.500565
    40  C   -0.264944
    41  C    0.109873
    42  S   -0.355797
    43  H    0.129350
    44  H    0.129128
    45  H    0.166016
    46  C   -0.115371
    47  O   -0.135181
    48  C   -0.186612
    49  H    0.094486
    50  C   -0.309121
    51  H    0.120820
    52  H    0.106202
    53  H    0.151130
    54  H    0.170617
 Sum of Mulliken charges =  -2.00000

 Dipole moment (field-independent basis, Debye):
    X=            -16.0932    Y=             -0.2970    Z=              2.5845  Tot=             16.3021
 Quadrupole moment (field-independent basis, Debye-Ang):
   XX=           -426.3440   YY=           -307.8622   ZZ=           -237.7582
   XY=             -1.0598   XZ=             -5.0895   YZ=             15.5674

 Normal termination of Gaussian 16 at Thu Oct  7 23:31:25 2021.
