 Gaussian 16, Revision C.01,
 Gaussian 16:  ES64L-G16RevC.01  3-Jul-2019

 -------------------------------------
 # opt=modredundant b3lyp/6-311+g(d,p)
 -------------------------------------

 -----------
 NDI_-50.pdb
 -----------
 Symbolic Z-matrix:
 Charge = -2 Multiplicity = 1

 SCF Done:  E(RB3LYP) =  -2359.38023233     A.U. after   22 cycles
 SCF Done:  E(RB3LYP) =  -2359.39468777     A.U. after   15 cycles
 SCF Done:  E(RB3LYP) =  -2359.39630348     A.U. after   15 cycles
 SCF Done:  E(RB3LYP) =  -2359.39637537     A.U. after   14 cycles
 SCF Done:  E(RB3LYP) =  -2359.39687949     A.U. after   13 cycles
 SCF Done:  E(RB3LYP) =  -2359.39689499     A.U. after   12 cycles
 SCF Done:  E(RB3LYP) =  -2359.39691100     A.U. after   12 cycles
 SCF Done:  E(RB3LYP) =  -2359.39691965     A.U. after   13 cycles
 SCF Done:  E(RB3LYP) =  -2359.39692947     A.U. after   13 cycles
 SCF Done:  E(RB3LYP) =  -2359.39693910     A.U. after   13 cycles
 SCF Done:  E(RB3LYP) =  -2359.40025631     A.U. after   12 cycles
 SCF Done:  E(RB3LYP) =  -2359.40026422     A.U. after   12 cycles
 SCF Done:  E(RB3LYP) =  -2359.40026613     A.U. after   12 cycles
 SCF Done:  E(RB3LYP) =  -2359.40026643     A.U. after   12 cycles
 SCF Done:  E(RB3LYP) =  -2359.40026664     A.U. after   12 cycles
 SCF Done:  E(RB3LYP) =  -2359.40026689     A.U. after   11 cycles
 SCF Done:  E(RB3LYP) =  -2359.40026718     A.U. after   10 cycles
 SCF Done:  E(RB3LYP) =  -2359.40026739     A.U. after   10 cycles
 SCF Done:  E(RB3LYP) =  -2359.40026750     A.U. after   11 cycles
 SCF Done:  E(RB3LYP) =  -2359.40026752     A.U. after   10 cycles
 Optimization completed.
    -- Stationary point found.

                         Standard orientation:
 ---------------------------------------------------------------------
 Center     Atomic      Atomic             Coordinates (Angstroms)
 Number     Number       Type             X           Y           Z
 ---------------------------------------------------------------------
      1          6           0        2.640892   -2.946637    0.345386
      2          6           0        2.300448   -1.560628    0.155413
      3          6           0        3.320574   -0.573351    0.056583
      4          6           0        4.685655   -0.929087    0.126627
      5          6           0        5.073979   -2.308169    0.307413
      6          6           0        0.942502   -1.177689    0.109696
      7          6           0        2.936165    0.810064   -0.124134
      8          6           0        1.553826    1.174548   -0.188755
      9          6           0        0.536918    0.138816   -0.012562
     10          6           0        1.217876    2.540725   -0.483069
     11          6           0        3.664868    3.158973   -0.478162
     12          6           0        3.973575    1.771731   -0.253946
     13          6           0        5.345773    1.379100   -0.176907
     14          6           0        5.696805    0.074666    0.011235
     15          1           0        6.732264   -0.237876    0.069472
     16          1           0        6.090057    2.159799   -0.279300
     17          1           0        0.208957   -1.960802    0.253036
     18          7           0        2.297568    3.455888   -0.596422
     19          7           0        4.019544   -3.243189    0.403370
     20          8           0        1.826797   -3.884440    0.458447
     21          8           0        6.255196   -2.702459    0.381098
     22          8           0        4.515952    4.069403   -0.581064
     23          8           0        0.070217    3.002884   -0.657289
     24          6           0        1.922112    4.835948   -0.882613
     25          1           0        1.348079    4.885130   -1.811178
     26          1           0        1.283663    5.229679   -0.086660
     27          1           0        2.840556    5.412670   -0.959422
     28          6           0        4.361539   -4.648684    0.587863
     29          1           0        3.947837   -5.019313    1.529935
     30          1           0        3.928538   -5.249358   -0.216093
     31          1           0        5.446082   -4.723925    0.588655
     32          6           0       -0.896503    0.397202    0.092082
     33          6           0       -1.577864    1.291559    0.897634
     34         16           0       -2.040283   -0.662829   -0.720520
     35          6           0       -2.972193    1.121585    0.877125
     36          1           0       -1.059678    2.054043    1.455599
     37          6           0       -3.438241    0.083278    0.071343
     38          8           0       -3.875580    1.868896    1.593362
     39          6           0       -4.785522   -0.346168   -0.141638
     40          6           0       -3.381067    3.036726    2.229095
     41          6           0       -5.261293   -1.456266   -0.838006
     42         16           0       -6.181225    0.566252    0.464170
     43          1           0       -4.253270    3.553314    2.633175
     44          1           0       -2.697392    2.786003    3.048818
     45          1           0       -2.859915    3.684857    1.517130
     46          6           0       -6.675535   -1.563722   -0.899374
     47          8           0       -4.431630   -2.362717   -1.469285
     48          6           0       -7.319484   -0.551563   -0.246275
     49          1           0       -7.173580   -2.371228   -1.422644
     50          6           0       -4.053548   -3.481403   -0.663606
     51          1           0       -8.379762   -0.388674   -0.128476
     52          1           0       -4.931913   -4.084835   -0.398649
     53          1           0       -3.363341   -4.077634   -1.261548
     54          1           0       -3.544018   -3.157359    0.248273
 ---------------------------------------------------------------------

 The electronic state is 1-A.
 Alpha  occ. eigenvalues --  -88.71535 -88.68464 -18.99657 -18.98651 -18.87498
 Alpha  occ. eigenvalues --  -18.87148 -18.86658 -18.86109 -14.15223 -14.14574
 Alpha  occ. eigenvalues --  -10.07485 -10.06721 -10.06098 -10.06047 -10.05951
 Alpha  occ. eigenvalues --  -10.05578 -10.05256 -10.05131 -10.04913 -10.03956
 Alpha  occ. eigenvalues --  -10.02516 -10.02226 -10.02196 -10.00664 -10.00038
 Alpha  occ. eigenvalues --   -9.98340  -9.98333  -9.98232  -9.98159  -9.96635
 Alpha  occ. eigenvalues --   -9.96100  -9.95992  -9.95782  -9.95619  -9.95571
 Alpha  occ. eigenvalues --   -9.95505  -7.80086  -7.77029  -5.76400  -5.76028
 Alpha  occ. eigenvalues --   -5.75637  -5.73361  -5.72973  -5.72555  -0.90936
 Alpha  occ. eigenvalues --   -0.89843  -0.83236  -0.82486  -0.80799  -0.79961
 Alpha  occ. eigenvalues --   -0.72122  -0.71895  -0.71118  -0.69512  -0.66577
 Alpha  occ. eigenvalues --   -0.62211  -0.59926  -0.59282  -0.58634  -0.57829
 Alpha  occ. eigenvalues --   -0.55225  -0.54270  -0.53107  -0.52643  -0.52331
 Alpha  occ. eigenvalues --   -0.50290  -0.49751  -0.47457  -0.43971  -0.42726
 Alpha  occ. eigenvalues --   -0.42343  -0.41847  -0.40399  -0.39767  -0.38363
 Alpha  occ. eigenvalues --   -0.37187  -0.36624  -0.34066  -0.33728  -0.31768
 Alpha  occ. eigenvalues --   -0.31723  -0.31395  -0.30959  -0.30811  -0.30107
 Alpha  occ. eigenvalues --   -0.29291  -0.28688  -0.27241  -0.27057  -0.26607
 Alpha  occ. eigenvalues --   -0.26298  -0.25592  -0.25208  -0.24831  -0.24560
 Alpha  occ. eigenvalues --   -0.23440  -0.23158  -0.22334  -0.22256  -0.21608
 Alpha  occ. eigenvalues --   -0.21048  -0.20833  -0.20630  -0.20382  -0.20048
 Alpha  occ. eigenvalues --   -0.19502  -0.19192  -0.19045  -0.18737  -0.18134
 Alpha  occ. eigenvalues --   -0.17947  -0.17426  -0.16906  -0.16352  -0.15974
 Alpha  occ. eigenvalues --   -0.15377  -0.15017  -0.14872  -0.12583  -0.12093
 Alpha  occ. eigenvalues --   -0.11464  -0.09980  -0.09041  -0.06894  -0.06766
 Alpha  occ. eigenvalues --   -0.06247  -0.06187  -0.05478  -0.05417  -0.04590
 Alpha  occ. eigenvalues --   -0.04465  -0.03473  -0.01588  -0.00323   0.06668
 Alpha virt. eigenvalues --    0.11890   0.12707   0.13768   0.14299   0.15671
 Alpha virt. eigenvalues --    0.15937   0.16586   0.16811   0.16926   0.17072
 Alpha virt. eigenvalues --    0.17266   0.17865   0.18419   0.18603   0.18904

 Mulliken charges:
               1
     1  C    0.245685
     2  C   -0.090641
     3  C    0.062794
     4  C    0.219087
     5  C    0.118331
     6  C   -0.572591
     7  C    0.213998
     8  C    0.170298
     9  C    0.466632
    10  C   -0.377121
    11  C    0.293193
    12  C    0.112668
    13  C   -0.539366
    14  C   -0.618870
    15  H    0.102902
    16  H    0.106727
    17  H    0.147076
    18  N   -0.130894
    19  N   -0.136451
    20  O   -0.427549
    21  O   -0.410849
    22  O   -0.421352
    23  O   -0.333435
    24  C   -0.174450
    25  H    0.139494
    26  H    0.130259
    27  H    0.158003
    28  C   -0.179760
    29  H    0.133360
    30  H    0.135138
    31  H    0.157398
    32  C    0.016292
    33  C   -0.244112
    34  S   -0.571938
    35  C   -0.607179
    36  H    0.121745
    37  C    0.378199
    38  O   -0.121787
    39  C    0.526155
    40  C   -0.264485
    41  C    0.094318
    42  S   -0.355781
    43  H    0.129196
    44  H    0.129308
    45  H    0.166672
    46  C   -0.106849
    47  O   -0.134844
    48  C   -0.188906
    49  H    0.094172
    50  C   -0.308248
    51  H    0.120567
    52  H    0.106190
    53  H    0.151103
    54  H    0.170499
 Sum of Mulliken charges =  -2.00000

 Dipole moment (field-independent basis, Debye):
    X=            -15.8086    Y=             -0.2328    Z=              2.5731  Tot=             16.0184
 Quadrupole moment (field-independent basis, Debye-Ang):
   XX=           -426.6852   YY=           -307.5994   ZZ=           -237.9034
   XY=             -1.5647   XZ=             -6.2537   YZ=             14.2544

 Normal termination of Gaussian 16 at Fri Oct  8 06:45:23 2021.
