 Gaussian 16, Revision C.01,
 Gaussian 16:  ES64L-G16RevC.01  3-Jul-2019

 -------------------------------------
 # opt=modredundant b3lyp/6-311+g(d,p)
 -------------------------------------

 ------------
 NDI_-155.pdb
 ------------
 Symbolic Z-matrix:
 Charge = -2 Multiplicity = 1

 SCF Done:  E(RB3LYP) =  -2359.35198878     A.U. after   23 cycles
 SCF Done:  E(RB3LYP) =  -2359.37513686     A.U. after   20 cycles
 SCF Done:  E(RB3LYP) =  -2359.38860224     A.U. after   16 cycles
 SCF Done:  E(RB3LYP) =  -2359.39143611     A.U. after   15 cycles
 SCF Done:  E(RB3LYP) =  -2359.39218140     A.U. after   16 cycles
 SCF Done:  E(RB3LYP) =  -2359.39253569     A.U. after   16 cycles
 SCF Done:  E(RB3LYP) =  -2359.39283739     A.U. after   16 cycles
 SCF Done:  E(RB3LYP) =  -2359.39313464     A.U. after   13 cycles
 SCF Done:  E(RB3LYP) =  -2359.39373326     A.U. after   14 cycles
 SCF Done:  E(RB3LYP) =  -2359.39400075     A.U. after   15 cycles
 SCF Done:  E(RB3LYP) =  -2359.39893388     A.U. after   12 cycles
 SCF Done:  E(RB3LYP) =  -2359.39893853     A.U. after   12 cycles
 SCF Done:  E(RB3LYP) =  -2359.39894158     A.U. after   11 cycles
 SCF Done:  E(RB3LYP) =  -2359.39894400     A.U. after   12 cycles
 SCF Done:  E(RB3LYP) =  -2359.39894636     A.U. after   12 cycles
 SCF Done:  E(RB3LYP) =  -2359.39894896     A.U. after   11 cycles
 SCF Done:  E(RB3LYP) =  -2359.39895097     A.U. after   11 cycles
 SCF Done:  E(RB3LYP) =  -2359.39895155     A.U. after   11 cycles
 SCF Done:  E(RB3LYP) =  -2359.39895174     A.U. after   11 cycles
 SCF Done:  E(RB3LYP) =  -2359.39895175     A.U. after    9 cycles
 Optimization completed.
    -- Stationary point found.

                         Standard orientation:
 ---------------------------------------------------------------------
 Center     Atomic      Atomic             Coordinates (Angstroms)
 Number     Number       Type             X           Y           Z
 ---------------------------------------------------------------------
      1          6           0       -3.509014   -2.692980    0.144579
      2          6           0       -2.779832   -1.462788   -0.025406
      3          6           0       -3.438082   -0.207681    0.113956
      4          6           0       -4.814013   -0.137146    0.417330
      5          6           0       -5.585091   -1.346252    0.598243
      6          6           0       -1.390634   -1.504866   -0.258536
      7          6           0       -2.670122    1.001731   -0.080270
      8          6           0       -1.277620    0.930700   -0.395981
      9          6           0       -0.611235   -0.370062   -0.415633
     10          6           0       -0.621528    2.132332   -0.828697
     11          6           0       -2.670596    3.480955   -0.249314
     12          6           0       -3.357486    2.241397    0.010146
     13          6           0       -4.748573    2.279990    0.329906
     14          6           0       -5.459455    1.132588    0.533225
     15          1           0       -6.516271    1.147271    0.769916
     16          1           0       -5.214717    3.256100    0.393449
     17          1           0       -0.926786   -2.481860   -0.221480
     18          7           0       -1.336714    3.348210   -0.664548
     19          7           0       -4.881313   -2.562162    0.445928
     20          8           0       -3.029250   -3.839970    0.045837
     21          8           0       -6.801397   -1.369543    0.869740
     22          8           0       -3.189359    4.613859   -0.153160
     23          8           0        0.512311    2.206473   -1.345893
     24          6           0       -0.614778    4.558826   -1.039174
     25          1           0        0.344422    4.595342   -0.518699
     26          1           0       -0.402829    4.563480   -2.112725
     27          1           0       -1.241071    5.406840   -0.773131
     28          6           0       -5.618593   -3.808965    0.615251
     29          1           0       -5.546655   -4.415142   -0.291591
     30          1           0       -5.189703   -4.394260    1.433189
     31          1           0       -6.653029   -3.550946    0.827812
     32          6           0        0.828351   -0.597591   -0.427565
     33          6           0        1.476225   -1.728918   -0.921920
     34         16           0        1.983657    0.420530    0.407520
     35          6           0        2.850350   -1.767118   -0.637853
     36          1           0        0.950267   -2.480239   -1.491364
     37          6           0        3.334787   -0.674976    0.080686
     38          8           0        3.725621   -2.751625   -1.036385
     39          6           0        4.687811   -0.372640    0.435777
     40          6           0        3.187257   -3.841291   -1.760474
     41          6           0        5.220179    0.782132    1.009483
     42         16           0        6.007577   -1.538526    0.213627
     43          1           0        4.022593   -4.513460   -1.963534
     44          1           0        2.424515   -4.372086   -1.179014
     45          1           0        2.745397   -3.513609   -2.709104
     46          6           0        6.614687    0.729536    1.271871
     47          8           0        4.460209    1.879148    1.360212
     48          6           0        7.189410   -0.453094    0.902407
     49          1           0        7.148004    1.555491    1.727252
     50          6           0        4.320343    2.869085    0.333974
     51          1           0        8.221539   -0.758572    0.980163
     52          1           0        3.793610    2.467895   -0.535500
     53          1           0        3.721935    3.673683    0.762701
     54          1           0        5.303650    3.255501    0.034767
 ---------------------------------------------------------------------

 The electronic state is 1-A.
 Alpha  occ. eigenvalues --  -88.71194 -88.67807 -18.99713 -18.97955 -18.87828
 Alpha  occ. eigenvalues --  -18.87499 -18.86709 -18.86163 -14.15500 -14.14524
 Alpha  occ. eigenvalues --  -10.07859 -10.06272 -10.05903 -10.05814 -10.05695
 Alpha  occ. eigenvalues --  -10.05675 -10.05200 -10.04864 -10.04828 -10.03594
 Alpha  occ. eigenvalues --  -10.02111 -10.02097 -10.01833 -10.00921  -9.99978
 Alpha  occ. eigenvalues --   -9.98521  -9.98365  -9.98326  -9.98121  -9.96907
 Alpha  occ. eigenvalues --   -9.96254  -9.96014  -9.95915  -9.95787  -9.95675
 Alpha  occ. eigenvalues --   -9.95647  -7.79747  -7.76358  -5.76061  -5.75689
 Alpha  occ. eigenvalues --   -5.75299  -5.72692  -5.72295  -5.71880  -0.91003
 Alpha  occ. eigenvalues --   -0.89106  -0.83558  -0.82510  -0.81142  -0.80019
 Alpha  occ. eigenvalues --   -0.72191  -0.71729  -0.71152  -0.69245  -0.66705
 Alpha  occ. eigenvalues --   -0.62266  -0.59874  -0.59298  -0.58213  -0.57655
 Alpha  occ. eigenvalues --   -0.55402  -0.53737  -0.53421  -0.52569  -0.51987
 Alpha  occ. eigenvalues --   -0.50234  -0.49762  -0.47598  -0.43757  -0.42723
 Alpha  occ. eigenvalues --   -0.42379  -0.41787  -0.40421  -0.39702  -0.37920
 Alpha  occ. eigenvalues --   -0.37245  -0.36435  -0.34183  -0.33841  -0.31991
 Alpha  occ. eigenvalues --   -0.31944  -0.31482  -0.30346  -0.30011  -0.29777
 Alpha  occ. eigenvalues --   -0.29177  -0.28170  -0.27507  -0.27286  -0.26621
 Alpha  occ. eigenvalues --   -0.26178  -0.25386  -0.25271  -0.24974  -0.24545
 Alpha  occ. eigenvalues --   -0.23406  -0.23122  -0.22530  -0.21964  -0.21427
 Alpha  occ. eigenvalues --   -0.21220  -0.20898  -0.20841  -0.20375  -0.19848
 Alpha  occ. eigenvalues --   -0.19588  -0.19226  -0.18744  -0.18577  -0.18205
 Alpha  occ. eigenvalues --   -0.17895  -0.17654  -0.16662  -0.16491  -0.16184
 Alpha  occ. eigenvalues --   -0.15338  -0.14821  -0.14628  -0.12462  -0.11706
 Alpha  occ. eigenvalues --   -0.11602  -0.09726  -0.08687  -0.07085  -0.06926
 Alpha  occ. eigenvalues --   -0.06488  -0.06092  -0.05727  -0.05110  -0.04757
 Alpha  occ. eigenvalues --   -0.04602  -0.03329  -0.01692  -0.00065   0.06538
 Alpha virt. eigenvalues --    0.12146   0.12906   0.13730   0.14557   0.15793
 Alpha virt. eigenvalues --    0.15921   0.16557   0.16684   0.16871   0.17402
 Alpha virt. eigenvalues --    0.17490   0.18001   0.18624   0.18851   0.19025

 Mulliken charges:
               1
     1  C    0.218240
     2  C   -0.073900
     3  C    0.088163
     4  C    0.240732
     5  C    0.093321
     6  C   -0.042765
     7  C    0.152945
     8  C    0.190164
     9  C    0.229524
    10  C   -0.535235
    11  C    0.238689
    12  C    0.110828
    13  C   -0.513028
    14  C   -0.582129
    15  H    0.103044
    16  H    0.107089
    17  H    0.124709
    18  N   -0.046574
    19  N   -0.135200
    20  O   -0.430944
    21  O   -0.408055
    22  O   -0.422296
    23  O   -0.352348
    24  C   -0.157854
    25  H    0.140119
    26  H    0.134894
    27  H    0.156409
    28  C   -0.179683
    29  H    0.133766
    30  H    0.135241
    31  H    0.157163
    32  C    0.105597
    33  C   -0.807917
    34  S   -0.666934
    35  C   -0.367641
    36  H    0.116499
    37  C    0.625695
    38  O   -0.133139
    39  C    0.386722
    40  C   -0.225227
    41  C    0.124989
    42  S   -0.368033
    43  H    0.132019
    44  H    0.143927
    45  H    0.133957
    46  C   -0.085559
    47  O   -0.145868
    48  C   -0.199346
    49  H    0.093703
    50  C   -0.296009
    51  H    0.119112
    52  H    0.194829
    53  H    0.142911
    54  H    0.100690
 Sum of Mulliken charges =  -2.00000

 Dipole moment (field-independent basis, Debye):
    X=             14.7729    Y=             -3.1435    Z=             -1.8387  Tot=             15.2152
 Quadrupole moment (field-independent basis, Debye-Ang):
   XX=           -421.3238   YY=           -303.9219   ZZ=           -241.7705
   XY=              5.9900   XZ=              3.7282   YZ=              8.4409

 Normal termination of Gaussian 16 at Wed Oct  6 00:17:46 2021.
