 Gaussian 16, Revision C.01,
 Gaussian 16:  ES64L-G16RevC.01  3-Jul-2019

 -------------------------------------
 # opt=modredundant b3lyp/6-311+g(d,p)
 -------------------------------------

 -----------
 NDI_-65.pdb
 -----------
 Symbolic Z-matrix:
 Charge = -2 Multiplicity = 1

 SCF Done:  E(RB3LYP) =  -2359.37619418     A.U. after   23 cycles
 SCF Done:  E(RB3LYP) =  -2359.39206294     A.U. after   17 cycles
 SCF Done:  E(RB3LYP) =  -2359.39421935     A.U. after   14 cycles
 SCF Done:  E(RB3LYP) =  -2359.39417274     A.U. after   14 cycles
 SCF Done:  E(RB3LYP) =  -2359.39447064     A.U. after   13 cycles
 SCF Done:  E(RB3LYP) =  -2359.39449552     A.U. after   12 cycles
 SCF Done:  E(RB3LYP) =  -2359.39457289     A.U. after   13 cycles
 SCF Done:  E(RB3LYP) =  -2359.39458140     A.U. after   13 cycles
 SCF Done:  E(RB3LYP) =  -2359.39459094     A.U. after   13 cycles
 SCF Done:  E(RB3LYP) =  -2359.39459963     A.U. after   13 cycles
 SCF Done:  E(RB3LYP) =  -2359.39770115     A.U. after   13 cycles
 SCF Done:  E(RB3LYP) =  -2359.39770500     A.U. after   12 cycles
 SCF Done:  E(RB3LYP) =  -2359.39770804     A.U. after   11 cycles
 SCF Done:  E(RB3LYP) =  -2359.39771406     A.U. after   14 cycles
 SCF Done:  E(RB3LYP) =  -2359.39771624     A.U. after   12 cycles
 SCF Done:  E(RB3LYP) =  -2359.39771810     A.U. after   12 cycles
 SCF Done:  E(RB3LYP) =  -2359.39771980     A.U. after   12 cycles
 SCF Done:  E(RB3LYP) =  -2359.39772163     A.U. after   12 cycles
 SCF Done:  E(RB3LYP) =  -2359.39772264     A.U. after   12 cycles
 SCF Done:  E(RB3LYP) =  -2359.39772298     A.U. after   11 cycles
 Optimization completed.
    -- Stationary point found.

                         Standard orientation:
 ---------------------------------------------------------------------
 Center     Atomic      Atomic             Coordinates (Angstroms)
 Number     Number       Type             X           Y           Z
 ---------------------------------------------------------------------
      1          6           0        2.677282   -2.905397    0.491796
      2          6           0        2.318377   -1.530206    0.269305
      3          6           0        3.325057   -0.546770    0.063188
      4          6           0        4.694867   -0.895555    0.056753
      5          6           0        5.101069   -2.263229    0.269166
      6          6           0        0.953990   -1.154481    0.273736
      7          6           0        2.925172    0.828012   -0.147080
      8          6           0        1.541291    1.185711   -0.130128
      9          6           0        0.543325    0.155731    0.132473
     10          6           0        1.175457    2.550438   -0.389562
     11          6           0        3.610630    3.166933   -0.624769
     12          6           0        3.944143    1.789548   -0.380468
     13          6           0        5.321231    1.402694   -0.382809
     14          6           0        5.689657    0.107390   -0.167899
     15          1           0        6.728472   -0.199757   -0.167120
     16          1           0        6.053818    2.180047   -0.564586
     17          1           0        0.227768   -1.935723    0.459359
     18          7           0        2.235296    3.460260   -0.632216
     19          7           0        4.058510   -3.195452    0.473114
     20          8           0        1.876366   -3.841064    0.693506
     21          8           0        6.286933   -2.653228    0.282279
     22          8           0        4.444747    4.076488   -0.828469
     23          8           0        0.013266    3.008265   -0.428757
     24          6           0        1.832669    4.835227   -0.904937
     25          1           0        1.136212    4.860934   -1.746160
     26          1           0        1.312978    5.260636   -0.041114
     27          1           0        2.735391    5.400659   -1.122848
     28          6           0        4.418705   -4.591172    0.692536
     29          1           0        4.071118   -4.923185    1.675016
     30          1           0        3.935292   -5.225897   -0.054563
     31          1           0        5.501278   -4.663889    0.623544
     32          6           0       -0.899166    0.410633    0.224778
     33          6           0       -1.609269    1.154796    1.145493
     34         16           0       -2.001895   -0.545314   -0.746895
     35          6           0       -3.001932    0.973895    1.065804
     36          1           0       -1.113088    1.826398    1.828209
     37          6           0       -3.430235    0.059707    0.104977
     38          8           0       -3.933499    1.592462    1.864711
     39          6           0       -4.766753   -0.351154   -0.203603
     40          6           0       -3.479617    2.678287    2.656254
     41          6           0       -5.205266   -1.368397   -1.048190
     42         16           0       -6.190682    0.467087    0.464442
     43          1           0       -4.370444    3.114524    3.111223
     44          1           0       -2.799516    2.340006    3.447006
     45          1           0       -2.968600    3.428438    2.043858
     46          6           0       -6.615822   -1.477655   -1.171254
     47          8           0       -4.345555   -2.183323   -1.757844
     48          6           0       -7.291518   -0.559381   -0.419380
     49          1           0       -7.087094   -2.217293   -1.807282
     50          6           0       -3.964919   -3.380774   -1.075243
     51          1           0       -8.356904   -0.420919   -0.317266
     52          1           0       -4.838073   -4.023283   -0.901023
     53          1           0       -3.252152   -3.894550   -1.721176
     54          1           0       -3.480468   -3.154943   -0.121152
 ---------------------------------------------------------------------

 The electronic state is 1-A.
 Alpha  occ. eigenvalues --  -88.71805 -88.68753 -18.99884 -18.98867 -18.87154
 Alpha  occ. eigenvalues --  -18.86856 -18.86485 -18.86055 -14.14961 -14.14460
 Alpha  occ. eigenvalues --  -10.07761 -10.06895 -10.06393 -10.06268 -10.05615
 Alpha  occ. eigenvalues --  -10.05500 -10.05278 -10.04959 -10.04783 -10.04247
 Alpha  occ. eigenvalues --  -10.02751 -10.02486 -10.02460 -10.00442  -9.99927
 Alpha  occ. eigenvalues --   -9.98677  -9.98144  -9.98037  -9.98035  -9.96417
 Alpha  occ. eigenvalues --   -9.95971  -9.95691  -9.95545  -9.95405  -9.95364
 Alpha  occ. eigenvalues --   -9.95301  -7.80357  -7.77317  -5.76670  -5.76297
 Alpha  occ. eigenvalues --   -5.75911  -5.73646  -5.73252  -5.72855  -0.91163
 Alpha  occ. eigenvalues --   -0.90077  -0.82899  -0.82332  -0.80445  -0.79809
 Alpha  occ. eigenvalues --   -0.72408  -0.71597  -0.71000  -0.69789  -0.66413
 Alpha  occ. eigenvalues --   -0.62166  -0.59960  -0.59169  -0.58874  -0.58055
 Alpha  occ. eigenvalues --   -0.55227  -0.54383  -0.52967  -0.52782  -0.52226
 Alpha  occ. eigenvalues --   -0.50369  -0.49621  -0.47338  -0.43927  -0.42826
 Alpha  occ. eigenvalues --   -0.42201  -0.41792  -0.40319  -0.39783  -0.38594
 Alpha  occ. eigenvalues --   -0.37222  -0.36853  -0.33902  -0.33583  -0.31995
 Alpha  occ. eigenvalues --   -0.31798  -0.31478  -0.31069  -0.31009  -0.30134
 Alpha  occ. eigenvalues --   -0.29472  -0.28859  -0.27014  -0.26957  -0.26493
 Alpha  occ. eigenvalues --   -0.26300  -0.25723  -0.25038  -0.24737  -0.24639
 Alpha  occ. eigenvalues --   -0.23645  -0.23048  -0.22306  -0.22243  -0.21570
 Alpha  occ. eigenvalues --   -0.20910  -0.20773  -0.20608  -0.20361  -0.20179
 Alpha  occ. eigenvalues --   -0.19433  -0.19188  -0.18917  -0.18696  -0.17893
 Alpha  occ. eigenvalues --   -0.17853  -0.17215  -0.17023  -0.16289  -0.16084
 Alpha  occ. eigenvalues --   -0.15438  -0.14854  -0.14766  -0.12616  -0.12085
 Alpha  occ. eigenvalues --   -0.11274  -0.10077  -0.09261  -0.06719  -0.06563
 Alpha  occ. eigenvalues --   -0.06210  -0.05954  -0.05422  -0.05284  -0.04384
 Alpha  occ. eigenvalues --   -0.04204  -0.03480  -0.01514  -0.00465   0.06883
 Alpha virt. eigenvalues --    0.11749   0.12575   0.13597   0.14148   0.15547
 Alpha virt. eigenvalues --    0.16069   0.16502   0.16850   0.16948   0.17040
 Alpha virt. eigenvalues --    0.17205   0.17777   0.18318   0.18410   0.18702

 Mulliken charges:
               1
     1  C    0.295877
     2  C   -0.109518
     3  C    0.048237
     4  C    0.228825
     5  C    0.126345
     6  C   -0.764950
     7  C    0.209343
     8  C    0.112880
     9  C    0.618330
    10  C   -0.347280
    11  C    0.233995
    12  C    0.164071
    13  C   -0.548013
    14  C   -0.633469
    15  H    0.102481
    16  H    0.105530
    17  H    0.139552
    18  N   -0.152206
    19  N   -0.137052
    20  O   -0.430460
    21  O   -0.415603
    22  O   -0.424790
    23  O   -0.313623
    24  C   -0.191863
    25  H    0.140070
    26  H    0.129168
    27  H    0.158187
    28  C   -0.180010
    29  H    0.132045
    30  H    0.134816
    31  H    0.157336
    32  C   -0.011648
    33  C   -0.343088
    34  S   -0.444334
    35  C   -0.528464
    36  H    0.113132
    37  C    0.477416
    38  O   -0.127714
    39  C    0.449461
    40  C   -0.266062
    41  C    0.146029
    42  S   -0.357234
    43  H    0.129801
    44  H    0.129097
    45  H    0.164688
    46  C   -0.136072
    47  O   -0.136086
    48  C   -0.180696
    49  H    0.095332
    50  C   -0.311740
    51  H    0.121500
    52  H    0.106437
    53  H    0.150797
    54  H    0.171196
 Sum of Mulliken charges =  -2.00000

 Dipole moment (field-independent basis, Debye):
    X=            -16.7436    Y=             -0.4790    Z=              2.6256  Tot=             16.9550
 Quadrupole moment (field-independent basis, Debye-Ang):
   XX=           -425.2715   YY=           -308.6289   ZZ=           -237.4989
   XY=             -0.0281   XZ=             -3.0828   YZ=             17.9165

 Normal termination of Gaussian 16 at Fri Oct  8 02:59:32 2021.
