 Gaussian 16, Revision C.01,
 Gaussian 16:  ES64L-G16RevC.01  3-Jul-2019

 -------------------------------------
 # opt=modredundant b3lyp/6-311+g(d,p)
 -------------------------------------

 ------------
 NDI_-125.pdb
 ------------
 Symbolic Z-matrix:
 Charge = -2 Multiplicity = 1

 SCF Done:  E(RB3LYP) =  -2359.36981588     A.U. after   23 cycles
 SCF Done:  E(RB3LYP) =  -2359.38696118     A.U. after   19 cycles
 SCF Done:  E(RB3LYP) =  -2359.39090236     A.U. after   18 cycles
 SCF Done:  E(RB3LYP) =  -2359.39221384     A.U. after   15 cycles
 SCF Done:  E(RB3LYP) =  -2359.39261038     A.U. after   16 cycles
 SCF Done:  E(RB3LYP) =  -2359.39271809     A.U. after   16 cycles
 SCF Done:  E(RB3LYP) =  -2359.39294388     A.U. after   14 cycles
 SCF Done:  E(RB3LYP) =  -2359.39299407     A.U. after   14 cycles
 SCF Done:  E(RB3LYP) =  -2359.39300982     A.U. after   13 cycles
 SCF Done:  E(RB3LYP) =  -2359.39302110     A.U. after   13 cycles
 SCF Done:  E(RB3LYP) =  -2359.39757606     A.U. after   12 cycles
 SCF Done:  E(RB3LYP) =  -2359.39758617     A.U. after   13 cycles
 SCF Done:  E(RB3LYP) =  -2359.39759153     A.U. after   13 cycles
 SCF Done:  E(RB3LYP) =  -2359.39759472     A.U. after   13 cycles
 SCF Done:  E(RB3LYP) =  -2359.39759556     A.U. after   11 cycles
 SCF Done:  E(RB3LYP) =  -2359.39759581     A.U. after   11 cycles
 SCF Done:  E(RB3LYP) =  -2359.39759583     A.U. after   10 cycles
 SCF Done:  E(RB3LYP) =  -2359.39759586     A.U. after   10 cycles
 SCF Done:  E(RB3LYP) =  -2359.39759588     A.U. after   11 cycles
 SCF Done:  E(RB3LYP) =  -2359.39759588     A.U. after    9 cycles
 Optimization completed.
    -- Stationary point found.

                         Standard orientation:
 ---------------------------------------------------------------------
 Center     Atomic      Atomic             Coordinates (Angstroms)
 Number     Number       Type             X           Y           Z
 ---------------------------------------------------------------------
      1          6           0       -3.565641   -2.682348    0.340592
      2          6           0       -2.810391   -1.478324    0.124738
      3          6           0       -3.456658   -0.210606    0.132454
      4          6           0       -4.848972   -0.102628    0.351133
      5          6           0       -5.645169   -1.283325    0.580745
      6          6           0       -1.406926   -1.552561   -0.052997
      7          6           0       -2.667879    0.978102   -0.112056
      8          6           0       -1.261305    0.871893   -0.340632
      9          6           0       -0.623477   -0.433145   -0.237487
     10          6           0       -0.539316    2.040105   -0.759701
     11          6           0       -2.618259    3.436315   -0.456962
     12          6           0       -3.339096    2.228348   -0.154484
     13          6           0       -4.748459    2.303054    0.077602
     14          6           0       -5.481649    1.180259    0.327125
     15          1           0       -6.550401    1.221390    0.499145
     16          1           0       -5.206314    3.284314    0.037998
     17          1           0       -0.945767   -2.529047    0.032968
     18          7           0       -1.254570    3.264289   -0.756141
     19          7           0       -4.949931   -2.513962    0.560027
     20          8           0       -3.099476   -3.840841    0.348113
     21          8           0       -6.876639   -1.275488    0.786095
     22          8           0       -3.125415    4.579102   -0.486581
     23          8           0        0.652631    2.075796   -1.134353
     24          6           0       -0.487398    4.442150   -1.144227
     25          1           0        0.383548    4.555085   -0.493732
     26          1           0       -0.116087    4.334451   -2.167300
     27          1           0       -1.148496    5.301488   -1.062850
     28          6           0       -5.712377   -3.736620    0.782547
     29          1           0       -5.618643   -4.402956   -0.079414
     30          1           0       -5.321258   -4.272700    1.651500
     31          1           0       -6.749633   -3.450718    0.938777
     32          6           0        0.822605   -0.660829   -0.292377
     33          6           0        1.495848   -1.507939   -1.151881
     34         16           0        1.948977    0.091639    0.814946
     35          6           0        2.891968   -1.532652   -0.941254
     36          1           0        0.977515   -2.047166   -1.930781
     37          6           0        3.344776   -0.696532    0.072321
     38          8           0        3.799158   -2.269483   -1.665521
     39          6           0        4.697239   -0.430412    0.473071
     40          6           0        3.295313   -3.037246   -2.742829
     41          6           0        5.196892    0.596286    1.269828
     42         16           0        6.043775   -1.482478    0.007541
     43          1           0        4.157075   -3.537341   -3.187619
     44          1           0        2.575945   -3.789124   -2.398089
     45          1           0        2.813604   -2.402546   -3.495674
     46          6           0        6.595761    0.531456    1.512471
     47          8           0        4.419536    1.585628    1.831161
     48          6           0        7.198077   -0.532831    0.904844
     49          1           0        7.110384    1.265979    2.119870
     50          6           0        4.120846    2.688059    0.960548
     51          1           0        8.241779   -0.807518    0.900768
     52          1           0        3.511679    2.373300    0.110006
     53          1           0        3.547611    3.399036    1.556311
     54          1           0        5.048448    3.159300    0.611030
 ---------------------------------------------------------------------

 The electronic state is 1-A.
 Alpha  occ. eigenvalues --  -88.71845 -88.68299 -19.00158 -18.98341 -18.87102
 Alpha  occ. eigenvalues --  -18.86807 -18.86412 -18.86041 -14.14919 -14.14360
 Alpha  occ. eigenvalues --  -10.08234 -10.06402 -10.06392 -10.05760 -10.05563
 Alpha  occ. eigenvalues --  -10.05391 -10.05220 -10.04899 -10.04674 -10.04326
 Alpha  occ. eigenvalues --  -10.02652 -10.02518 -10.02420 -10.00422  -9.99852
 Alpha  occ. eigenvalues --   -9.99027  -9.98044  -9.97975  -9.97776  -9.96372
 Alpha  occ. eigenvalues --   -9.95794  -9.95635  -9.95474  -9.95345  -9.95297
 Alpha  occ. eigenvalues --   -9.95243  -7.80405  -7.76879  -5.76716  -5.76344
 Alpha  occ. eigenvalues --   -5.75964  -5.73212  -5.72818  -5.72403  -0.91455
 Alpha  occ. eigenvalues --   -0.89491  -0.82835  -0.82244  -0.80377  -0.79737
 Alpha  occ. eigenvalues --   -0.72399  -0.71543  -0.70929  -0.69765  -0.66350
 Alpha  occ. eigenvalues --   -0.62164  -0.59903  -0.59116  -0.58654  -0.58156
 Alpha  occ. eigenvalues --   -0.55334  -0.54077  -0.53066  -0.52359  -0.52130
 Alpha  occ. eigenvalues --   -0.50361  -0.49551  -0.47362  -0.43676  -0.42876
 Alpha  occ. eigenvalues --   -0.42135  -0.41753  -0.40234  -0.39783  -0.38301
 Alpha  occ. eigenvalues --   -0.37215  -0.36910  -0.33836  -0.33544  -0.32383
 Alpha  occ. eigenvalues --   -0.31843  -0.31584  -0.30542  -0.30282  -0.29951
 Alpha  occ. eigenvalues --   -0.29469  -0.28530  -0.27100  -0.26951  -0.26429
 Alpha  occ. eigenvalues --   -0.26055  -0.25597  -0.25029  -0.24757  -0.24578
 Alpha  occ. eigenvalues --   -0.23709  -0.22970  -0.22273  -0.22016  -0.21540
 Alpha  occ. eigenvalues --   -0.21065  -0.20706  -0.20517  -0.20318  -0.20130
 Alpha  occ. eigenvalues --   -0.19374  -0.19062  -0.18837  -0.18555  -0.17817
 Alpha  occ. eigenvalues --   -0.17768  -0.17112  -0.17007  -0.16200  -0.16021
 Alpha  occ. eigenvalues --   -0.15689  -0.14802  -0.14548  -0.12227  -0.12012
 Alpha  occ. eigenvalues --   -0.11189  -0.09936  -0.09082  -0.06605  -0.06475
 Alpha  occ. eigenvalues --   -0.06151  -0.05859  -0.05498  -0.04946  -0.04373
 Alpha  occ. eigenvalues --   -0.04143  -0.03395  -0.01572  -0.00450   0.06923
 Alpha virt. eigenvalues --    0.11777   0.12627   0.13387   0.14329   0.15712
 Alpha virt. eigenvalues --    0.16118   0.16340   0.16898   0.16985   0.17211
 Alpha virt. eigenvalues --    0.17370   0.17784   0.18285   0.18470   0.18998

 Mulliken charges:
               1
     1  C    0.266207
     2  C   -0.176857
     3  C    0.083558
     4  C    0.271503
     5  C    0.153398
     6  C   -0.485510
     7  C    0.209299
     8  C    0.076479
     9  C    0.359858
    10  C   -0.363418
    11  C    0.181676
    12  C    0.269236
    13  C   -0.548264
    14  C   -0.631953
    15  H    0.102658
    16  H    0.105485
    17  H    0.119204
    18  N   -0.095428
    19  N   -0.135073
    20  O   -0.433425
    21  O   -0.418239
    22  O   -0.425597
    23  O   -0.341503
    24  C   -0.170025
    25  H    0.135636
    26  H    0.135355
    27  H    0.157799
    28  C   -0.182100
    29  H    0.131588
    30  H    0.134309
    31  H    0.157131
    32  C    0.098977
    33  C   -0.612960
    34  S   -0.204227
    35  C   -0.503022
    36  H    0.107504
    37  C    0.264877
    38  O   -0.118874
    39  C    0.364258
    40  C   -0.244992
    41  C    0.181283
    42  S   -0.341991
    43  H    0.132123
    44  H    0.140914
    45  H    0.140149
    46  C   -0.073148
    47  O   -0.160026
    48  C   -0.162758
    49  H    0.096742
    50  C   -0.321034
    51  H    0.122250
    52  H    0.207848
    53  H    0.140661
    54  H    0.102459
 Sum of Mulliken charges =  -2.00000

 Dipole moment (field-independent basis, Debye):
    X=             16.7832    Y=             -2.4360    Z=             -2.3515  Tot=             17.1213
 Quadrupole moment (field-independent basis, Debye-Ang):
   XX=           -423.1287   YY=           -307.2850   ZZ=           -238.5283
   XY=              5.3444   XZ=              1.1452   YZ=             15.0347

 Normal termination of Gaussian 16 at Thu Oct  7 01:52:41 2021.
