 Gaussian 16, Revision C.01,
 Gaussian 16:  ES64L-G16RevC.01  3-Jul-2019

 -------------------------------------
 # opt=modredundant b3lyp/6-311+g(d,p)
 -------------------------------------

 -----------
 NDI_-15.pdb
 -----------
 Symbolic Z-matrix:
 Charge = -2 Multiplicity = 1

 SCF Done:  E(RB3LYP) =  -2359.37304601     A.U. after   23 cycles
 SCF Done:  E(RB3LYP) =  -2359.37510842     A.U. after   20 cycles
 SCF Done:  E(RB3LYP) =  -2359.38329683     A.U. after   14 cycles
 SCF Done:  E(RB3LYP) =  -2359.39251692     A.U. after   16 cycles
 SCF Done:  E(RB3LYP) =  -2359.39630968     A.U. after   18 cycles
 SCF Done:  E(RB3LYP) =  -2359.39694601     A.U. after   15 cycles
 SCF Done:  E(RB3LYP) =  -2359.39716171     A.U. after   15 cycles
 SCF Done:  E(RB3LYP) =  -2359.39721716     A.U. after   14 cycles
 SCF Done:  E(RB3LYP) =  -2359.39727251     A.U. after   13 cycles
 SCF Done:  E(RB3LYP) =  -2359.39727988     A.U. after   12 cycles
 SCF Done:  E(RB3LYP) =  -2359.40057675     A.U. after   14 cycles
 SCF Done:  E(RB3LYP) =  -2359.40061103     A.U. after   14 cycles
 SCF Done:  E(RB3LYP) =  -2359.40062138     A.U. after   12 cycles
 SCF Done:  E(RB3LYP) =  -2359.40062501     A.U. after   12 cycles
 SCF Done:  E(RB3LYP) =  -2359.40062729     A.U. after   12 cycles
 SCF Done:  E(RB3LYP) =  -2359.40062949     A.U. after   11 cycles
 SCF Done:  E(RB3LYP) =  -2359.40063152     A.U. after   12 cycles
 SCF Done:  E(RB3LYP) =  -2359.40063261     A.U. after   11 cycles
 SCF Done:  E(RB3LYP) =  -2359.40063312     A.U. after   11 cycles
 SCF Done:  E(RB3LYP) =  -2359.40063323     A.U. after   10 cycles
 Optimization completed.
    -- Stationary point found.

                         Standard orientation:
 ---------------------------------------------------------------------
 Center     Atomic      Atomic             Coordinates (Angstroms)
 Number     Number       Type             X           Y           Z
 ---------------------------------------------------------------------
      1          6           0       -2.612000   -2.994186    0.077483
      2          6           0       -2.287394   -1.590082    0.134024
      3          6           0       -3.301763   -0.605245   -0.041367
      4          6           0       -4.642103   -0.978251   -0.268831
      5          6           0       -5.014073   -2.375360   -0.329991
      6          6           0       -0.945421   -1.195101    0.266067
      7          6           0       -2.930092    0.790549    0.033548
      8          6           0       -1.570095    1.171193    0.270380
      9          6           0       -0.529664    0.128529    0.301362
     10          6           0       -1.315437    2.543101    0.612982
     11          6           0       -3.697142    3.155192    0.049057
     12          6           0       -3.971944    1.749304   -0.094065
     13          6           0       -5.317276    1.340507   -0.338893
     14          6           0       -5.650362    0.020317   -0.429097
     15          1           0       -6.667972   -0.305059   -0.606384
     16          1           0       -6.060464    2.122841   -0.437078
     17          1           0       -0.215664   -1.995665    0.254786
     18          7           0       -2.380330    3.465607    0.413717
     19          7           0       -3.970105   -3.307139   -0.144649
     20          8           0       -1.801302   -3.930395    0.204802
     21          8           0       -6.174279   -2.782269   -0.529586
     22          8           0       -4.542331    4.064265   -0.099611
     23          8           0       -0.255809    3.015666    1.079314
     24          6           0       -2.064779    4.860969    0.698214
     25          1           0       -1.798396    4.985699    1.751488
     26          1           0       -1.202979    5.179896    0.106873
     27          1           0       -2.945716    5.449069    0.452761
     28          6           0       -4.297202   -4.727641   -0.194970
     29          1           0       -3.757158   -5.212569   -1.012873
     30          1           0       -3.990203   -5.216225    0.733081
     31          1           0       -5.371018   -4.811521   -0.341856
     32          6           0        0.891658    0.365950    0.130603
     33          6           0        1.558561    1.481187   -0.356864
     34         16           0        2.082016   -0.876555    0.568599
     35          6           0        2.951894    1.327959   -0.430032
     36          1           0        1.034342    2.383263   -0.615937
     37          6           0        3.450543    0.102721    0.007089
     38          8           0        3.827665    2.277028   -0.895026
     39          6           0        4.802070   -0.356185    0.026286
     40          6           0        3.289272    3.552910   -1.207706
     41          6           0        5.312119   -1.608470    0.372348
     42         16           0        6.167993    0.697564   -0.395400
     43          1           0        4.141510    4.183885   -1.465321
     44          1           0        2.605569    3.497536   -2.062621
     45          1           0        2.753564    3.978271   -0.353302
     46          6           0        6.726011   -1.716012    0.315794
     47          8           0        4.515429   -2.656528    0.792979
     48          6           0        7.338438   -0.561762   -0.082825
     49          1           0        7.248601   -2.629185    0.575138
     50          6           0        4.114238   -3.552462   -0.244863
     51          1           0        8.391141   -0.363779   -0.213903
     52          1           0        4.985663   -4.056906   -0.683619
     53          1           0        3.455320   -4.289248    0.216324
     54          1           0        3.563453   -3.025637   -1.029574
 ---------------------------------------------------------------------

 The electronic state is 1-A.
 Alpha  occ. eigenvalues --  -88.71194 -88.67905 -18.99357 -18.98364 -18.88122
 Alpha  occ. eigenvalues --  -18.87690 -18.86890 -18.86260 -14.15687 -14.14734
 Alpha  occ. eigenvalues --  -10.07047 -10.06558 -10.06514 -10.06137 -10.05746
 Alpha  occ. eigenvalues --  -10.05731 -10.05356 -10.05068 -10.04947 -10.03589
 Alpha  occ. eigenvalues --  -10.02216 -10.01960 -10.01882 -10.01057 -10.00244
 Alpha  occ. eigenvalues --   -9.98594  -9.98525  -9.98284  -9.97644  -9.97090
 Alpha  occ. eigenvalues --   -9.96515  -9.96236  -9.96212  -9.95983  -9.95870
 Alpha  occ. eigenvalues --   -9.95822  -7.79741  -7.76477  -5.76057  -5.75685
 Alpha  occ. eigenvalues --   -5.75290  -5.72819  -5.72438  -5.71975  -0.90631
 Alpha  occ. eigenvalues --   -0.89550  -0.83849  -0.82696  -0.81449  -0.80164
 Alpha  occ. eigenvalues --   -0.72430  -0.71750  -0.71303  -0.69048  -0.66843
 Alpha  occ. eigenvalues --   -0.62322  -0.60011  -0.59341  -0.58331  -0.57502
 Alpha  occ. eigenvalues --   -0.55280  -0.54155  -0.53259  -0.52801  -0.52140
 Alpha  occ. eigenvalues --   -0.50325  -0.49842  -0.47638  -0.44147  -0.42797
 Alpha  occ. eigenvalues --   -0.42437  -0.41907  -0.40593  -0.39660  -0.38059
 Alpha  occ. eigenvalues --   -0.37159  -0.36301  -0.34343  -0.33969  -0.31913
 Alpha  occ. eigenvalues --   -0.31372  -0.31320  -0.30787  -0.30561  -0.29933
 Alpha  occ. eigenvalues --   -0.29010  -0.28477  -0.27688  -0.27203  -0.26808
 Alpha  occ. eigenvalues --   -0.26349  -0.25603  -0.25264  -0.25130  -0.24336
 Alpha  occ. eigenvalues --   -0.23486  -0.23122  -0.22524  -0.22360  -0.21521
 Alpha  occ. eigenvalues --   -0.21385  -0.21013  -0.20786  -0.20362  -0.19802
 Alpha  occ. eigenvalues --   -0.19507  -0.19411  -0.19228  -0.18593  -0.18572
 Alpha  occ. eigenvalues --   -0.18007  -0.17850  -0.16831  -0.16302  -0.16106
 Alpha  occ. eigenvalues --   -0.15451  -0.14988  -0.14771  -0.12829  -0.11887
 Alpha  occ. eigenvalues --   -0.11737  -0.09790  -0.08778  -0.07276  -0.07110
 Alpha  occ. eigenvalues --   -0.06602  -0.06256  -0.05733  -0.05387  -0.04987
 Alpha  occ. eigenvalues --   -0.04847  -0.03519  -0.01897   0.00055   0.06332
 Alpha virt. eigenvalues --    0.11925   0.12882   0.14021   0.14528   0.15600
 Alpha virt. eigenvalues --    0.15832   0.16577   0.16642   0.16785   0.17246
 Alpha virt. eigenvalues --    0.17526   0.18076   0.18590   0.18938   0.18988

 Mulliken charges:
               1
     1  C    0.131384
     2  C    0.002311
     3  C    0.240853
     4  C    0.266106
     5  C    0.092467
     6  C    0.139301
     7  C    0.274486
     8  C    0.528306
     9  C    0.037485
    10  C   -0.985791
    11  C    0.097585
    12  C    0.251754
    13  C   -0.470436
    14  C   -0.614228
    15  H    0.103490
    16  H    0.108304
    17  H    0.135299
    18  N   -0.058925
    19  N   -0.133558
    20  O   -0.421786
    21  O   -0.403907
    22  O   -0.419829
    23  O   -0.380867
    24  C   -0.146978
    25  H    0.137644
    26  H    0.129115
    27  H    0.156450
    28  C   -0.180109
    29  H    0.135224
    30  H    0.136347
    31  H    0.156234
    32  C   -0.285973
    33  C   -0.223799
    34  S   -0.867278
    35  C   -0.524044
    36  H    0.146542
    37  C    0.502280
    38  O   -0.121246
    39  C    0.471620
    40  C   -0.258267
    41  C    0.152691
    42  S   -0.369308
    43  H    0.128903
    44  H    0.132742
    45  H    0.168272
    46  C   -0.100001
    47  O   -0.141148
    48  C   -0.197105
    49  H    0.092920
    50  C   -0.291413
    51  H    0.119096
    52  H    0.104225
    53  H    0.150865
    54  H    0.165699
 Sum of Mulliken charges =  -2.00000

 Dipole moment (field-independent basis, Debye):
    X=             14.3770    Y=             -0.0081    Z=             -2.2933  Tot=             14.5588
 Quadrupole moment (field-independent basis, Debye-Ang):
   XX=           -424.8821   YY=           -306.6690   ZZ=           -240.0205
   XY=              4.7317   XZ=            -13.3327   YZ=             -3.7145

 Normal termination of Gaussian 16 at Fri Oct  8 06:26:07 2021.
