 Gaussian 16, Revision C.01,
 Gaussian 16:  ES64L-G16RevC.01  3-Jul-2019

 -------------------------------------
 # opt=modredundant b3lyp/6-311+g(d,p)
 -------------------------------------

 -----------
 NDI_165.pdb
 -----------
 Symbolic Z-matrix:
 Charge = -2 Multiplicity = 1

 SCF Done:  E(RB3LYP) =  -2359.34126010     A.U. after   23 cycles
 SCF Done:  E(RB3LYP) =  -2359.37189221     A.U. after   20 cycles
 SCF Done:  E(RB3LYP) =  -2359.38634839     A.U. after   16 cycles
 SCF Done:  E(RB3LYP) =  -2359.39087456     A.U. after   17 cycles
 SCF Done:  E(RB3LYP) =  -2359.39273744     A.U. after   17 cycles
 SCF Done:  E(RB3LYP) =  -2359.39321163     A.U. after   17 cycles
 SCF Done:  E(RB3LYP) =  -2359.39363340     A.U. after   14 cycles
 SCF Done:  E(RB3LYP) =  -2359.39391552     A.U. after   14 cycles
 SCF Done:  E(RB3LYP) =  -2359.39404732     A.U. after   14 cycles
 SCF Done:  E(RB3LYP) =  -2359.39411518     A.U. after   12 cycles
 SCF Done:  E(RB3LYP) =  -2359.39816284     A.U. after   12 cycles
 SCF Done:  E(RB3LYP) =  -2359.39816343     A.U. after   12 cycles
 SCF Done:  E(RB3LYP) =  -2359.39816404     A.U. after   11 cycles
 SCF Done:  E(RB3LYP) =  -2359.39816438     A.U. after   11 cycles
 SCF Done:  E(RB3LYP) =  -2359.39816477     A.U. after   11 cycles
 SCF Done:  E(RB3LYP) =  -2359.39816527     A.U. after   11 cycles
 SCF Done:  E(RB3LYP) =  -2359.39816540     A.U. after   10 cycles
 SCF Done:  E(RB3LYP) =  -2359.39816578     A.U. after   11 cycles
 SCF Done:  E(RB3LYP) =  -2359.39816597     A.U. after   11 cycles
 SCF Done:  E(RB3LYP) =  -2359.39816601     A.U. after   10 cycles
 Optimization completed.
    -- Stationary point found.

                         Standard orientation:
 ---------------------------------------------------------------------
 Center     Atomic      Atomic             Coordinates (Angstroms)
 Number     Number       Type             X           Y           Z
 ---------------------------------------------------------------------
      1          6           0       -3.519345   -2.683187   -0.046975
      2          6           0       -2.786020   -1.451042    0.092361
      3          6           0       -3.433774   -0.198328   -0.104225
      4          6           0       -4.802907   -0.130815   -0.435091
      5          6           0       -5.578495   -1.342537   -0.585551
      6          6           0       -1.401844   -1.492644    0.343034
      7          6           0       -2.659771    1.010605    0.059758
      8          6           0       -1.273194    0.943861    0.406319
      9          6           0       -0.610468   -0.361287    0.477998
     10          6           0       -0.624008    2.150944    0.830953
     11          6           0       -2.644566    3.489673    0.145133
     12          6           0       -3.338860    2.248645   -0.088051
     13          6           0       -4.721971    2.285977   -0.434802
     14          6           0       -5.438115    1.136421   -0.609943
     15          1           0       -6.490120    1.149096   -0.867042
     16          1           0       -5.179311    3.262588   -0.541890
     17          1           0       -0.951981   -2.476146    0.337418
     18          7           0       -1.327598    3.368383    0.597738
     19          7           0       -4.885671   -2.555878   -0.376313
     20          8           0       -3.048191   -3.828190    0.099723
     21          8           0       -6.789285   -1.368150   -0.877828
     22          8           0       -3.139999    4.627636    0.003850
     23          8           0        0.488182    2.217214    1.395153
     24          6           0       -0.646825    4.616270    0.923698
     25          1           0       -1.117123    5.100463    1.786249
     26          1           0        0.387753    4.376558    1.154367
     27          1           0       -0.723766    5.304850    0.080031
     28          6           0       -5.627837   -3.803905   -0.513059
     29          1           0       -5.193247   -4.418154   -1.306422
     30          1           0       -5.569247   -4.379787    0.414111
     31          1           0       -6.658316   -3.548020   -0.746269
     32          6           0        0.827112   -0.601556    0.477789
     33          6           0        1.462116   -1.794665    0.836259
     34         16           0        1.999341    0.479909   -0.250375
     35          6           0        2.828921   -1.829496    0.530805
     36          1           0        0.932564   -2.599018    1.323281
     37          6           0        3.327980   -0.678027   -0.078565
     38          8           0        3.687779   -2.868864    0.809582
     39          6           0        4.681575   -0.368355   -0.420738
     40          6           0        3.134001   -4.021526    1.414063
     41          6           0        5.228572    0.820832   -0.905139
     42         16           0        5.986244   -1.567639   -0.304009
     43          1           0        3.957347   -4.727887    1.532766
     44          1           0        2.706433   -3.793054    2.397787
     45          1           0        2.355822   -4.470127    0.785651
     46          6           0        6.619957    0.769241   -1.182191
     47          8           0        4.480123    1.951249   -1.164272
     48          6           0        7.180003   -0.447180   -0.913079
     49          1           0        7.162153    1.620344   -1.576939
     50          6           0        4.387117    2.875502   -0.074975
     51          1           0        8.206030   -0.761468   -1.027678
     52          1           0        5.383382    3.241024    0.208000
     53          1           0        3.774313    3.706072   -0.426871
     54          1           0        3.895815    2.421124    0.789242
 ---------------------------------------------------------------------

 The electronic state is 1-A.
 Alpha  occ. eigenvalues --  -88.71007 -88.67664 -18.99554 -18.97835 -18.88049
 Alpha  occ. eigenvalues --  -18.87694 -18.86770 -18.86276 -14.15669 -14.14567
 Alpha  occ. eigenvalues --  -10.07730 -10.06491 -10.06093 -10.05671 -10.05619
 Alpha  occ. eigenvalues --  -10.05477 -10.05110 -10.05025 -10.04700 -10.03399
 Alpha  occ. eigenvalues --  -10.02052 -10.01957 -10.01575 -10.01067 -10.00014
 Alpha  occ. eigenvalues --   -9.98450  -9.98410  -9.98366  -9.98237  -9.97035
 Alpha  occ. eigenvalues --   -9.96449  -9.96148  -9.95970  -9.95945  -9.95795
 Alpha  occ. eigenvalues --   -9.95779  -7.79559  -7.76200  -5.75875  -5.75503
 Alpha  occ. eigenvalues --   -5.75110  -5.72535  -5.72134  -5.71725  -0.90842
 Alpha  occ. eigenvalues --   -0.88996  -0.83770  -0.82597  -0.81365  -0.80108
 Alpha  occ. eigenvalues --   -0.72380  -0.71537  -0.71230  -0.69074  -0.66806
 Alpha  occ. eigenvalues --   -0.62295  -0.59915  -0.59287  -0.58076  -0.57505
 Alpha  occ. eigenvalues --   -0.55422  -0.53632  -0.53528  -0.52652  -0.51899
 Alpha  occ. eigenvalues --   -0.50270  -0.49753  -0.47659  -0.43812  -0.42745
 Alpha  occ. eigenvalues --   -0.42384  -0.41783  -0.40496  -0.39630  -0.37809
 Alpha  occ. eigenvalues --   -0.37242  -0.36305  -0.34327  -0.33905  -0.32028
 Alpha  occ. eigenvalues --   -0.31849  -0.31451  -0.30281  -0.29925  -0.29677
 Alpha  occ. eigenvalues --   -0.29086  -0.28073  -0.27669  -0.27342  -0.26703
 Alpha  occ. eigenvalues --   -0.26245  -0.25471  -0.25236  -0.25044  -0.24457
 Alpha  occ. eigenvalues --   -0.23485  -0.23022  -0.22600  -0.22039  -0.21426
 Alpha  occ. eigenvalues --   -0.21314  -0.20914  -0.20840  -0.20416  -0.19851
 Alpha  occ. eigenvalues --   -0.19538  -0.19305  -0.18779  -0.18462  -0.18293
 Alpha  occ. eigenvalues --   -0.17908  -0.17784  -0.16741  -0.16467  -0.16282
 Alpha  occ. eigenvalues --   -0.15303  -0.14860  -0.14390  -0.12578  -0.11791
 Alpha  occ. eigenvalues --   -0.11481  -0.09665  -0.08554  -0.07257  -0.07030
 Alpha  occ. eigenvalues --   -0.06612  -0.06150  -0.05799  -0.05135  -0.04926
 Alpha  occ. eigenvalues --   -0.04651  -0.03346  -0.01784   0.00092   0.06434
 Alpha virt. eigenvalues --    0.12207   0.12991   0.13807   0.14610   0.15722
 Alpha virt. eigenvalues --    0.15949   0.16582   0.16621   0.16858   0.17440
 Alpha virt. eigenvalues --    0.17561   0.18094   0.18692   0.18940   0.19060

 Mulliken charges:
               1
     1  C    0.240410
     2  C   -0.142324
     3  C    0.121086
     4  C    0.266089
     5  C    0.090134
     6  C    0.083041
     7  C    0.094186
     8  C    0.283903
     9  C    0.332531
    10  C   -0.697964
    11  C    0.135065
    12  C    0.078086
    13  C   -0.436276
    14  C   -0.571533
    15  H    0.103545
    16  H    0.107509
    17  H    0.123585
    18  N   -0.024488
    19  N   -0.136688
    20  O   -0.429579
    21  O   -0.405146
    22  O   -0.430261
    23  O   -0.344108
    24  C   -0.158657
    25  H    0.122557
    26  H    0.159463
    27  H    0.139704
    28  C   -0.180848
    29  H    0.135305
    30  H    0.134611
    31  H    0.157032
    32  C    0.106505
    33  C   -0.683725
    34  S   -0.771535
    35  C   -0.522835
    36  H    0.112434
    37  C    0.665695
    38  O   -0.130209
    39  C    0.431584
    40  C   -0.229370
    41  C    0.064353
    42  S   -0.357039
    43  H    0.132306
    44  H    0.133228
    45  H    0.143381
    46  C   -0.041702
    47  O   -0.140677
    48  C   -0.211492
    49  H    0.092815
    50  C   -0.297168
    51  H    0.118596
    52  H    0.100460
    53  H    0.145310
    54  H    0.189118
 Sum of Mulliken charges =  -2.00000

 Dipole moment (field-independent basis, Debye):
    X=             14.1865    Y=             -3.3742    Z=              1.6674  Tot=             14.6773
 Quadrupole moment (field-independent basis, Debye-Ang):
   XX=           -420.2170   YY=           -303.7056   ZZ=           -242.5386
   XY=              6.2912   XZ=             -4.3179   YZ=             -5.2090

 Normal termination of Gaussian 16 at Fri Oct  8 13:56:06 2021.
