 Gaussian 16, Revision C.01,
 Gaussian 16:  ES64L-G16RevC.01  3-Jul-2019

 -------------------------------------
 # opt=modredundant b3lyp/6-311+g(d,p)
 -------------------------------------

 ----------
 NDI_15.pdb
 ----------
 Symbolic Z-matrix:
 Charge = -2 Multiplicity = 1

 SCF Done:  E(RB3LYP) =  -2359.36348899     A.U. after   22 cycles
 SCF Done:  E(RB3LYP) =  -2359.36990493     A.U. after   20 cycles
 SCF Done:  E(RB3LYP) =  -2359.37957866     A.U. after   15 cycles
 SCF Done:  E(RB3LYP) =  -2359.38949741     A.U. after   16 cycles
 SCF Done:  E(RB3LYP) =  -2359.39312271     A.U. after   16 cycles
 SCF Done:  E(RB3LYP) =  -2359.39359196     A.U. after   14 cycles
 SCF Done:  E(RB3LYP) =  -2359.39366826     A.U. after   13 cycles
 SCF Done:  E(RB3LYP) =  -2359.39368172     A.U. after   13 cycles
 SCF Done:  E(RB3LYP) =  -2359.39370446     A.U. after   12 cycles
 SCF Done:  E(RB3LYP) =  -2359.39373308     A.U. after   13 cycles
 SCF Done:  E(RB3LYP) =  -2359.39813872     A.U. after   13 cycles
 SCF Done:  E(RB3LYP) =  -2359.39814326     A.U. after   12 cycles
 SCF Done:  E(RB3LYP) =  -2359.39814556     A.U. after   12 cycles
 SCF Done:  E(RB3LYP) =  -2359.39814651     A.U. after   12 cycles
 SCF Done:  E(RB3LYP) =  -2359.39814698     A.U. after   12 cycles
 SCF Done:  E(RB3LYP) =  -2359.39814755     A.U. after   11 cycles
 SCF Done:  E(RB3LYP) =  -2359.39814779     A.U. after   11 cycles
 SCF Done:  E(RB3LYP) =  -2359.39814804     A.U. after   10 cycles
 SCF Done:  E(RB3LYP) =  -2359.39814820     A.U. after   11 cycles
 SCF Done:  E(RB3LYP) =  -2359.39814824     A.U. after   10 cycles
 Optimization completed.
    -- Stationary point found.

                         Standard orientation:
 ---------------------------------------------------------------------
 Center     Atomic      Atomic             Coordinates (Angstroms)
 Number     Number       Type             X           Y           Z
 ---------------------------------------------------------------------
      1          6           0       -2.510106   -2.971223    0.399686
      2          6           0       -2.227318   -1.560941    0.289229
      3          6           0       -3.256343   -0.639583   -0.057344
      4          6           0       -4.561622   -1.087364   -0.340832
      5          6           0       -4.882139   -2.498209   -0.281477
      6          6           0       -0.909859   -1.105375    0.439223
      7          6           0       -2.938197    0.771193   -0.072371
      8          6           0       -1.615057    1.229006    0.240179
      9          6           0       -0.525983    0.227353    0.352920
     10          6           0       -1.467748    2.625964    0.530307
     11          6           0       -3.800038    3.091423   -0.302524
     12          6           0       -4.004938    1.668770   -0.355566
     13          6           0       -5.310333    1.183902   -0.667482
     14          6           0       -5.589755   -0.151469   -0.665466
     15          1           0       -6.578867   -0.533150   -0.886027
     16          1           0       -6.070102    1.924008   -0.888907
     17          1           0       -0.163957   -1.878419    0.585913
     18          7           0       -2.538420    3.483923    0.162161
     19          7           0       -3.831338   -3.361945    0.094803
     20          8           0       -1.691869   -3.849744    0.726882
     21          8           0       -6.007998   -2.969218   -0.528292
     22          8           0       -4.659811    3.949040   -0.598847
     23          8           0       -0.500092    3.184426    1.101590
     24          6           0       -2.309993    4.908287    0.380199
     25          1           0       -2.196787    5.120832    1.447254
     26          1           0       -1.386142    5.218368   -0.112865
     27          1           0       -3.168556    5.438636   -0.024532
     28          6           0       -4.111707   -4.790382    0.187027
     29          1           0       -3.449273   -5.347398   -0.480371
     30          1           0       -3.925898   -5.147235    1.203635
     31          1           0       -5.152783   -4.938475   -0.088412
     32          6           0        0.900438    0.471766    0.205814
     33          6           0        1.649769    1.642700    0.203988
     34         16           0        1.995253   -0.900587   -0.118246
     35          6           0        3.028969    1.445434    0.030231
     36          1           0        1.173401    2.586454    0.416678
     37          6           0        3.440631    0.126261   -0.135491
     38          8           0        3.971872    2.443317    0.043367
     39          6           0        4.765447   -0.385813   -0.280066
     40          6           0        3.504825    3.768435    0.249321
     41          6           0        5.206594   -1.707812   -0.359805
     42         16           0        6.181923    0.676904   -0.417289
     43          1           0        4.391829    4.404083    0.236509
     44          1           0        2.818131    4.076345   -0.546186
     45          1           0        2.990739    3.866698    1.210738
     46          6           0        6.606327   -1.862429   -0.535172
     47          8           0        4.349167   -2.790748   -0.336170
     48          6           0        7.277691   -0.673620   -0.585133
     49          1           0        7.074523   -2.835065   -0.630082
     50          6           0        4.155583   -3.372028    0.953890
     51          1           0        8.334734   -0.497706   -0.712956
     52          1           0        3.762893   -2.636732    1.662410
     53          1           0        3.422654   -4.170084    0.828970
     54          1           0        5.095970   -3.788144    1.340102
 ---------------------------------------------------------------------

 The electronic state is 1-A.
 Alpha  occ. eigenvalues --  -88.71163 -88.67736 -18.99198 -18.98292 -18.88234
 Alpha  occ. eigenvalues --  -18.87796 -18.86919 -18.86560 -14.15755 -14.14846
 Alpha  occ. eigenvalues --  -10.06848 -10.06668 -10.06454 -10.06225 -10.05713
 Alpha  occ. eigenvalues --  -10.05538 -10.05367 -10.05351 -10.04899 -10.03569
 Alpha  occ. eigenvalues --  -10.02182 -10.02067 -10.01785 -10.01103 -10.00303
 Alpha  occ. eigenvalues --   -9.98681  -9.98560  -9.98469  -9.97076  -9.96905
 Alpha  occ. eigenvalues --   -9.96615  -9.96476  -9.96286  -9.96049  -9.95920
 Alpha  occ. eigenvalues --   -9.95869  -7.79711  -7.76307  -5.76027  -5.75654
 Alpha  occ. eigenvalues --   -5.75260  -5.72651  -5.72263  -5.71805  -0.90449
 Alpha  occ. eigenvalues --   -0.89500  -0.83958  -0.82842  -0.81569  -0.80293
 Alpha  occ. eigenvalues --   -0.72525  -0.71702  -0.71427  -0.68867  -0.66883
 Alpha  occ. eigenvalues --   -0.62308  -0.60017  -0.59337  -0.58281  -0.57376
 Alpha  occ. eigenvalues --   -0.55254  -0.54067  -0.53266  -0.52848  -0.51986
 Alpha  occ. eigenvalues --   -0.50361  -0.49852  -0.47673  -0.44165  -0.42824
 Alpha  occ. eigenvalues --   -0.42465  -0.41950  -0.40647  -0.39627  -0.37963
 Alpha  occ. eigenvalues --   -0.37090  -0.36096  -0.34440  -0.34016  -0.31975
 Alpha  occ. eigenvalues --   -0.31306  -0.31120  -0.30749  -0.30489  -0.29887
 Alpha  occ. eigenvalues --   -0.28916  -0.28442  -0.27754  -0.27204  -0.26915
 Alpha  occ. eigenvalues --   -0.26253  -0.25729  -0.25367  -0.25085  -0.24275
 Alpha  occ. eigenvalues --   -0.23612  -0.23134  -0.22655  -0.22430  -0.21520
 Alpha  occ. eigenvalues --   -0.21382  -0.21029  -0.20860  -0.20282  -0.19840
 Alpha  occ. eigenvalues --   -0.19479  -0.19268  -0.19180  -0.18660  -0.18564
 Alpha  occ. eigenvalues --   -0.18201  -0.17702  -0.16808  -0.16354  -0.16164
 Alpha  occ. eigenvalues --   -0.15415  -0.15057  -0.14306  -0.12656  -0.12137
 Alpha  occ. eigenvalues --   -0.11442  -0.09825  -0.08755  -0.07342  -0.07180
 Alpha  occ. eigenvalues --   -0.06653  -0.06183  -0.05790  -0.05224  -0.05093
 Alpha  occ. eigenvalues --   -0.05022  -0.03835  -0.02013   0.00002   0.06304
 Alpha virt. eigenvalues --    0.11829   0.12902   0.14067   0.14612   0.15551
 Alpha virt. eigenvalues --    0.15856   0.16474   0.16676   0.16820   0.17240
 Alpha virt. eigenvalues --    0.17629   0.18023   0.18615   0.18903   0.18934

 Mulliken charges:
               1
     1  C    0.191627
     2  C   -0.075779
     3  C    0.040672
     4  C    0.280161
     5  C    0.121680
     6  C    0.080509
     7  C    0.068215
     8  C    0.400556
     9  C    0.226263
    10  C   -0.635173
    11  C    0.119869
    12  C    0.225602
    13  C   -0.477095
    14  C   -0.586427
    15  H    0.104004
    16  H    0.109435
    17  H    0.133122
    18  N   -0.064971
    19  N   -0.131386
    20  O   -0.415329
    21  O   -0.405891
    22  O   -0.425377
    23  O   -0.427248
    24  C   -0.143018
    25  H    0.133435
    26  H    0.132415
    27  H    0.156350
    28  C   -0.181138
    29  H    0.139490
    30  H    0.134436
    31  H    0.156217
    32  C   -0.116014
    33  C   -0.163303
    34  S   -1.004960
    35  C   -0.693537
    36  H    0.201329
    37  C    0.571821
    38  O   -0.132358
    39  C    0.374247
    40  C   -0.246347
    41  C    0.220541
    42  S   -0.363937
    43  H    0.127803
    44  H    0.143242
    45  H    0.153761
    46  C   -0.064788
    47  O   -0.140918
    48  C   -0.187200
    49  H    0.092884
    50  C   -0.298279
    51  H    0.118882
    52  H    0.164013
    53  H    0.153732
    54  H    0.104160
 Sum of Mulliken charges =  -2.00000

 Dipole moment (field-independent basis, Debye):
    X=             14.4569    Y=              0.3445    Z=              1.2585  Tot=             14.5156
 Quadrupole moment (field-independent basis, Debye-Ang):
   XX=           -419.2851   YY=           -307.9020   ZZ=           -241.3671
   XY=              5.8282   XZ=             -4.5814   YZ=             -1.9874

 Normal termination of Gaussian 16 at Fri Oct  8 09:57:17 2021.
