 Gaussian 16, Revision C.01,
 Gaussian 16:  ES64L-G16RevC.01  3-Jul-2019

 -------------------------------------
 # opt=modredundant b3lyp/6-311+g(d,p)
 -------------------------------------

 ----------
 NDI_95.pdb
 ----------
 Symbolic Z-matrix:
 Charge = -2 Multiplicity = 1

 SCF Done:  E(RB3LYP) =  -2359.36862650     A.U. after   27 cycles
 SCF Done:  E(RB3LYP) =  -2359.38631157     A.U. after   16 cycles
 SCF Done:  E(RB3LYP) =  -2359.38946012     A.U. after   16 cycles
 SCF Done:  E(RB3LYP) =  -2359.38977519     A.U. after   15 cycles
 SCF Done:  E(RB3LYP) =  -2359.38988231     A.U. after   15 cycles
 SCF Done:  E(RB3LYP) =  -2359.39003967     A.U. after   13 cycles
 SCF Done:  E(RB3LYP) =  -2359.39008489     A.U. after   15 cycles
 SCF Done:  E(RB3LYP) =  -2359.39011221     A.U. after   14 cycles
 SCF Done:  E(RB3LYP) =  -2359.39013370     A.U. after   15 cycles
 SCF Done:  E(RB3LYP) =  -2359.39016322     A.U. after   13 cycles
 SCF Done:  E(RB3LYP) =  -2359.39529919     A.U. after   15 cycles
 SCF Done:  E(RB3LYP) =  -2359.39537263     A.U. after   15 cycles
 SCF Done:  E(RB3LYP) =  -2359.39537772     A.U. after   13 cycles
 SCF Done:  E(RB3LYP) =  -2359.39538326     A.U. after   12 cycles
 SCF Done:  E(RB3LYP) =  -2359.39538632     A.U. after   11 cycles
 SCF Done:  E(RB3LYP) =  -2359.39538841     A.U. after   12 cycles
 SCF Done:  E(RB3LYP) =  -2359.39538880     A.U. after   12 cycles
 SCF Done:  E(RB3LYP) =  -2359.39538900     A.U. after   12 cycles
 SCF Done:  E(RB3LYP) =  -2359.39538909     A.U. after   10 cycles
 SCF Done:  E(RB3LYP) =  -2359.39538911     A.U. after   10 cycles
 Optimization completed.
    -- Stationary point found.

                         Standard orientation:
 ---------------------------------------------------------------------
 Center     Atomic      Atomic             Coordinates (Angstroms)
 Number     Number       Type             X           Y           Z
 ---------------------------------------------------------------------
      1          6           0        3.575715   -2.724855    0.098933
      2          6           0        2.818739   -1.507800    0.037475
      3          6           0        3.472316   -0.249199    0.116726
      4          6           0        4.878941   -0.162243    0.261504
      5          6           0        5.678516   -1.356027    0.334010
      6          6           0        1.402657   -1.562996   -0.106329
      7          6           0        2.680524    0.961830    0.039066
      8          6           0        1.261609    0.880650   -0.110225
      9          6           0        0.632829   -0.431163   -0.171889
     10          6           0        0.499765    2.090497   -0.215515
     11          6           0        2.616033    3.441488    0.014865
     12          6           0        3.350964    2.211412    0.103745
     13          6           0        4.776006    2.262140    0.252051
     14          6           0        5.514346    1.119641    0.329783
     15          1           0        6.591915    1.142504    0.441016
     16          1           0        5.235874    3.242158    0.297582
     17          1           0        0.942486   -2.542740   -0.154461
     18          7           0        1.221252    3.303152   -0.142705
     19          7           0        4.972109   -2.578567    0.248962
     20          8           0        3.102947   -3.881138    0.030428
     21          8           0        6.922916   -1.371680    0.462069
     22          8           0        3.124660    4.584471    0.063612
     23          8           0       -0.744222    2.170697   -0.367405
     24          6           0        0.424435    4.519978   -0.244705
     25          1           0       -0.113461    4.542815   -1.196631
     26          1           0       -0.323886    4.550362    0.551818
     27          1           0        1.108398    5.361599   -0.166497
     28          6           0        5.737096   -3.817371    0.316147
     29          1           0        5.384936   -4.433474    1.147983
     30          1           0        5.598062   -4.399530   -0.599454
     31          1           0        6.782440   -3.548051    0.446863
     32          6           0       -0.825818   -0.597767   -0.347145
     33          6           0       -1.517937   -0.798114   -1.513507
     34         16           0       -1.927600   -0.570594    1.008318
     35          6           0       -2.928457   -0.866435   -1.334397
     36          1           0       -1.011345   -0.823728   -2.466972
     37          6           0       -3.340129   -0.736809   -0.026719
     38          8           0       -3.859185   -0.999014   -2.338253
     39          6           0       -4.695230   -0.667442    0.498833
     40          6           0       -3.367117   -1.030811   -3.666071
     41          6           0       -5.430808    0.413101    0.947330
     42         16           0       -5.633929   -2.149597    0.750341
     43          1           0       -4.242859   -1.122090   -4.310777
     44          1           0       -2.824789   -0.112085   -3.917308
     45          1           0       -2.706133   -1.890009   -3.831172
     46          6           0       -6.710709    0.059384    1.486072
     47          8           0       -5.106003    1.732832    0.951308
     48          6           0       -6.959312   -1.279501    1.444069
     49          1           0       -7.397230    0.803855    1.868351
     50          6           0       -4.115359    2.234049    0.028915
     51          1           0       -7.851048   -1.798460    1.763291
     52          1           0       -4.322991    1.869418   -0.980313
     53          1           0       -4.228577    3.318044    0.061623
     54          1           0       -3.097451    1.967211    0.310531
 ---------------------------------------------------------------------

 The electronic state is 1-A.
 Alpha  occ. eigenvalues --  -88.72740 -88.69063 -19.00186 -18.99876 -18.86153
 Alpha  occ. eigenvalues --  -18.85953 -18.85928 -18.85921 -14.14178 -14.14165
 Alpha  occ. eigenvalues --  -10.08711 -10.08344 -10.06748 -10.06164 -10.05521
 Alpha  occ. eigenvalues --  -10.05253 -10.04637 -10.04508 -10.04426 -10.04340
 Alpha  occ. eigenvalues --  -10.03663 -10.02974 -10.02610  -9.99772  -9.99708
 Alpha  occ. eigenvalues --   -9.99414  -9.97622  -9.97413  -9.97385  -9.95660
 Alpha  occ. eigenvalues --   -9.95607  -9.94790  -9.94786  -9.94716  -9.94711
 Alpha  occ. eigenvalues --   -9.94641  -7.81338  -7.77667  -5.77637  -5.77270
 Alpha  occ. eigenvalues --   -5.76914  -5.73976  -5.73597  -5.73226  -0.91442
 Alpha  occ. eigenvalues --   -0.90899  -0.81911  -0.81884  -0.79385  -0.79322
 Alpha  occ. eigenvalues --   -0.73488  -0.70721  -0.70672  -0.70339  -0.65827
 Alpha  occ. eigenvalues --   -0.62028  -0.60036  -0.59685  -0.58754  -0.58493
 Alpha  occ. eigenvalues --   -0.55402  -0.54239  -0.53114  -0.52411  -0.51707
 Alpha  occ. eigenvalues --   -0.50497  -0.49129  -0.46938  -0.44007  -0.42587
 Alpha  occ. eigenvalues --   -0.41720  -0.41597  -0.40490  -0.39345  -0.39067
 Alpha  occ. eigenvalues --   -0.37993  -0.37013  -0.33389  -0.33121  -0.32674
 Alpha  occ. eigenvalues --   -0.32480  -0.31152  -0.31046  -0.30538  -0.29992
 Alpha  occ. eigenvalues --   -0.29373  -0.28876  -0.26758  -0.26298  -0.26143
 Alpha  occ. eigenvalues --   -0.25792  -0.25408  -0.24827  -0.24436  -0.24240
 Alpha  occ. eigenvalues --   -0.24054  -0.22938  -0.22606  -0.22172  -0.21315
 Alpha  occ. eigenvalues --   -0.20951  -0.20894  -0.20243  -0.20049  -0.19825
 Alpha  occ. eigenvalues --   -0.19371  -0.18580  -0.18513  -0.18391  -0.17879
 Alpha  occ. eigenvalues --   -0.17403  -0.17120  -0.16778  -0.16508  -0.16230
 Alpha  occ. eigenvalues --   -0.15687  -0.15197  -0.14288  -0.14137  -0.11382
 Alpha  occ. eigenvalues --   -0.10193  -0.09634  -0.07220  -0.06830  -0.06050
 Alpha  occ. eigenvalues --   -0.05925  -0.05395  -0.05250  -0.04651  -0.04306
 Alpha  occ. eigenvalues --   -0.03642  -0.03221  -0.02456  -0.00183   0.07429
 Alpha virt. eigenvalues --    0.11860   0.12190   0.13192   0.13724   0.14894
 Alpha virt. eigenvalues --    0.15334   0.16137   0.16380   0.16945   0.17229
 Alpha virt. eigenvalues --    0.17396   0.17508   0.17931   0.18219   0.18281

 Mulliken charges:
               1
     1  C    0.338694
     2  C   -0.049272
     3  C    0.081889
     4  C    0.218282
     5  C    0.198468
     6  C   -0.716842
     7  C    0.179408
     8  C   -0.072845
     9  C    0.487437
    10  C   -0.197496
    11  C    0.078275
    12  C    0.315712
    13  C   -0.628917
    14  C   -0.642307
    15  H    0.101662
    16  H    0.102844
    17  H    0.107662
    18  N   -0.162443
    19  N   -0.135369
    20  O   -0.439626
    21  O   -0.429410
    22  O   -0.425569
    23  O   -0.321640
    24  C   -0.209109
    25  H    0.131628
    26  H    0.135593
    27  H    0.159623
    28  C   -0.184928
    29  H    0.132091
    30  H    0.129413
    31  H    0.155994
    32  C    0.409475
    33  C   -0.536711
    34  S    0.037045
    35  C   -0.824426
    36  H    0.099295
    37  C    0.273638
    38  O   -0.122715
    39  C    0.285826
    40  C   -0.229411
    41  C   -0.025157
    42  S   -0.151964
    43  H    0.127445
    44  H    0.150838
    45  H    0.139783
    46  C   -0.127718
    47  O   -0.199760
    48  C   -0.197810
    49  H    0.105492
    50  C   -0.284300
    51  H    0.128245
    52  H    0.136529
    53  H    0.128208
    54  H    0.239250
 Sum of Mulliken charges =  -2.00000

 Dipole moment (field-independent basis, Debye):
    X=            -19.5938    Y=             -1.4827    Z=             -3.1535  Tot=             19.9013
 Quadrupole moment (field-independent basis, Debye-Ang):
   XX=           -424.7225   YY=           -318.2987   ZZ=           -229.3606
   XY=             -1.1619   XZ=             -1.4032   YZ=              1.0911

 Normal termination of Gaussian 16 at Sat Oct  9 08:02:13 2021.
