 Gaussian 16, Revision C.01,
 Gaussian 16:  ES64L-G16RevC.01  3-Jul-2019

 -------------------------------------
 # opt=modredundant b3lyp/6-311+g(d,p)
 -------------------------------------

 -----------
 NDI_-45.pdb
 -----------
 Symbolic Z-matrix:
 Charge = -2 Multiplicity = 1

 SCF Done:  E(RB3LYP) =  -2359.38105243     A.U. after   23 cycles
 SCF Done:  E(RB3LYP) =  -2359.39525197     A.U. after   15 cycles
 SCF Done:  E(RB3LYP) =  -2359.39682794     A.U. after   15 cycles
 SCF Done:  E(RB3LYP) =  -2359.39683383     A.U. after   14 cycles
 SCF Done:  E(RB3LYP) =  -2359.39741622     A.U. after   15 cycles
 SCF Done:  E(RB3LYP) =  -2359.39743298     A.U. after   13 cycles
 SCF Done:  E(RB3LYP) =  -2359.39745266     A.U. after   13 cycles
 SCF Done:  E(RB3LYP) =  -2359.39746142     A.U. after   13 cycles
 SCF Done:  E(RB3LYP) =  -2359.39746943     A.U. after   12 cycles
 SCF Done:  E(RB3LYP) =  -2359.39748293     A.U. after   13 cycles
 SCF Done:  E(RB3LYP) =  -2359.40083047     A.U. after   12 cycles
 SCF Done:  E(RB3LYP) =  -2359.40083137     A.U. after   12 cycles
 SCF Done:  E(RB3LYP) =  -2359.40083232     A.U. after   12 cycles
 SCF Done:  E(RB3LYP) =  -2359.40083312     A.U. after   11 cycles
 SCF Done:  E(RB3LYP) =  -2359.40083351     A.U. after   11 cycles
 SCF Done:  E(RB3LYP) =  -2359.40083392     A.U. after   11 cycles
 SCF Done:  E(RB3LYP) =  -2359.40083420     A.U. after   11 cycles
 SCF Done:  E(RB3LYP) =  -2359.40083437     A.U. after   10 cycles
 SCF Done:  E(RB3LYP) =  -2359.40083446     A.U. after   10 cycles
 SCF Done:  E(RB3LYP) =  -2359.40083448     A.U. after   10 cycles
 Optimization completed.
    -- Stationary point found.

                         Standard orientation:
 ---------------------------------------------------------------------
 Center     Atomic      Atomic             Coordinates (Angstroms)
 Number     Number       Type             X           Y           Z
 ---------------------------------------------------------------------
      1          6           0        2.638816   -2.958126    0.286800
      2          6           0        2.299814   -1.569356    0.112251
      3          6           0        3.319910   -0.578458    0.053414
      4          6           0        4.683322   -0.933013    0.149527
      5          6           0        5.070349   -2.314830    0.315644
      6          6           0        0.943227   -1.187448    0.051576
      7          6           0        2.936194    0.806771   -0.114114
      8          6           0        1.554787    1.169831   -0.207202
      9          6           0        0.535415    0.129956   -0.061537
     10          6           0        1.226372    2.535273   -0.513901
     11          6           0        3.669781    3.161190   -0.419695
     12          6           0        3.975045    1.771418   -0.205217
     13          6           0        5.345502    1.380319   -0.100571
     14          6           0        5.695041    0.073675    0.075255
     15          1           0        6.729433   -0.237994    0.153204
     16          1           0        6.090182    2.163985   -0.173027
     17          1           0        0.210009   -1.973671    0.178938
     18          7           0        2.306614    3.455538   -0.578500
     19          7           0        4.016421   -3.253403    0.370347
     20          8           0        1.824475   -3.898713    0.366579
     21          8           0        6.250247   -2.707661    0.410223
     22          8           0        4.521381    4.074549   -0.484108
     23          8           0        0.086299    2.994685   -0.737795
     24          6           0        1.937100    4.836452   -0.868406
     25          1           0        1.408275    4.893083   -1.823144
     26          1           0        1.258611    5.217620   -0.100118
     27          1           0        2.854763    5.418877   -0.895394
     28          6           0        4.357221   -4.661350    0.537995
     29          1           0        3.929340   -5.047601    1.467433
     30          1           0        3.937573   -5.249171   -0.282239
     31          1           0        5.441681   -4.735594    0.555266
     32          6           0       -0.895498    0.386049    0.052334
     33          6           0       -1.568280    1.321105    0.819133
     34         16           0       -2.051910   -0.700455   -0.710215
     35          6           0       -2.963015    1.156258    0.816381
     36          1           0       -1.044128    2.106225    1.338129
     37          6           0       -3.440259    0.085933    0.060542
     38          8           0       -3.857470    1.939627    1.504396
     39          6           0       -4.790535   -0.346612   -0.122079
     40          6           0       -3.351381    3.129279    2.088923
     41          6           0       -5.277610   -1.483018   -0.766983
     42         16           0       -6.177217    0.596357    0.458080
     43          1           0       -4.217981    3.668648    2.474886
     44          1           0       -2.665778    2.907517    2.915316
     45          1           0       -2.828591    3.743145    1.348451
     46          6           0       -6.692675   -1.586795   -0.810277
     47          8           0       -4.458159   -2.419424   -1.367478
     48          6           0       -7.326669   -0.545512   -0.194167
     49          1           0       -7.198753   -2.413510   -1.294427
     50          6           0       -4.074028   -3.502832   -0.517819
     51          1           0       -8.385133   -0.373547   -0.073046
     52          1           0       -4.951384   -4.089319   -0.214160
     53          1           0       -3.394777   -4.128731   -1.097762
     54          1           0       -3.550412   -3.140787    0.371521
 ---------------------------------------------------------------------

 The electronic state is 1-A.
 Alpha  occ. eigenvalues --  -88.71466 -88.68380 -18.99598 -18.98591 -18.87602
 Alpha  occ. eigenvalues --  -18.87237 -18.86708 -18.86129 -14.15301 -14.14605
 Alpha  occ. eigenvalues --  -10.07406 -10.06667 -10.06053 -10.06024 -10.05994
 Alpha  occ. eigenvalues --  -10.05670 -10.05195 -10.05180 -10.04945 -10.03882
 Alpha  occ. eigenvalues --  -10.02453 -10.02162 -10.02135 -10.00730 -10.00073
 Alpha  occ. eigenvalues --   -9.98393  -9.98288  -9.98235  -9.98185  -9.96708
 Alpha  occ. eigenvalues --   -9.96126  -9.96082  -9.95856  -9.95683  -9.95631
 Alpha  occ. eigenvalues --   -9.95564  -7.80016  -7.76946  -5.76331  -5.75959
 Alpha  occ. eigenvalues --   -5.75567  -5.73279  -5.72893  -5.72468  -0.90876
 Alpha  occ. eigenvalues --   -0.89779  -0.83338  -0.82528  -0.80906  -0.80003
 Alpha  occ. eigenvalues --   -0.72048  -0.71985  -0.71152  -0.69437  -0.66626
 Alpha  occ. eigenvalues --   -0.62231  -0.59929  -0.59305  -0.58568  -0.57769
 Alpha  occ. eigenvalues --   -0.55234  -0.54242  -0.53145  -0.52637  -0.52329
 Alpha  occ. eigenvalues --   -0.50280  -0.49780  -0.47492  -0.43996  -0.42714
 Alpha  occ. eigenvalues --   -0.42373  -0.41862  -0.40432  -0.39752  -0.38299
 Alpha  occ. eigenvalues --   -0.37181  -0.36564  -0.34114  -0.33771  -0.31779
 Alpha  occ. eigenvalues --   -0.31652  -0.31380  -0.30923  -0.30755  -0.30091
 Alpha  occ. eigenvalues --   -0.29240  -0.28642  -0.27315  -0.27083  -0.26641
 Alpha  occ. eigenvalues --   -0.26307  -0.25552  -0.25252  -0.24887  -0.24515
 Alpha  occ. eigenvalues --   -0.23388  -0.23199  -0.22360  -0.22253  -0.21614
 Alpha  occ. eigenvalues --   -0.21103  -0.20866  -0.20641  -0.20388  -0.19991
 Alpha  occ. eigenvalues --   -0.19530  -0.19219  -0.19073  -0.18727  -0.18209
 Alpha  occ. eigenvalues --   -0.17971  -0.17501  -0.16880  -0.16365  -0.15955
 Alpha  occ. eigenvalues --   -0.15376  -0.15049  -0.14883  -0.12618  -0.12058
 Alpha  occ. eigenvalues --   -0.11527  -0.09945  -0.08986  -0.06953  -0.06831
 Alpha  occ. eigenvalues --   -0.06277  -0.06235  -0.05531  -0.05418  -0.04647
 Alpha  occ. eigenvalues --   -0.04544  -0.03471  -0.01632  -0.00267   0.06605
 Alpha virt. eigenvalues --    0.11914   0.12744   0.13816   0.14344   0.15696
 Alpha virt. eigenvalues --    0.15892   0.16596   0.16792   0.16899   0.17104
 Alpha virt. eigenvalues --    0.17299   0.17893   0.18454   0.18658   0.18956

 Mulliken charges:
               1
     1  C    0.224986
     2  C   -0.072143
     3  C    0.074431
     4  C    0.216894
     5  C    0.114544
     6  C   -0.467486
     7  C    0.211823
     8  C    0.199732
     9  C    0.405072
    10  C   -0.422291
    11  C    0.309242
    12  C    0.092584
    13  C   -0.531753
    14  C   -0.613520
    15  H    0.103017
    16  H    0.107057
    17  H    0.147724
    18  N   -0.120075
    19  N   -0.135980
    20  O   -0.426772
    21  O   -0.409593
    22  O   -0.420525
    23  O   -0.339353
    24  C   -0.167282
    25  H    0.139454
    26  H    0.130490
    27  H    0.157937
    28  C   -0.180138
    29  H    0.133483
    30  H    0.135629
    31  H    0.157344
    32  C    0.004547
    33  C   -0.195158
    34  S   -0.616619
    35  C   -0.627881
    36  H    0.123706
    37  C    0.325978
    38  O   -0.119900
    39  C    0.553534
    40  C   -0.264524
    41  C    0.082517
    42  S   -0.356193
    43  H    0.129068
    44  H    0.129531
    45  H    0.167371
    46  C   -0.099678
    47  O   -0.134955
    48  C   -0.190653
    49  H    0.093936
    50  C   -0.307315
    51  H    0.120359
    52  H    0.106244
    53  H    0.150997
    54  H    0.170554
 Sum of Mulliken charges =  -2.00000

 Dipole moment (field-independent basis, Debye):
    X=            -15.5372    Y=             -0.1754    Z=              2.5582  Tot=             15.7473
 Quadrupole moment (field-independent basis, Debye-Ang):
   XX=           -426.8524   YY=           -307.4156   ZZ=           -238.0955
   XY=             -2.1078   XZ=             -7.4627   YZ=             12.8006

 Normal termination of Gaussian 16 at Fri Oct  8 07:15:58 2021.
