 Gaussian 16, Revision C.01,
 Gaussian 16:  ES64L-G16RevC.01  3-Jul-2019

 -------------------------------------
 # opt=modredundant b3lyp/6-311+g(d,p)
 -------------------------------------

 -----------
 NDI_130.pdb
 -----------
 Symbolic Z-matrix:
 Charge = -2 Multiplicity = 1

 SCF Done:  E(RB3LYP) =  -2359.37201235     A.U. after   23 cycles
 SCF Done:  E(RB3LYP) =  -2359.38725315     A.U. after   20 cycles
 SCF Done:  E(RB3LYP) =  -2359.39209512     A.U. after   15 cycles
 SCF Done:  E(RB3LYP) =  -2359.39316459     A.U. after   15 cycles
 SCF Done:  E(RB3LYP) =  -2359.39323909     A.U. after   15 cycles
 SCF Done:  E(RB3LYP) =  -2359.39349098     A.U. after   13 cycles
 SCF Done:  E(RB3LYP) =  -2359.39352367     A.U. after   13 cycles
 SCF Done:  E(RB3LYP) =  -2359.39355024     A.U. after   13 cycles
 SCF Done:  E(RB3LYP) =  -2359.39356999     A.U. after   13 cycles
 SCF Done:  E(RB3LYP) =  -2359.39359930     A.U. after   13 cycles
 SCF Done:  E(RB3LYP) =  -2359.39812690     A.U. after   13 cycles
 SCF Done:  E(RB3LYP) =  -2359.39813181     A.U. after   12 cycles
 SCF Done:  E(RB3LYP) =  -2359.39813362     A.U. after   12 cycles
 SCF Done:  E(RB3LYP) =  -2359.39813219     A.U. after   11 cycles
 SCF Done:  E(RB3LYP) =  -2359.39813888     A.U. after   12 cycles
 SCF Done:  E(RB3LYP) =  -2359.39814005     A.U. after   12 cycles
 SCF Done:  E(RB3LYP) =  -2359.39814062     A.U. after   10 cycles
 SCF Done:  E(RB3LYP) =  -2359.39814065     A.U. after   10 cycles
 SCF Done:  E(RB3LYP) =  -2359.39814066     A.U. after   10 cycles
 SCF Done:  E(RB3LYP) =  -2359.39814066     A.U. after    9 cycles
 Optimization completed.
    -- Stationary point found.

                         Standard orientation:
 ---------------------------------------------------------------------
 Center     Atomic      Atomic             Coordinates (Angstroms)
 Number     Number       Type             X           Y           Z
 ---------------------------------------------------------------------
      1          6           0        3.549955   -2.686530    0.318557
      2          6           0        2.801759   -1.477058    0.105792
      3          6           0        3.453240   -0.211866    0.131945
      4          6           0        4.843194   -0.111856    0.365609
      5          6           0        5.632381   -1.298542    0.592057
      6          6           0        1.400365   -1.543597   -0.081297
      7          6           0        2.671188    0.981598   -0.109442
      8          6           0        1.266632    0.882928   -0.353610
      9          6           0        0.620846   -0.419655   -0.264237
     10          6           0        0.558592    2.055303   -0.785107
     11          6           0        2.636202    3.442705   -0.437050
     12          6           0        3.348422    2.229075   -0.134756
     13          6           0        4.755039    2.296056    0.113041
     14          6           0        5.481501    1.168173    0.360363
     15          1           0        6.548510    1.203488    0.543894
     16          1           0        5.217072    3.275809    0.086718
     17          1           0        0.935008   -2.518302    0.000900
     18          7           0        1.277272    3.277859   -0.758450
     19          7           0        4.932728   -2.526079    0.552691
     20          8           0        3.078858   -3.842699    0.311435
     21          8           0        6.861377   -1.297325    0.809716
     22          8           0        3.148277    4.583405   -0.449547
     23          8           0       -0.622945    2.096281   -1.189240
     24          6           0        0.521022    4.460678   -1.152933
     25          1           0        0.180668    4.368005   -2.188306
     26          1           0       -0.368965    4.563049   -0.527248
     27          1           0        1.178625    5.319178   -1.040384
     28          6           0        5.688083   -3.753949    0.771097
     29          1           0        5.288524   -4.295012    1.633097
     30          1           0        5.597368   -4.412915   -0.096756
     31          1           0        6.725454   -3.474117    0.937099
     32          6           0       -0.824053   -0.644398   -0.308871
     33          6           0       -1.494416   -1.550637   -1.111631
     34         16           0       -1.953735    0.164565    0.755061
     35          6           0       -2.887400   -1.578516   -0.890074
     36          1           0       -0.974952   -2.133404   -1.857704
     37          6           0       -3.344664   -0.688340    0.075509
     38          8           0       -3.790891   -2.366700   -1.563438
     39          6           0       -4.697196   -0.414721    0.467578
     40          6           0       -3.282207   -3.207660   -2.582020
     41          6           0       -5.201613    0.634497    1.232272
     42         16           0       -6.040993   -1.485270    0.034347
     43          1           0       -4.140572   -3.744977   -2.988345
     44          1           0       -2.805256   -2.626507   -3.379897
     45          1           0       -2.557196   -3.927000   -2.183859
     46          6           0       -6.600223    0.573270    1.475528
     47          8           0       -4.425041    1.640941    1.764818
     48          6           0       -7.199333   -0.510845    0.900554
     49          1           0       -7.117334    1.323706    2.061094
     50          6           0       -4.159145    2.734305    0.873662
     51          1           0       -8.241753   -0.790263    0.906603
     52          1           0       -5.099280    3.193460    0.541655
     53          1           0       -3.576449    3.457960    1.444518
     54          1           0       -3.569911    2.412925    0.011540
 ---------------------------------------------------------------------

 The electronic state is 1-A.
 Alpha  occ. eigenvalues --  -88.71725 -88.68206 -19.00091 -18.98283 -18.87236
 Alpha  occ. eigenvalues --  -18.86931 -18.86474 -18.86060 -14.15025 -14.14388
 Alpha  occ. eigenvalues --  -10.08176 -10.06297 -10.06261 -10.05778 -10.05695
 Alpha  occ. eigenvalues --  -10.05343 -10.05301 -10.04962 -10.04701 -10.04183
 Alpha  occ. eigenvalues --  -10.02553 -10.02409 -10.02345 -10.00513  -9.99874
 Alpha  occ. eigenvalues --   -9.98937  -9.98102  -9.98046  -9.97829  -9.96475
 Alpha  occ. eigenvalues --   -9.95810  -9.95752  -9.95575  -9.95429  -9.95370
 Alpha  occ. eigenvalues --   -9.95322  -7.80283  -7.76782  -5.76594  -5.76222
 Alpha  occ. eigenvalues --   -5.75840  -5.73115  -5.72722  -5.72304  -0.91387
 Alpha  occ. eigenvalues --   -0.89434  -0.82967  -0.82294  -0.80516  -0.79793
 Alpha  occ. eigenvalues --   -0.72274  -0.71661  -0.70969  -0.69670  -0.66418
 Alpha  occ. eigenvalues --   -0.62183  -0.59889  -0.59167  -0.58580  -0.58068
 Alpha  occ. eigenvalues --   -0.55345  -0.54021  -0.53129  -0.52357  -0.52160
 Alpha  occ. eigenvalues --   -0.50329  -0.49602  -0.47410  -0.43668  -0.42850
 Alpha  occ. eigenvalues --   -0.42191  -0.41766  -0.40248  -0.39802  -0.38239
 Alpha  occ. eigenvalues --   -0.37223  -0.36823  -0.33897  -0.33600  -0.32322
 Alpha  occ. eigenvalues --   -0.31813  -0.31595  -0.30524  -0.30250  -0.29942
 Alpha  occ. eigenvalues --   -0.29425  -0.28468  -0.27137  -0.27051  -0.26461
 Alpha  occ. eigenvalues --   -0.26072  -0.25554  -0.25072  -0.24754  -0.24640
 Alpha  occ. eigenvalues --   -0.23637  -0.23016  -0.22325  -0.21970  -0.21539
 Alpha  occ. eigenvalues --   -0.21076  -0.20753  -0.20576  -0.20335  -0.20108
 Alpha  occ. eigenvalues --   -0.19395  -0.19055  -0.18871  -0.18577  -0.17888
 Alpha  occ. eigenvalues --   -0.17800  -0.17203  -0.16956  -0.16256  -0.15998
 Alpha  occ. eigenvalues --   -0.15646  -0.14839  -0.14598  -0.12143  -0.12075
 Alpha  occ. eigenvalues --   -0.11273  -0.09906  -0.09024  -0.06680  -0.06562
 Alpha  occ. eigenvalues --   -0.06186  -0.05918  -0.05540  -0.04979  -0.04426
 Alpha  occ. eigenvalues --   -0.04252  -0.03393  -0.01553  -0.00417   0.06849
 Alpha virt. eigenvalues --    0.11859   0.12676   0.13430   0.14366   0.15735
 Alpha virt. eigenvalues --    0.16066   0.16374   0.16905   0.16941   0.17249
 Alpha virt. eigenvalues --    0.17392   0.17810   0.18361   0.18508   0.19003

 Mulliken charges:
               1
     1  C    0.257129
     2  C   -0.176183
     3  C    0.080974
     4  C    0.283450
     5  C    0.154938
     6  C   -0.407205
     7  C    0.208012
     8  C    0.089826
     9  C    0.290574
    10  C   -0.366774
    11  C    0.190231
    12  C    0.263708
    13  C   -0.527348
    14  C   -0.627896
    15  H    0.102795
    16  H    0.105786
    17  H    0.121129
    18  N   -0.087034
    19  N   -0.134964
    20  O   -0.432933
    21  O   -0.416343
    22  O   -0.424923
    23  O   -0.345140
    24  C   -0.164764
    25  H    0.135256
    26  H    0.136326
    27  H    0.157559
    28  C   -0.181665
    29  H    0.134531
    30  H    0.131948
    31  H    0.157239
    32  C    0.009139
    33  C   -0.555994
    34  S   -0.265928
    35  C   -0.492244
    36  H    0.110331
    37  C    0.259479
    38  O   -0.118858
    39  C    0.403359
    40  C   -0.243592
    41  C    0.158957
    42  S   -0.338672
    43  H    0.132142
    44  H    0.138794
    45  H    0.141747
    46  C   -0.066656
    47  O   -0.157476
    48  C   -0.172758
    49  H    0.096081
    50  C   -0.315929
    51  H    0.121737
    52  H    0.102383
    53  H    0.141146
    54  H    0.204573
 Sum of Mulliken charges =  -2.00000

 Dipole moment (field-independent basis, Debye):
    X=            -16.4155    Y=             -2.5623    Z=             -2.2476  Tot=             16.7656
 Quadrupole moment (field-independent basis, Debye-Ang):
   XX=           -422.8819   YY=           -306.4703   ZZ=           -239.2659
   XY=             -5.4598   XZ=             -1.6375   YZ=             14.3950

 Normal termination of Gaussian 16 at Fri Oct  8 18:11:10 2021.
