 Gaussian 16, Revision C.01,
 Gaussian 16:  ES64L-G16RevC.01  3-Jul-2019

 -------------------------------------
 # opt=modredundant b3lyp/6-311+g(d,p)
 -------------------------------------

 ------------
 NDI_-160.pdb
 ------------
 Symbolic Z-matrix:
 Charge = -2 Multiplicity = 1

 SCF Done:  E(RB3LYP) =  -2359.34665032     A.U. after   23 cycles
 SCF Done:  E(RB3LYP) =  -2359.37374989     A.U. after   20 cycles
 SCF Done:  E(RB3LYP) =  -2359.38795114     A.U. after   16 cycles
 SCF Done:  E(RB3LYP) =  -2359.39078405     A.U. after   15 cycles
 SCF Done:  E(RB3LYP) =  -2359.39179744     A.U. after   16 cycles
 SCF Done:  E(RB3LYP) =  -2359.39226620     A.U. after   16 cycles
 SCF Done:  E(RB3LYP) =  -2359.39225201     A.U. after   17 cycles
 SCF Done:  E(RB3LYP) =  -2359.39297665     A.U. after   14 cycles
 SCF Done:  E(RB3LYP) =  -2359.39347005     A.U. after   17 cycles
 SCF Done:  E(RB3LYP) =  -2359.39349048     A.U. after   17 cycles
 SCF Done:  E(RB3LYP) =  -2359.39858472     A.U. after   11 cycles
 SCF Done:  E(RB3LYP) =  -2359.39858515     A.U. after   11 cycles
 SCF Done:  E(RB3LYP) =  -2359.39858540     A.U. after   11 cycles
 SCF Done:  E(RB3LYP) =  -2359.39858569     A.U. after   10 cycles
 SCF Done:  E(RB3LYP) =  -2359.39858613     A.U. after   10 cycles
 SCF Done:  E(RB3LYP) =  -2359.39858648     A.U. after   11 cycles
 SCF Done:  E(RB3LYP) =  -2359.39858697     A.U. after   11 cycles
 SCF Done:  E(RB3LYP) =  -2359.39858728     A.U. after   12 cycles
 SCF Done:  E(RB3LYP) =  -2359.39858738     A.U. after   11 cycles
 SCF Done:  E(RB3LYP) =  -2359.39858738     A.U. after    9 cycles
 Optimization completed.
    -- Stationary point found.

                         Standard orientation:
 ---------------------------------------------------------------------
 Center     Atomic      Atomic             Coordinates (Angstroms)
 Number     Number       Type             X           Y           Z
 ---------------------------------------------------------------------
      1          6           0       -3.510149   -2.690616    0.097234
      2          6           0       -2.780440   -1.458970   -0.059817
      3          6           0       -3.433867   -0.205164    0.109758
      4          6           0       -4.805750   -0.136769    0.430472
      5          6           0       -5.577785   -1.348102    0.598459
      6          6           0       -1.394088   -1.499481   -0.304676
      7          6           0       -2.664537    1.004751   -0.071284
      8          6           0       -1.275452    0.937601   -0.407487
      9          6           0       -0.610293   -0.365715   -0.453537
     10          6           0       -0.622940    2.139654   -0.842472
     11          6           0       -2.656862    3.481445   -0.200358
     12          6           0       -3.348869    2.242451    0.049615
     13          6           0       -4.734831    2.280506    0.385830
     14          6           0       -5.447020    1.131204    0.577159
     15          1           0       -6.500885    1.144037    0.826620
     16          1           0       -5.197109    3.256883    0.471700
     17          1           0       -0.935658   -2.479153   -0.282194
     18          7           0       -1.335146    3.357763   -0.639185
     19          7           0       -4.879004   -2.562326    0.416315
     20          8           0       -3.034315   -3.836609   -0.026378
     21          8           0       -6.790603   -1.372996    0.883388
     22          8           0       -3.157426    4.620016   -0.083624
     23          8           0        0.497494    2.200901   -1.390169
     24          6           0       -0.656795    4.603090   -0.979541
     25          1           0        0.377685    4.361953   -1.209230
     26          1           0       -1.130376    5.077315   -1.845666
     27          1           0       -0.732098    5.301146   -0.143299
     28          6           0       -5.617219   -3.810461    0.571724
     29          1           0       -5.555950   -4.400851   -0.346202
     30          1           0       -5.181192   -4.410648    1.374936
     31          1           0       -6.648850   -3.554282    0.799504
     32          6           0        0.828285   -0.598206   -0.458758
     33          6           0        1.471535   -1.761699   -0.885608
     34         16           0        1.989594    0.453610    0.326261
     35          6           0        2.841462   -1.797770   -0.588329
     36          1           0        0.945238   -2.540650   -1.415988
     37          6           0        3.331185   -0.674515    0.077820
     38          8           0        3.710147   -2.810658   -0.926473
     39          6           0        4.683478   -0.368207    0.429816
     40          6           0        3.166126   -3.934318   -1.591693
     41          6           0        5.220984    0.803583    0.963759
     42         16           0        5.997458   -1.549996    0.258690
     43          1           0        3.996369   -4.624296   -1.751419
     44          1           0        2.394990   -4.424860   -0.986402
     45          1           0        2.732816   -3.656643   -2.560079
     46          6           0        6.613505    0.752032    1.235709
     47          8           0        4.464546    1.916250    1.271258
     48          6           0        7.182907   -0.446881    0.913249
     49          1           0        7.149494    1.590308    1.664796
     50          6           0        4.351958    2.878777    0.216938
     51          1           0        8.212111   -0.756580    1.010556
     52          1           0        3.849327    2.453894   -0.655682
     53          1           0        3.741756    3.693708    0.607857
     54          1           0        5.342639    3.258295   -0.066828
 ---------------------------------------------------------------------

 The electronic state is 1-A.
 Alpha  occ. eigenvalues --  -88.71094 -88.67729 -18.99628 -18.97901 -18.87956
 Alpha  occ. eigenvalues --  -18.87596 -18.86742 -18.86245 -14.15591 -14.14539
 Alpha  occ. eigenvalues --  -10.07789 -10.06400 -10.05999 -10.05711 -10.05702
 Alpha  occ. eigenvalues --  -10.05569 -10.05080 -10.05007 -10.04779 -10.03489
 Alpha  occ. eigenvalues --  -10.02062 -10.02031 -10.01700 -10.01000  -9.99994
 Alpha  occ. eigenvalues --   -9.98433  -9.98411  -9.98372  -9.98168  -9.96972
 Alpha  occ. eigenvalues --   -9.96373  -9.96074  -9.95943  -9.95891  -9.95749
 Alpha  occ. eigenvalues --   -9.95735  -7.79647  -7.76273  -5.75962  -5.75590
 Alpha  occ. eigenvalues --   -5.75198  -5.72608  -5.72209  -5.71797  -0.90917
 Alpha  occ. eigenvalues --   -0.89057  -0.83674  -0.82561  -0.81263  -0.80073
 Alpha  occ. eigenvalues --   -0.72293  -0.71627  -0.71195  -0.69153  -0.66762
 Alpha  occ. eigenvalues --   -0.62285  -0.59897  -0.59296  -0.58144  -0.57577
 Alpha  occ. eigenvalues --   -0.55416  -0.53681  -0.53485  -0.52606  -0.51949
 Alpha  occ. eigenvalues --   -0.50263  -0.49749  -0.47633  -0.43782  -0.42730
 Alpha  occ. eigenvalues --   -0.42388  -0.41785  -0.40464  -0.39666  -0.37864
 Alpha  occ. eigenvalues --   -0.37242  -0.36366  -0.34277  -0.33865  -0.31991
 Alpha  occ. eigenvalues --   -0.31912  -0.31464  -0.30320  -0.29977  -0.29733
 Alpha  occ. eigenvalues --   -0.29130  -0.28123  -0.27594  -0.27321  -0.26671
 Alpha  occ. eigenvalues --   -0.26221  -0.25429  -0.25261  -0.24992  -0.24504
 Alpha  occ. eigenvalues --   -0.23458  -0.23079  -0.22572  -0.22011  -0.21427
 Alpha  occ. eigenvalues --   -0.21276  -0.20897  -0.20807  -0.20446  -0.19841
 Alpha  occ. eigenvalues --   -0.19563  -0.19260  -0.18756  -0.18520  -0.18255
 Alpha  occ. eigenvalues --   -0.17908  -0.17723  -0.16720  -0.16503  -0.16213
 Alpha  occ. eigenvalues --   -0.15321  -0.14831  -0.14537  -0.12535  -0.11743
 Alpha  occ. eigenvalues --   -0.11556  -0.09693  -0.08617  -0.07182  -0.06982
 Alpha  occ. eigenvalues --   -0.06557  -0.06118  -0.05775  -0.05113  -0.04854
 Alpha  occ. eigenvalues --   -0.04620  -0.03357  -0.01739   0.00019   0.06474
 Alpha virt. eigenvalues --    0.12185   0.12950   0.13769   0.14582   0.15756
 Alpha virt. eigenvalues --    0.15925   0.16600   0.16640   0.16858   0.17421
 Alpha virt. eigenvalues --    0.17545   0.18056   0.18657   0.18929   0.19005

 Mulliken charges:
               1
     1  C    0.233557
     2  C   -0.138109
     3  C    0.096912
     4  C    0.268128
     5  C    0.087148
     6  C    0.039389
     7  C    0.120194
     8  C    0.264671
     9  C    0.312743
    10  C   -0.629607
    11  C    0.158748
    12  C    0.080919
    13  C   -0.439194
    14  C   -0.574026
    15  H    0.103517
    16  H    0.107255
    17  H    0.124045
    18  N   -0.029780
    19  N   -0.135718
    20  O   -0.430623
    21  O   -0.406788
    22  O   -0.430717
    23  O   -0.343698
    24  C   -0.159055
    25  H    0.159662
    26  H    0.122678
    27  H    0.139038
    28  C   -0.180725
    29  H    0.134162
    30  H    0.135450
    31  H    0.157103
    32  C    0.091356
    33  C   -0.772531
    34  S   -0.719819
    35  C   -0.444747
    36  H    0.114666
    37  C    0.645867
    38  O   -0.131565
    39  C    0.406293
    40  C   -0.226978
    41  C    0.103251
    42  S   -0.362272
    43  H    0.132147
    44  H    0.143805
    45  H    0.133484
    46  C   -0.064891
    47  O   -0.142967
    48  C   -0.205106
    49  H    0.093167
    50  C   -0.295686
    51  H    0.118833
    52  H    0.191103
    53  H    0.144616
    54  H    0.100695
 Sum of Mulliken charges =  -2.00000

 Dipole moment (field-independent basis, Debye):
    X=             14.4532    Y=             -3.2563    Z=             -1.7263  Tot=             14.9157
 Quadrupole moment (field-independent basis, Debye-Ang):
   XX=           -420.3772   YY=           -303.9729   ZZ=           -242.3001
   XY=              6.2149   XZ=              4.0797   YZ=              6.9517

 Normal termination of Gaussian 16 at Tue Oct  5 20:54:28 2021.
