 Gaussian 16, Revision C.01,
 Gaussian 16:  ES64L-G16RevC.01  3-Jul-2019

 -------------------------------------
 # opt=modredundant b3lyp/6-311+g(d,p)
 -------------------------------------

 -----------
 NDI_-30.pdb
 -----------
 Symbolic Z-matrix:
 Charge = -2 Multiplicity = 1

 SCF Done:  E(RB3LYP) =  -2359.38044344     A.U. after   24 cycles
 SCF Done:  E(RB3LYP) =  -2359.39366599     A.U. after   18 cycles
 SCF Done:  E(RB3LYP) =  -2359.39430042     A.U. after   17 cycles
 SCF Done:  E(RB3LYP) =  -2359.39722827     A.U. after   17 cycles
 SCF Done:  E(RB3LYP) =  -2359.39784850     A.U. after   15 cycles
 SCF Done:  E(RB3LYP) =  -2359.39797353     A.U. after   13 cycles
 SCF Done:  E(RB3LYP) =  -2359.39806455     A.U. after   14 cycles
 SCF Done:  E(RB3LYP) =  -2359.39808989     A.U. after   14 cycles
 SCF Done:  E(RB3LYP) =  -2359.39809864     A.U. after   12 cycles
 SCF Done:  E(RB3LYP) =  -2359.39810891     A.U. after   13 cycles
 SCF Done:  E(RB3LYP) =  -2359.40149487     A.U. after   12 cycles
 SCF Done:  E(RB3LYP) =  -2359.40142853     A.U. after   12 cycles
 SCF Done:  E(RB3LYP) =  -2359.40143475     A.U. after   12 cycles
 SCF Done:  E(RB3LYP) =  -2359.40143852     A.U. after   12 cycles
 SCF Done:  E(RB3LYP) =  -2359.40144141     A.U. after   11 cycles
 SCF Done:  E(RB3LYP) =  -2359.40144327     A.U. after   12 cycles
 SCF Done:  E(RB3LYP) =  -2359.40144505     A.U. after   12 cycles
 SCF Done:  E(RB3LYP) =  -2359.40144540     A.U. after   11 cycles
 SCF Done:  E(RB3LYP) =  -2359.40144578     A.U. after   10 cycles
 SCF Done:  E(RB3LYP) =  -2359.40144600     A.U. after   10 cycles
 Optimization completed.
    -- Stationary point found.

                         Standard orientation:
 ---------------------------------------------------------------------
 Center     Atomic      Atomic             Coordinates (Angstroms)
 Number     Number       Type             X           Y           Z
 ---------------------------------------------------------------------
      1          6           0        2.634413   -2.983006    0.111000
      2          6           0        2.298639   -1.586803   -0.011261
      3          6           0        3.314947   -0.590857    0.046199
      4          6           0        4.670128   -0.946353    0.212489
      5          6           0        5.054057   -2.335364    0.330584
      6          6           0        0.947186   -1.204997   -0.109755
      7          6           0        2.932697    0.799035   -0.078210
      8          6           0        1.558272    1.162412   -0.248298
      9          6           0        0.532022    0.114674   -0.190850
     10          6           0        1.258402    2.527671   -0.583655
     11          6           0        3.676268    3.165058   -0.240365
     12          6           0        3.971735    1.768042   -0.058407
     13          6           0        5.333388    1.376635    0.120807
     14          6           0        5.679133    0.063945    0.256760
     15          1           0        6.707832   -0.248498    0.387749
     16          1           0        6.076227    2.165282    0.134477
     17          1           0        0.216695   -2.000635   -0.032777
     18          7           0        2.331615    3.457826   -0.509633
     19          7           0        4.005867   -3.278845    0.264471
     20          8           0        1.822570   -3.927738    0.091563
     21          8           0        6.227210   -2.728006    0.481816
     22          8           0        4.524108    4.082793   -0.195145
     23          8           0        0.151867    2.983932   -0.942559
     24          6           0        1.982529    4.843159   -0.803817
     25          1           0        1.592613    4.929128   -1.821578
     26          1           0        1.196184    5.186624   -0.126633
     27          1           0        2.885074    5.437422   -0.684005
     28          6           0        4.344511   -4.692979    0.376336
     29          1           0        3.880158   -5.126672    1.266723
     30          1           0        3.961216   -5.238462   -0.489271
     31          1           0        5.427415   -4.766630    0.436987
     32          6           0       -0.892879    0.360827   -0.046104
     33          6           0       -1.552252    1.399263    0.591966
     34         16           0       -2.075798   -0.801478   -0.657269
     35          6           0       -2.947099    1.245891    0.632303
     36          1           0       -1.020182    2.245146    0.991224
     37          6           0       -3.445280    0.092183    0.028666
     38          8           0       -3.824218    2.122859    1.221385
     39          6           0       -4.799715   -0.350689   -0.069845
     40          6           0       -3.294389    3.364280    1.660372
     41          6           0       -5.308011   -1.551475   -0.566284
     42         16           0       -6.168443    0.660776    0.435041
     43          1           0       -4.149825    3.959719    1.983702
     44          1           0       -2.607513    3.228546    2.503983
     45          1           0       -2.765419    3.877709    0.851248
     46          6           0       -6.723725   -1.651535   -0.558129
     47          8           0       -4.508121   -2.555262   -1.078559
     48          6           0       -7.338467   -0.543203   -0.048416
     49          1           0       -7.244987   -2.525533   -0.930308
     50          6           0       -4.113006   -3.543765   -0.125276
     51          1           0       -8.392785   -0.352508    0.080485
     52          1           0       -4.987254   -4.086901    0.257942
     53          1           0       -3.449858   -4.234181   -0.647919
     54          1           0       -3.568445   -3.092087    0.708873
 ---------------------------------------------------------------------

 The electronic state is 1-A.
 Alpha  occ. eigenvalues --  -88.71304 -88.68136 -18.99457 -18.98455 -18.87882
 Alpha  occ. eigenvalues --  -18.87477 -18.86819 -18.86190 -14.15510 -14.14678
 Alpha  occ. eigenvalues --  -10.07204 -10.06564 -10.06325 -10.05919 -10.05861
 Alpha  occ. eigenvalues --  -10.05850 -10.05289 -10.05049 -10.05012 -10.03707
 Alpha  occ. eigenvalues --  -10.02311 -10.02006 -10.02002 -10.00909 -10.00167
 Alpha  occ. eigenvalues --   -9.98510  -9.98424  -9.98235  -9.97954  -9.96912
 Alpha  occ. eigenvalues --   -9.96318  -9.96169  -9.96056  -9.95848  -9.95770
 Alpha  occ. eigenvalues --   -9.95711  -7.79853  -7.76705  -5.76168  -5.75796
 Alpha  occ. eigenvalues --   -5.75403  -5.73042  -5.72660  -5.72214  -0.90734
 Alpha  occ. eigenvalues --   -0.89639  -0.83612  -0.82624  -0.81196  -0.80097
 Alpha  occ. eigenvalues --   -0.72225  -0.71874  -0.71235  -0.69233  -0.66748
 Alpha  occ. eigenvalues --   -0.62284  -0.59962  -0.59338  -0.58423  -0.57619
 Alpha  occ. eigenvalues --   -0.55260  -0.54185  -0.53220  -0.52706  -0.52247
 Alpha  occ. eigenvalues --   -0.50286  -0.49829  -0.47576  -0.44073  -0.42737
 Alpha  occ. eigenvalues --   -0.42417  -0.41892  -0.40521  -0.39700  -0.38155
 Alpha  occ. eigenvalues --   -0.37168  -0.36418  -0.34238  -0.33880  -0.31839
 Alpha  occ. eigenvalues --   -0.31467  -0.31366  -0.30841  -0.30635  -0.30018
 Alpha  occ. eigenvalues --   -0.29111  -0.28541  -0.27516  -0.27151  -0.26729
 Alpha  occ. eigenvalues --   -0.26334  -0.25520  -0.25304  -0.25027  -0.24410
 Alpha  occ. eigenvalues --   -0.23366  -0.23220  -0.22437  -0.22279  -0.21590
 Alpha  occ. eigenvalues --   -0.21255  -0.20957  -0.20701  -0.20376  -0.19855
 Alpha  occ. eigenvalues --   -0.19572  -0.19319  -0.19151  -0.18662  -0.18407
 Alpha  occ. eigenvalues --   -0.18008  -0.17703  -0.16832  -0.16350  -0.15989
 Alpha  occ. eigenvalues --   -0.15403  -0.15039  -0.14880  -0.12737  -0.11926
 Alpha  occ. eigenvalues --   -0.11702  -0.09852  -0.08861  -0.07121  -0.06992
 Alpha  occ. eigenvalues --   -0.06456  -0.06252  -0.05655  -0.05412  -0.04806
 Alpha  occ. eigenvalues --   -0.04730  -0.03476  -0.01769  -0.00094   0.06447
 Alpha virt. eigenvalues --    0.11946   0.12828   0.13942   0.14465   0.15696
 Alpha virt. eigenvalues --    0.15814   0.16594   0.16719   0.16831   0.17182
 Alpha virt. eigenvalues --    0.17416   0.17993   0.18536   0.18822   0.19025

 Mulliken charges:
               1
     1  C    0.190146
     2  C   -0.096254
     3  C    0.133042
     4  C    0.245531
     5  C    0.090711
     6  C   -0.115757
     7  C    0.265779
     8  C    0.404212
     9  C    0.266753
    10  C   -0.710125
    11  C    0.094120
    12  C    0.208722
    13  C   -0.455658
    14  C   -0.603241
    15  H    0.103286
    16  H    0.107241
    17  H    0.142556
    18  N   -0.081988
    19  N   -0.135237
    20  O   -0.425325
    21  O   -0.406675
    22  O   -0.418360
    23  O   -0.360157
    24  C   -0.167233
    25  H    0.137708
    26  H    0.129051
    27  H    0.155711
    28  C   -0.181017
    29  H    0.133405
    30  H    0.137099
    31  H    0.156225
    32  C   -0.071891
    33  C   -0.478260
    34  S   -0.762449
    35  C   -0.479614
    36  H    0.132415
    37  C    0.502915
    38  O   -0.125540
    39  C    0.514643
    40  C   -0.257505
    41  C    0.168182
    42  S   -0.386356
    43  H    0.128654
    44  H    0.130562
    45  H    0.168920
    46  C   -0.148793
    47  O   -0.137814
    48  C   -0.179713
    49  H    0.093520
    50  C   -0.300769
    51  H    0.119437
    52  H    0.105548
    53  H    0.151036
    54  H    0.168594
 Sum of Mulliken charges =  -2.00000

 Dipole moment (field-independent basis, Debye):
    X=            -14.8697    Y=             -0.0675    Z=              2.4554  Tot=             15.0712
 Quadrupole moment (field-independent basis, Debye-Ang):
   XX=           -426.3771   YY=           -306.9373   ZZ=           -238.9462
   XY=             -3.5349   XZ=            -10.6806   YZ=              8.4107

 Normal termination of Gaussian 16 at Fri Oct  8 07:06:16 2021.
