 Gaussian 16, Revision C.01,
 Gaussian 16:  ES64L-G16RevC.01  3-Jul-2019

 -------------------------------------
 # opt=modredundant b3lyp/6-311+g(d,p)
 -------------------------------------

 ----------
 NDI_55.pdb
 ----------
 Symbolic Z-matrix:
 Charge = -2 Multiplicity = 1

 SCF Done:  E(RB3LYP) =  -2359.37483772     A.U. after   23 cycles
 SCF Done:  E(RB3LYP) =  -2359.39168886     A.U. after   17 cycles
 SCF Done:  E(RB3LYP) =  -2359.39511054     A.U. after   17 cycles
 SCF Done:  E(RB3LYP) =  -2359.39535607     A.U. after   15 cycles
 SCF Done:  E(RB3LYP) =  -2359.39575572     A.U. after   14 cycles
 SCF Done:  E(RB3LYP) =  -2359.39596923     A.U. after   14 cycles
 SCF Done:  E(RB3LYP) =  -2359.39607857     A.U. after   14 cycles
 SCF Done:  E(RB3LYP) =  -2359.39613190     A.U. after   13 cycles
 SCF Done:  E(RB3LYP) =  -2359.39617148     A.U. after   14 cycles
 SCF Done:  E(RB3LYP) =  -2359.39619465     A.U. after   13 cycles
 SCF Done:  E(RB3LYP) =  -2359.39955055     A.U. after   12 cycles
 SCF Done:  E(RB3LYP) =  -2359.39955105     A.U. after   11 cycles
 SCF Done:  E(RB3LYP) =  -2359.39955128     A.U. after   11 cycles
 SCF Done:  E(RB3LYP) =  -2359.39955136     A.U. after   10 cycles
 SCF Done:  E(RB3LYP) =  -2359.39955141     A.U. after   11 cycles
 SCF Done:  E(RB3LYP) =  -2359.39955142     A.U. after   10 cycles
 SCF Done:  E(RB3LYP) =  -2359.39955144     A.U. after   10 cycles
 SCF Done:  E(RB3LYP) =  -2359.39955146     A.U. after    9 cycles
 SCF Done:  E(RB3LYP) =  -2359.39955149     A.U. after   10 cycles
 SCF Done:  E(RB3LYP) =  -2359.39955149     A.U. after   10 cycles
 Optimization completed.
    -- Stationary point found.

                         Standard orientation:
 ---------------------------------------------------------------------
 Center     Atomic      Atomic             Coordinates (Angstroms)
 Number     Number       Type             X           Y           Z
 ---------------------------------------------------------------------
      1          6           0       -2.645312   -2.933943    0.399966
      2          6           0       -2.302247   -1.550843    0.196715
      3          6           0       -3.320948   -0.567117    0.059382
      4          6           0       -4.687305   -0.923647    0.103149
      5          6           0       -5.078074   -2.299757    0.296641
      6          6           0       -0.942909   -1.167370    0.166925
      7          6           0       -2.934771    0.814261   -0.132856
      8          6           0       -1.552064    1.179736   -0.169023
      9          6           0       -0.538567    0.147980    0.036927
     10          6           0       -1.208814    2.546668   -0.450084
     11          6           0       -3.655909    3.157985   -0.531956
     12          6           0       -3.969202    1.773325   -0.299750
     13          6           0       -5.342696    1.379518   -0.250287
     14          6           0       -5.696267    0.077424   -0.051552
     15          1           0       -6.732514   -0.235682   -0.013129
     16          1           0       -6.085449    2.157408   -0.381247
     17          1           0       -0.209818   -1.948020    0.325216
     18          7           0       -2.285586    3.457113   -0.610458
     19          7           0       -4.024604   -3.231424    0.431769
     20          8           0       -1.832732   -3.869085    0.545036
     21          8           0       -6.260322   -2.695235    0.349490
     22          8           0       -4.504602    4.065883   -0.671443
     23          8           0       -0.055544    3.011089   -0.574890
     24          6           0       -1.903994    4.836436   -0.891877
     25          1           0       -1.309725    5.243522   -0.068641
     26          1           0       -1.283259    4.878447   -1.790070
     27          1           0       -2.820611    5.406659   -1.021172
     28          6           0       -4.369055   -4.634321    0.630526
     29          1           0       -3.918569   -5.246837   -0.154720
     30          1           0       -3.974979   -4.989922    1.586716
     31          1           0       -5.453321   -4.710826    0.609431
     32          6           0        0.897620    0.407491    0.133739
     33          6           0        1.588958    1.257562    0.976596
     34         16           0        2.027463   -0.623966   -0.729617
     35          6           0        2.982695    1.082375    0.936977
     36          1           0        1.078093    1.995137    1.574012
     37          6           0        3.436011    0.079105    0.081305
     38          8           0        3.895941    1.790913    1.679939
     39          6           0        4.779666   -0.346989   -0.162604
     40          6           0        3.414987    2.935839    2.365481
     41          6           0        5.242701   -1.430138   -0.907613
     42         16           0        6.185358    0.534766    0.464178
     43          1           0        4.293585    3.427864    2.786034
     44          1           0        2.896476    3.617328    1.683277
     45          1           0        2.733005    2.657892    3.177818
     46          6           0        6.655844   -1.540689   -0.988781
     47          8           0        4.402176   -2.307093   -1.565223
     48          6           0        7.310885   -0.557766   -0.302990
     49          1           0        7.144786   -2.328587   -1.549149
     50          6           0        4.025491   -3.454194   -0.799682
     51          1           0        8.373069   -0.404075   -0.190036
     52          1           0        3.527562   -3.163137    0.129548
     53          1           0        3.325411   -4.022534   -1.413059
     54          1           0        4.902762   -4.072627   -0.567917
 ---------------------------------------------------------------------

 The electronic state is 1-A.
 Alpha  occ. eigenvalues --  -88.71612 -88.68553 -18.99721 -18.98713 -18.87391
 Alpha  occ. eigenvalues --  -18.87058 -18.86606 -18.86091 -14.15142 -14.14541
 Alpha  occ. eigenvalues --  -10.07567 -10.06772 -10.06182 -10.06108 -10.05847
 Alpha  occ. eigenvalues --  -10.05485 -10.05325 -10.05079 -10.04877 -10.04039
 Alpha  occ. eigenvalues --  -10.02584 -10.02300 -10.02270 -10.00595 -10.00003
 Alpha  occ. eigenvalues --   -9.98436  -9.98284  -9.98173  -9.98130  -9.96564
 Alpha  occ. eigenvalues --   -9.96069  -9.95899  -9.95708  -9.95553  -9.95509
 Alpha  occ. eigenvalues --   -9.95443  -7.80163  -7.77117  -5.76477  -5.76105
 Alpha  occ. eigenvalues --   -5.75716  -5.73448  -5.73058  -5.72648  -0.91000
 Alpha  occ. eigenvalues --   -0.89912  -0.83131  -0.82441  -0.80689  -0.79917
 Alpha  occ. eigenvalues --   -0.72204  -0.71803  -0.71083  -0.69594  -0.66527
 Alpha  occ. eigenvalues --   -0.62193  -0.59931  -0.59253  -0.58704  -0.57894
 Alpha  occ. eigenvalues --   -0.55220  -0.54303  -0.53066  -0.52670  -0.52312
 Alpha  occ. eigenvalues --   -0.50308  -0.49715  -0.47421  -0.43949  -0.42749
 Alpha  occ. eigenvalues --   -0.42305  -0.41830  -0.40368  -0.39780  -0.38430
 Alpha  occ. eigenvalues --   -0.37194  -0.36689  -0.34016  -0.33684  -0.31808
 Alpha  occ. eigenvalues --   -0.31757  -0.31416  -0.30994  -0.30868  -0.30120
 Alpha  occ. eigenvalues --   -0.29346  -0.28737  -0.27165  -0.27030  -0.26572
 Alpha  occ. eigenvalues --   -0.26293  -0.25634  -0.25158  -0.24772  -0.24610
 Alpha  occ. eigenvalues --   -0.23498  -0.23118  -0.22309  -0.22265  -0.21597
 Alpha  occ. eigenvalues --   -0.20995  -0.20805  -0.20622  -0.20372  -0.20106
 Alpha  occ. eigenvalues --   -0.19473  -0.19178  -0.19013  -0.18736  -0.18058
 Alpha  occ. eigenvalues --   -0.17919  -0.17352  -0.16943  -0.16332  -0.16006
 Alpha  occ. eigenvalues --   -0.15385  -0.14971  -0.14853  -0.12565  -0.12113
 Alpha  occ. eigenvalues --   -0.11398  -0.10016  -0.09104  -0.06836  -0.06701
 Alpha  occ. eigenvalues --   -0.06239  -0.06116  -0.05424  -0.05414  -0.04529
 Alpha  occ. eigenvalues --   -0.04383  -0.03476  -0.01553  -0.00378   0.06734
 Alpha virt. eigenvalues --    0.11855   0.12669   0.13717   0.14255   0.15640
 Alpha virt. eigenvalues --    0.15981   0.16570   0.16826   0.16955   0.17042
 Alpha virt. eigenvalues --    0.17240   0.17837   0.18386   0.18547   0.18845

 Mulliken charges:
               1
     1  C    0.264419
     2  C   -0.104487
     3  C    0.054867
     4  C    0.223073
     5  C    0.121823
     6  C   -0.657019
     7  C    0.214253
     8  C    0.147908
     9  C    0.523984
    10  C   -0.350769
    11  C    0.273575
    12  C    0.133315
    13  C   -0.544298
    14  C   -0.624394
    15  H    0.102780
    16  H    0.106369
    17  H    0.145520
    18  N   -0.139999
    19  N   -0.136809
    20  O   -0.428383
    21  O   -0.412245
    22  O   -0.422382
    23  O   -0.327742
    24  C   -0.181510
    25  H    0.129826
    26  H    0.139765
    27  H    0.158061
    28  C   -0.179658
    29  H    0.134921
    30  H    0.133011
    31  H    0.157408
    32  C    0.009411
    33  C   -0.285221
    34  S   -0.528505
    35  C   -0.581487
    36  H    0.119663
    37  C    0.424228
    38  O   -0.123788
    39  C    0.500673
    40  C   -0.264933
    41  C    0.109182
    42  S   -0.355733
    43  H    0.129351
    44  H    0.166012
    45  H    0.129131
    46  C   -0.115303
    47  O   -0.135130
    48  C   -0.186803
    49  H    0.094487
    50  C   -0.309162
    51  H    0.120818
    52  H    0.170607
    53  H    0.151130
    54  H    0.106193
 Sum of Mulliken charges =  -2.00000

 Dipole moment (field-independent basis, Debye):
    X=             16.0917    Y=             -0.2963    Z=              2.5845  Tot=             16.3006
 Quadrupole moment (field-independent basis, Debye-Ang):
   XX=           -426.3489   YY=           -307.8604   ZZ=           -237.7589
   XY=              1.0640   XZ=              5.1032   YZ=             15.5664

 Normal termination of Gaussian 16 at Fri Oct  8 11:20:58 2021.
