 Gaussian 16, Revision C.01,
 Gaussian 16:  ES64L-G16RevC.01  3-Jul-2019

 -------------------------------------
 # opt=modredundant b3lyp/6-311+g(d,p)
 -------------------------------------

 ----------
 NDI_45.pdb
 ----------
 Symbolic Z-matrix:
 Charge = -2 Multiplicity = 1

 SCF Done:  E(RB3LYP) =  -2359.37613047     A.U. after   23 cycles
 SCF Done:  E(RB3LYP) =  -2359.39124883     A.U. after   16 cycles
 SCF Done:  E(RB3LYP) =  -2359.39436482     A.U. after   17 cycles
 SCF Done:  E(RB3LYP) =  -2359.39635469     A.U. after   15 cycles
 SCF Done:  E(RB3LYP) =  -2359.39681564     A.U. after   15 cycles
 SCF Done:  E(RB3LYP) =  -2359.39700788     A.U. after   17 cycles
 SCF Done:  E(RB3LYP) =  -2359.39726802     A.U. after   14 cycles
 SCF Done:  E(RB3LYP) =  -2359.39735590     A.U. after   14 cycles
 SCF Done:  E(RB3LYP) =  -2359.39739501     A.U. after   14 cycles
 SCF Done:  E(RB3LYP) =  -2359.39740962     A.U. after   11 cycles
 SCF Done:  E(RB3LYP) =  -2359.40081149     A.U. after   12 cycles
 SCF Done:  E(RB3LYP) =  -2359.40082142     A.U. after   13 cycles
 SCF Done:  E(RB3LYP) =  -2359.40082810     A.U. after   13 cycles
 SCF Done:  E(RB3LYP) =  -2359.40082882     A.U. after   11 cycles
 SCF Done:  E(RB3LYP) =  -2359.40082966     A.U. after   10 cycles
 SCF Done:  E(RB3LYP) =  -2359.40083024     A.U. after   11 cycles
 SCF Done:  E(RB3LYP) =  -2359.40083093     A.U. after   11 cycles
 SCF Done:  E(RB3LYP) =  -2359.40083151     A.U. after   11 cycles
 SCF Done:  E(RB3LYP) =  -2359.40083164     A.U. after   11 cycles
 SCF Done:  E(RB3LYP) =  -2359.40083167     A.U. after   10 cycles
 Optimization completed.
    -- Stationary point found.

                         Standard orientation:
 ---------------------------------------------------------------------
 Center     Atomic      Atomic             Coordinates (Angstroms)
 Number     Number       Type             X           Y           Z
 ---------------------------------------------------------------------
      1          6           0       -2.638775   -2.958053    0.287399
      2          6           0       -2.299784   -1.569308    0.112657
      3          6           0       -3.319895   -0.578458    0.053484
      4          6           0       -4.683316   -0.933027    0.149407
      5          6           0       -5.070335   -2.314818    0.315709
      6          6           0       -0.943187   -1.187387    0.052018
      7          6           0       -2.936197    0.806770   -0.114182
      8          6           0       -1.554787    1.169836   -0.207130
      9          6           0       -0.535421    0.130008   -0.061271
     10          6           0       -1.226343    2.535251   -0.513904
     11          6           0       -3.669781    3.161120   -0.420232
     12          6           0       -3.975049    1.771369   -0.205625
     13          6           0       -5.345527    1.380238   -0.101266
     14          6           0       -5.695054    0.073618    0.074726
     15          1           0       -6.729450   -0.238085    0.152504
     16          1           0       -6.090209    2.163873   -0.174038
     17          1           0       -0.209958   -1.973572    0.179540
     18          7           0       -2.306556    3.455547   -0.578441
     19          7           0       -4.016383   -3.253349    0.370806
     20          8           0       -1.824418   -3.898603    0.367477
     21          8           0       -6.250242   -2.707660    0.410151
     22          8           0       -4.521435    4.074393   -0.485166
     23          8           0       -0.086268    2.994610   -0.737890
     24          6           0       -1.936959    4.836498   -0.868074
     25          1           0       -1.255612    5.216066   -0.101597
     26          1           0       -1.411276    4.894010   -1.824548
     27          1           0       -2.854289    5.419592   -0.891643
     28          6           0       -4.357163   -4.661275    0.538681
     29          1           0       -3.937503   -5.249228   -0.281454
     30          1           0       -3.929276   -5.047358    1.468185
     31          1           0       -5.441622   -4.735528    0.555951
     32          6           0        0.895501    0.386180    0.052468
     33          6           0        1.568307    1.321091    0.819427
     34         16           0        2.051846   -0.700216   -0.710274
     35          6           0        2.963046    1.156236    0.816591
     36          1           0        1.044164    2.106165    1.338506
     37          6           0        3.440240    0.086037    0.060541
     38          8           0        3.857566    1.939466    1.504663
     39          6           0        4.790491   -0.346507   -0.122216
     40          6           0        3.351361    3.128418    2.090471
     41          6           0        5.277516   -1.482643   -0.767625
     42         16           0        6.177205    0.595980    0.458646
     43          1           0        4.217913    3.667513    2.476923
     44          1           0        2.828448    3.743013    1.350683
     45          1           0        2.665839    2.905694    2.916672
     46          6           0        6.692579   -1.586581   -0.810750
     47          8           0        4.458022   -2.418612   -1.368720
     48          6           0        7.326609   -0.545715   -0.193977
     49          1           0        7.198623   -2.413091   -1.295288
     50          6           0        4.074008   -3.502683   -0.519853
     51          1           0        8.385078   -0.373847   -0.072767
     52          1           0        3.550754   -3.141309    0.369972
     53          1           0        3.394455   -4.127989   -1.100086
     54          1           0        4.951368   -4.089571   -0.216982
 ---------------------------------------------------------------------

 The electronic state is 1-A.
 Alpha  occ. eigenvalues --  -88.71467 -88.68381 -18.99599 -18.98592 -18.87601
 Alpha  occ. eigenvalues --  -18.87236 -18.86707 -18.86129 -14.15300 -14.14605
 Alpha  occ. eigenvalues --  -10.07408 -10.06668 -10.06053 -10.06024 -10.05995
 Alpha  occ. eigenvalues --  -10.05669 -10.05195 -10.05179 -10.04944 -10.03882
 Alpha  occ. eigenvalues --  -10.02454 -10.02162 -10.02135 -10.00730 -10.00072
 Alpha  occ. eigenvalues --   -9.98392  -9.98288  -9.98236  -9.98185  -9.96708
 Alpha  occ. eigenvalues --   -9.96125  -9.96082  -9.95855  -9.95683  -9.95630
 Alpha  occ. eigenvalues --   -9.95564  -7.80017  -7.76946  -5.76331  -5.75959
 Alpha  occ. eigenvalues --   -5.75568  -5.73279  -5.72893  -5.72468  -0.90878
 Alpha  occ. eigenvalues --   -0.89780  -0.83337  -0.82527  -0.80905  -0.80003
 Alpha  occ. eigenvalues --   -0.72049  -0.71984  -0.71151  -0.69438  -0.66625
 Alpha  occ. eigenvalues --   -0.62231  -0.59929  -0.59305  -0.58569  -0.57770
 Alpha  occ. eigenvalues --   -0.55234  -0.54243  -0.53145  -0.52637  -0.52329
 Alpha  occ. eigenvalues --   -0.50280  -0.49780  -0.47491  -0.43996  -0.42715
 Alpha  occ. eigenvalues --   -0.42373  -0.41862  -0.40432  -0.39752  -0.38300
 Alpha  occ. eigenvalues --   -0.37181  -0.36565  -0.34114  -0.33771  -0.31779
 Alpha  occ. eigenvalues --   -0.31654  -0.31381  -0.30923  -0.30755  -0.30091
 Alpha  occ. eigenvalues --   -0.29240  -0.28643  -0.27315  -0.27083  -0.26640
 Alpha  occ. eigenvalues --   -0.26307  -0.25552  -0.25252  -0.24886  -0.24515
 Alpha  occ. eigenvalues --   -0.23389  -0.23198  -0.22360  -0.22253  -0.21614
 Alpha  occ. eigenvalues --   -0.21103  -0.20866  -0.20641  -0.20388  -0.19991
 Alpha  occ. eigenvalues --   -0.19530  -0.19219  -0.19073  -0.18727  -0.18208
 Alpha  occ. eigenvalues --   -0.17971  -0.17500  -0.16879  -0.16364  -0.15956
 Alpha  occ. eigenvalues --   -0.15377  -0.15049  -0.14883  -0.12617  -0.12058
 Alpha  occ. eigenvalues --   -0.11527  -0.09946  -0.08986  -0.06952  -0.06830
 Alpha  occ. eigenvalues --   -0.06277  -0.06234  -0.05531  -0.05418  -0.04646
 Alpha  occ. eigenvalues --   -0.04544  -0.03471  -0.01631  -0.00267   0.06605
 Alpha virt. eigenvalues --    0.11914   0.12743   0.13815   0.14343   0.15695
 Alpha virt. eigenvalues --    0.15893   0.16596   0.16792   0.16899   0.17104
 Alpha virt. eigenvalues --    0.17298   0.17893   0.18454   0.18657   0.18956

 Mulliken charges:
               1
     1  C    0.225216
     2  C   -0.072530
     3  C    0.074350
     4  C    0.216501
     5  C    0.114648
     6  C   -0.467884
     7  C    0.211954
     8  C    0.199795
     9  C    0.405443
    10  C   -0.422463
    11  C    0.309498
    12  C    0.092627
    13  C   -0.531986
    14  C   -0.613662
    15  H    0.103017
    16  H    0.107055
    17  H    0.147720
    18  N   -0.119987
    19  N   -0.135985
    20  O   -0.426780
    21  O   -0.409603
    22  O   -0.420500
    23  O   -0.339336
    24  C   -0.167099
    25  H    0.130635
    26  H    0.139286
    27  H    0.157931
    28  C   -0.180137
    29  H    0.135622
    30  H    0.133488
    31  H    0.157344
    32  C    0.004611
    33  C   -0.194492
    34  S   -0.616502
    35  C   -0.627732
    36  H    0.123733
    37  C    0.325639
    38  O   -0.119891
    39  C    0.552986
    40  C   -0.264361
    41  C    0.082332
    42  S   -0.356045
    43  H    0.129082
    44  H    0.167319
    45  H    0.129551
    46  C   -0.099553
    47  O   -0.134946
    48  C   -0.190658
    49  H    0.093934
    50  C   -0.307331
    51  H    0.120359
    52  H    0.170539
    53  H    0.151009
    54  H    0.106238
 Sum of Mulliken charges =  -2.00000

 Dipole moment (field-independent basis, Debye):
    X=             15.5395    Y=             -0.1759    Z=              2.5606  Tot=             15.7501
 Quadrupole moment (field-independent basis, Debye-Ang):
   XX=           -426.8533   YY=           -307.4117   ZZ=           -238.0955
   XY=              2.1005   XZ=              7.4530   YZ=             12.8281

 Normal termination of Gaussian 16 at Fri Oct  8 11:24:15 2021.
