 Gaussian 16, Revision C.01,
 Gaussian 16:  ES64L-G16RevC.01  3-Jul-2019

 -------------------------------------
 # opt=modredundant b3lyp/6-311+g(d,p)
 -------------------------------------

 ----------
 NDI_50.pdb
 ----------
 Symbolic Z-matrix:
 Charge = -2 Multiplicity = 1

 SCF Done:  E(RB3LYP) =  -2359.37575765     A.U. after   23 cycles
 SCF Done:  E(RB3LYP) =  -2359.39204431     A.U. after   17 cycles
 SCF Done:  E(RB3LYP) =  -2359.39479509     A.U. after   17 cycles
 SCF Done:  E(RB3LYP) =  -2359.39578488     A.U. after   15 cycles
 SCF Done:  E(RB3LYP) =  -2359.39629017     A.U. after   14 cycles
 SCF Done:  E(RB3LYP) =  -2359.39658491     A.U. after   15 cycles
 SCF Done:  E(RB3LYP) =  -2359.39672590     A.U. after   14 cycles
 SCF Done:  E(RB3LYP) =  -2359.39680538     A.U. after   13 cycles
 SCF Done:  E(RB3LYP) =  -2359.39686173     A.U. after   14 cycles
 SCF Done:  E(RB3LYP) =  -2359.39687993     A.U. after   12 cycles
 SCF Done:  E(RB3LYP) =  -2359.40026094     A.U. after   13 cycles
 SCF Done:  E(RB3LYP) =  -2359.40026489     A.U. after   13 cycles
 SCF Done:  E(RB3LYP) =  -2359.40026718     A.U. after   11 cycles
 SCF Done:  E(RB3LYP) =  -2359.40026781     A.U. after   12 cycles
 SCF Done:  E(RB3LYP) =  -2359.40026799     A.U. after   12 cycles
 SCF Done:  E(RB3LYP) =  -2359.40026808     A.U. after   12 cycles
 SCF Done:  E(RB3LYP) =  -2359.40026811     A.U. after   10 cycles
 SCF Done:  E(RB3LYP) =  -2359.40026814     A.U. after   10 cycles
 SCF Done:  E(RB3LYP) =  -2359.40026816     A.U. after    9 cycles
 SCF Done:  E(RB3LYP) =  -2359.40026819     A.U. after   10 cycles
 Optimization completed.
    -- Stationary point found.

                         Standard orientation:
 ---------------------------------------------------------------------
 Center     Atomic      Atomic             Coordinates (Angstroms)
 Number     Number       Type             X           Y           Z
 ---------------------------------------------------------------------
      1          6           0       -2.641100   -2.946599    0.345508
      2          6           0       -2.300561   -1.560616    0.155456
      3          6           0       -3.320617   -0.573292    0.056551
      4          6           0       -4.685732   -0.928947    0.126554
      5          6           0       -5.074142   -2.307986    0.307396
      6          6           0       -0.942583   -1.177764    0.109754
      7          6           0       -2.936132    0.810102   -0.124178
      8          6           0       -1.553762    1.174494   -0.188785
      9          6           0       -0.536940    0.138715   -0.012575
     10          6           0       -1.217738    2.540642   -0.483204
     11          6           0       -3.664684    3.159054   -0.478216
     12          6           0       -3.973477    1.771827   -0.254029
     13          6           0       -5.345711    1.379272   -0.177074
     14          6           0       -5.696818    0.074866    0.011086
     15          1           0       -6.732294   -0.237630    0.069277
     16          1           0       -6.089938    2.160016   -0.279531
     17          1           0       -0.209091   -1.960912    0.253160
     18          7           0       -2.297347    3.455915   -0.596293
     19          7           0       -4.019755   -3.243076    0.403402
     20          8           0       -1.827048   -3.884429    0.458721
     21          8           0       -6.255382   -2.702209    0.381110
     22          8           0       -4.515693    4.069533   -0.581256
     23          8           0       -0.070069    3.002688   -0.657659
     24          6           0       -1.921810    4.835974   -0.882366
     25          1           0       -1.282139    5.229035   -0.087086
     26          1           0       -1.349023    4.885483   -1.811704
     27          1           0       -2.840170    5.413017   -0.957758
     28          6           0       -4.361839   -4.648543    0.587909
     29          1           0       -3.927892   -5.249345   -0.215425
     30          1           0       -3.949156   -5.018948    1.530533
     31          1           0       -5.446377   -4.723857    0.587630
     32          6           0        0.896506    0.397048    0.092149
     33          6           0        1.577830    1.291428    0.897697
     34         16           0        2.040257   -0.663013   -0.720398
     35          6           0        2.972165    1.121392    0.877277
     36          1           0        1.059658    2.053980    1.455573
     37          6           0        3.438209    0.083072    0.071510
     38          8           0        3.875587    1.868658    1.593529
     39          6           0        4.785521   -0.346205   -0.141595
     40          6           0        3.381157    3.036561    2.229257
     41          6           0        5.261329   -1.456193   -0.838140
     42         16           0        6.181193    0.566141    0.464344
     43          1           0        4.253372    3.552917    2.633602
     44          1           0        2.860296    3.684831    1.517208
     45          1           0        2.697243    2.785897    3.048786
     46          6           0        6.675566   -1.563590   -0.899533
     47          8           0        4.431681   -2.362565   -1.469534
     48          6           0        7.319475   -0.551489   -0.246290
     49          1           0        7.173618   -2.370988   -1.422966
     50          6           0        4.053636   -3.481320   -0.664036
     51          1           0        8.379754   -0.388442   -0.128723
     52          1           0        3.543852   -3.157445    0.247772
     53          1           0        3.363681   -4.077706   -1.262128
     54          1           0        4.932026   -4.084647   -0.398874
 ---------------------------------------------------------------------

 The electronic state is 1-A.
 Alpha  occ. eigenvalues --  -88.71536 -88.68465 -18.99657 -18.98651 -18.87497
 Alpha  occ. eigenvalues --  -18.87148 -18.86658 -18.86109 -14.15222 -14.14574
 Alpha  occ. eigenvalues --  -10.07485 -10.06721 -10.06098 -10.06048 -10.05951
 Alpha  occ. eigenvalues --  -10.05578 -10.05256 -10.05131 -10.04913 -10.03956
 Alpha  occ. eigenvalues --  -10.02516 -10.02226 -10.02197 -10.00663 -10.00037
 Alpha  occ. eigenvalues --   -9.98340  -9.98333  -9.98232  -9.98159  -9.96635
 Alpha  occ. eigenvalues --   -9.96100  -9.95992  -9.95782  -9.95619  -9.95571
 Alpha  occ. eigenvalues --   -9.95505  -7.80086  -7.77030  -5.76400  -5.76028
 Alpha  occ. eigenvalues --   -5.75638  -5.73361  -5.72973  -5.72556  -0.90935
 Alpha  occ. eigenvalues --   -0.89846  -0.83235  -0.82486  -0.80798  -0.79961
 Alpha  occ. eigenvalues --   -0.72123  -0.71895  -0.71118  -0.69513  -0.66577
 Alpha  occ. eigenvalues --   -0.62211  -0.59927  -0.59282  -0.58635  -0.57829
 Alpha  occ. eigenvalues --   -0.55225  -0.54271  -0.53107  -0.52643  -0.52331
 Alpha  occ. eigenvalues --   -0.50290  -0.49751  -0.47457  -0.43971  -0.42726
 Alpha  occ. eigenvalues --   -0.42343  -0.41847  -0.40399  -0.39768  -0.38363
 Alpha  occ. eigenvalues --   -0.37187  -0.36624  -0.34065  -0.33728  -0.31768
 Alpha  occ. eigenvalues --   -0.31723  -0.31395  -0.30959  -0.30812  -0.30107
 Alpha  occ. eigenvalues --   -0.29291  -0.28688  -0.27240  -0.27057  -0.26607
 Alpha  occ. eigenvalues --   -0.26298  -0.25592  -0.25208  -0.24830  -0.24560
 Alpha  occ. eigenvalues --   -0.23440  -0.23158  -0.22334  -0.22256  -0.21608
 Alpha  occ. eigenvalues --   -0.21048  -0.20833  -0.20630  -0.20382  -0.20048
 Alpha  occ. eigenvalues --   -0.19501  -0.19192  -0.19045  -0.18737  -0.18134
 Alpha  occ. eigenvalues --   -0.17946  -0.17426  -0.16906  -0.16352  -0.15975
 Alpha  occ. eigenvalues --   -0.15377  -0.15017  -0.14872  -0.12583  -0.12093
 Alpha  occ. eigenvalues --   -0.11464  -0.09980  -0.09042  -0.06894  -0.06766
 Alpha  occ. eigenvalues --   -0.06247  -0.06187  -0.05478  -0.05417  -0.04590
 Alpha  occ. eigenvalues --   -0.04465  -0.03473  -0.01588  -0.00324   0.06668
 Alpha virt. eigenvalues --    0.11890   0.12707   0.13767   0.14299   0.15671
 Alpha virt. eigenvalues --    0.15937   0.16586   0.16811   0.16926   0.17072
 Alpha virt. eigenvalues --    0.17266   0.17865   0.18419   0.18603   0.18904

 Mulliken charges:
               1
     1  C    0.245794
     2  C   -0.090822
     3  C    0.062840
     4  C    0.218884
     5  C    0.118386
     6  C   -0.572468
     7  C    0.214004
     8  C    0.170396
     9  C    0.466727
    10  C   -0.377469
    11  C    0.293264
    12  C    0.112607
    13  C   -0.539393
    14  C   -0.618823
    15  H    0.102903
    16  H    0.106725
    17  H    0.147074
    18  N   -0.130800
    19  N   -0.136454
    20  O   -0.427556
    21  O   -0.410860
    22  O   -0.421337
    23  O   -0.333431
    24  C   -0.174348
    25  H    0.130307
    26  H    0.139434
    27  H    0.158005
    28  C   -0.179778
    29  H    0.135184
    30  H    0.133317
    31  H    0.157397
    32  C    0.016370
    33  C   -0.243465
    34  S   -0.572059
    35  C   -0.607040
    36  H    0.121739
    37  C    0.377811
    38  O   -0.121793
    39  C    0.526057
    40  C   -0.264468
    41  C    0.094109
    42  S   -0.355698
    43  H    0.129200
    44  H    0.166671
    45  H    0.129312
    46  C   -0.106901
    47  O   -0.134811
    48  C   -0.188992
    49  H    0.094172
    50  C   -0.308255
    51  H    0.120569
    52  H    0.170506
    53  H    0.151079
    54  H    0.106180
 Sum of Mulliken charges =  -2.00000

 Dipole moment (field-independent basis, Debye):
    X=             15.8097    Y=             -0.2324    Z=              2.5733  Tot=             16.0194
 Quadrupole moment (field-independent basis, Debye-Ang):
   XX=           -426.6850   YY=           -307.5974   ZZ=           -237.9056
   XY=              1.5669   XZ=              6.2510   YZ=             14.2648

 Normal termination of Gaussian 16 at Fri Oct  8 16:06:27 2021.
