 Gaussian 16, Revision C.01,
 Gaussian 16:  ES64L-G16RevC.01  3-Jul-2019

 -------------------------------------
 # opt=modredundant b3lyp/6-311+g(d,p)
 -------------------------------------

 ----------
 NDI_90.pdb
 ----------
 Symbolic Z-matrix:
 Charge = -2 Multiplicity = 1

 SCF Done:  E(RB3LYP) =  -2359.36787935     A.U. after   29 cycles
 SCF Done:  E(RB3LYP) =  -2359.38618594     A.U. after   17 cycles
 SCF Done:  E(RB3LYP) =  -2359.38958822     A.U. after   16 cycles
 SCF Done:  E(RB3LYP) =  -2359.39003620     A.U. after   15 cycles
 SCF Done:  E(RB3LYP) =  -2359.39009119     A.U. after   15 cycles
 SCF Done:  E(RB3LYP) =  -2359.39028879     A.U. after   15 cycles
 SCF Done:  E(RB3LYP) =  -2359.39033192     A.U. after   14 cycles
 SCF Done:  E(RB3LYP) =  -2359.39036715     A.U. after   14 cycles
 SCF Done:  E(RB3LYP) =  -2359.39038887     A.U. after   14 cycles
 SCF Done:  E(RB3LYP) =  -2359.39041295     A.U. after   12 cycles
 SCF Done:  E(RB3LYP) =  -2359.39366490     A.U. after   15 cycles
 SCF Done:  E(RB3LYP) =  -2359.39366853     A.U. after   15 cycles
 SCF Done:  E(RB3LYP) =  -2359.39366976     A.U. after   14 cycles
 SCF Done:  E(RB3LYP) =  -2359.39367026     A.U. after   13 cycles
 SCF Done:  E(RB3LYP) =  -2359.39367064     A.U. after   13 cycles
 SCF Done:  E(RB3LYP) =  -2359.39367101     A.U. after   12 cycles
 SCF Done:  E(RB3LYP) =  -2359.39367149     A.U. after   13 cycles
 SCF Done:  E(RB3LYP) =  -2359.39367172     A.U. after   12 cycles
 SCF Done:  E(RB3LYP) =  -2359.39367184     A.U. after   13 cycles
 SCF Done:  E(RB3LYP) =  -2359.39367182     A.U. after   13 cycles
 Optimization completed.
    -- Stationary point found.

                         Standard orientation:
 ---------------------------------------------------------------------
 Center     Atomic      Atomic             Coordinates (Angstroms)
 Number     Number       Type             X           Y           Z
 ---------------------------------------------------------------------
      1          6           0       -3.384966   -2.800706   -0.139563
      2          6           0       -2.713422   -1.537314   -0.035328
      3          6           0       -3.452694   -0.325178   -0.078209
      4          6           0       -4.861188   -0.329551   -0.231131
      5          6           0       -5.576386   -1.571852   -0.345386
      6          6           0       -1.297513   -1.500628    0.123195
      7          6           0       -2.746519    0.934093    0.040148
      8          6           0       -1.327905    0.943949    0.198571
      9          6           0       -0.611214   -0.320563    0.244839
     10          6           0       -0.642881    2.198120    0.312141
     11          6           0       -2.844241    3.411783    0.111235
     12          6           0       -3.497185    2.138565   -0.003485
     13          6           0       -4.921814    2.096473   -0.161775
     14          6           0       -5.580928    0.909011   -0.271287
     15          1           0       -6.656848    0.862364   -0.391008
     16          1           0       -5.446729    3.043989   -0.190082
     17          1           0       -0.773375   -2.448397    0.155794
     18          7           0       -1.441965    3.362598    0.262299
     19          7           0       -4.787408   -2.745351   -0.293950
     20          8           0       -2.834340   -3.923613   -0.103545
     21          8           0       -6.816430   -1.669512   -0.482112
     22          8           0       -3.426127    4.520371    0.085922
     23          8           0        0.593861    2.349536    0.449550
     24          6           0       -0.723718    4.625847    0.379036
     25          1           0       -0.175586    4.664414    1.324561
     26          1           0        0.011817    4.719253   -0.424743
     27          1           0       -1.460775    5.423469    0.325028
     28          6           0       -5.465172   -4.030901   -0.404618
     29          1           0       -5.064994   -4.596456   -1.250493
     30          1           0       -5.293881   -4.629381    0.494940
     31          1           0       -6.525487   -3.829678   -0.537463
     32          6           0        0.852027   -0.391356    0.457436
     33          6           0        1.534854   -0.482418    1.643987
     34         16           0        1.957039   -0.482126   -0.889033
     35          6           0        2.938822   -0.571000    1.479953
     36          1           0        1.023110   -0.438945    2.593723
     37          6           0        3.371378   -0.564565    0.162435
     38          8           0        3.857419   -0.668869    2.495449
     39          6           0        4.722490   -0.605836   -0.332993
     40          6           0        3.392307   -0.420387    3.812162
     41          6           0        5.200936   -0.303670   -1.600787
     42         16           0        6.082407   -1.115019    0.674274
     43          1           0        4.272912   -0.454144    4.455299
     44          1           0        2.919474    0.564694    3.886218
     45          1           0        2.678555   -1.186518    4.135926
     46          6           0        6.601926   -0.489021   -1.766558
     47          8           0        4.402210    0.109794   -2.644082
     48          6           0        7.218381   -0.925483   -0.630194
     49          1           0        7.105148   -0.294744   -2.705571
     50          6           0        4.113185    1.514894   -2.653425
     51          1           0        8.266364   -1.124418   -0.465400
     52          1           0        5.037790    2.094936   -2.767344
     53          1           0        3.461668    1.687674   -3.510262
     54          1           0        3.591225    1.820000   -1.743255
 ---------------------------------------------------------------------

 The electronic state is 1-A.
 Alpha  occ. eigenvalues --  -88.72939 -88.69351 -19.00764 -18.99474 -18.85999
 Alpha  occ. eigenvalues --  -18.85836 -18.85782 -18.85738 -14.14031 -14.14024
 Alpha  occ. eigenvalues --  -10.08634 -10.07581 -10.07191 -10.07056 -10.06470
 Alpha  occ. eigenvalues --  -10.05489 -10.04481 -10.04304 -10.04292 -10.04204
 Alpha  occ. eigenvalues --  -10.03691 -10.03433 -10.03279  -9.99648  -9.99600
 Alpha  occ. eigenvalues --   -9.99571  -9.97482  -9.97367  -9.97291  -9.95606
 Alpha  occ. eigenvalues --   -9.95460  -9.94638  -9.94633  -9.94616  -9.94578
 Alpha  occ. eigenvalues --   -9.94513  -7.81501  -7.77931  -5.77808  -5.77434
 Alpha  occ. eigenvalues --   -5.77068  -5.74259  -5.73858  -5.73474  -0.92059
 Alpha  occ. eigenvalues --   -0.90716  -0.81761  -0.81734  -0.79232  -0.79185
 Alpha  occ. eigenvalues --   -0.73557  -0.70702  -0.70565  -0.70433  -0.65743
 Alpha  occ. eigenvalues --   -0.62259  -0.60056  -0.59699  -0.58890  -0.58474
 Alpha  occ. eigenvalues --   -0.55633  -0.54398  -0.53416  -0.52355  -0.51626
 Alpha  occ. eigenvalues --   -0.50651  -0.49022  -0.46877  -0.44292  -0.43133
 Alpha  occ. eigenvalues --   -0.41614  -0.41529  -0.40350  -0.39296  -0.39224
 Alpha  occ. eigenvalues --   -0.37852  -0.37078  -0.33318  -0.33031  -0.32864
 Alpha  occ. eigenvalues --   -0.32545  -0.31773  -0.31487  -0.31086  -0.30326
 Alpha  occ. eigenvalues --   -0.29647  -0.29113  -0.27000  -0.26482  -0.26161
 Alpha  occ. eigenvalues --   -0.26009  -0.25836  -0.25084  -0.24649  -0.24353
 Alpha  occ. eigenvalues --   -0.23924  -0.22903  -0.22582  -0.22017  -0.21607
 Alpha  occ. eigenvalues --   -0.21009  -0.20648  -0.20216  -0.20083  -0.19801
 Alpha  occ. eigenvalues --   -0.19629  -0.18921  -0.18324  -0.18262  -0.17669
 Alpha  occ. eigenvalues --   -0.17232  -0.17109  -0.16757  -0.16178  -0.15943
 Alpha  occ. eigenvalues --   -0.15556  -0.14164  -0.14048  -0.13349  -0.11688
 Alpha  occ. eigenvalues --   -0.11215  -0.10157  -0.09556  -0.06670  -0.05834
 Alpha  occ. eigenvalues --   -0.05702  -0.05147  -0.05119  -0.04529  -0.03771
 Alpha  occ. eigenvalues --   -0.03556  -0.03030  -0.01944  -0.00051   0.07572
 Alpha virt. eigenvalues --    0.11026   0.12054   0.13051   0.13688   0.15186
 Alpha virt. eigenvalues --    0.15831   0.15997   0.16664   0.16851   0.17160
 Alpha virt. eigenvalues --    0.17511   0.17541   0.17753   0.17962   0.18506

 Mulliken charges:
               1
     1  C    0.308789
     2  C    0.034523
     3  C    0.125431
     4  C    0.215548
     5  C    0.136430
     6  C   -0.753219
     7  C    0.212616
     8  C   -0.073925
     9  C    0.636947
    10  C   -0.420417
    11  C    0.101267
    12  C    0.281496
    13  C   -0.622239
    14  C   -0.623138
    15  H    0.100838
    16  H    0.102438
    17  H    0.106934
    18  N   -0.152711
    19  N   -0.139293
    20  O   -0.438316
    21  O   -0.430062
    22  O   -0.428542
    23  O   -0.287574
    24  C   -0.214015
    25  H    0.130163
    26  H    0.132647
    27  H    0.158849
    28  C   -0.180852
    29  H    0.132359
    30  H    0.129456
    31  H    0.156142
    32  C    0.430346
    33  C   -0.776223
    34  S   -0.104081
    35  C   -0.480081
    36  H    0.097747
    37  C    0.293103
    38  O   -0.125592
    39  C    0.278305
    40  C   -0.239289
    41  C    0.169834
    42  S   -0.338955
    43  H    0.132623
    44  H    0.154598
    45  H    0.136572
    46  C   -0.080555
    47  O   -0.156740
    48  C   -0.162307
    49  H    0.100338
    50  C   -0.349149
    51  H    0.125998
    52  H    0.107847
    53  H    0.147075
    54  H    0.200018
 Sum of Mulliken charges =  -2.00000

 Dipole moment (field-independent basis, Debye):
    X=             20.3526    Y=             -0.2236    Z=              2.4447  Tot=             20.5002
 Quadrupole moment (field-independent basis, Debye-Ang):
   XX=           -422.1756   YY=           -319.9340   ZZ=           -228.1906
   XY=              6.2314   XZ=             -2.0335   YZ=             -7.8301

 Normal termination of Gaussian 16 at Fri Oct  8 10:25:18 2021.
