 Gaussian 16, Revision C.01,
 Gaussian 16:  ES64L-G16RevC.01  3-Jul-2019

 -------------------------------------
 # opt=modredundant b3lyp/6-311+g(d,p)
 -------------------------------------

 ----------
 NDI_10.pdb
 ----------
 Symbolic Z-matrix:
 Charge = -2 Multiplicity = 1

 SCF Done:  E(RB3LYP) =  -2359.36156430     A.U. after   21 cycles
 SCF Done:  E(RB3LYP) =  -2359.36828871     A.U. after   20 cycles
 SCF Done:  E(RB3LYP) =  -2359.37889953     A.U. after   15 cycles
 SCF Done:  E(RB3LYP) =  -2359.38886101     A.U. after   16 cycles
 SCF Done:  E(RB3LYP) =  -2359.39270992     A.U. after   16 cycles
 SCF Done:  E(RB3LYP) =  -2359.39351835     A.U. after   16 cycles
 SCF Done:  E(RB3LYP) =  -2359.39381728     A.U. after   14 cycles
 SCF Done:  E(RB3LYP) =  -2359.39358796     A.U. after   19 cycles
 SCF Done:  E(RB3LYP) =  -2359.39475574     A.U. after   14 cycles
 SCF Done:  E(RB3LYP) =  -2359.39502968     A.U. after   14 cycles
 SCF Done:  E(RB3LYP) =  -2359.39802666     A.U. after   13 cycles
 SCF Done:  E(RB3LYP) =  -2359.39803372     A.U. after   13 cycles
 SCF Done:  E(RB3LYP) =  -2359.39804127     A.U. after   13 cycles
 SCF Done:  E(RB3LYP) =  -2359.39804480     A.U. after   12 cycles
 SCF Done:  E(RB3LYP) =  -2359.39804615     A.U. after   11 cycles
 SCF Done:  E(RB3LYP) =  -2359.39804740     A.U. after   10 cycles
 SCF Done:  E(RB3LYP) =  -2359.39804873     A.U. after   11 cycles
 SCF Done:  E(RB3LYP) =  -2359.39804968     A.U. after   11 cycles
 SCF Done:  E(RB3LYP) =  -2359.39805026     A.U. after   10 cycles
 SCF Done:  E(RB3LYP) =  -2359.39805030     A.U. after   11 cycles
 Optimization completed.
    -- Stationary point found.

                         Standard orientation:
 ---------------------------------------------------------------------
 Center     Atomic      Atomic             Coordinates (Angstroms)
 Number     Number       Type             X           Y           Z
 ---------------------------------------------------------------------
      1          6           0       -2.554325   -2.952490    0.525777
      2          6           0       -2.251597   -1.547185    0.399249
      3          6           0       -3.255234   -0.624012   -0.012733
      4          6           0       -4.555504   -1.063232   -0.330293
      5          6           0       -4.897547   -2.467528   -0.241917
      6          6           0       -0.934394   -1.103806    0.585832
      7          6           0       -2.916274    0.780830   -0.064909
      8          6           0       -1.597912    1.230067    0.274033
      9          6           0       -0.529243    0.220321    0.472055
     10          6           0       -1.437842    2.633130    0.525998
     11          6           0       -3.735202    3.104568   -0.396959
     12          6           0       -3.959363    1.683580   -0.412893
     13          6           0       -5.259783    1.206392   -0.754678
     14          6           0       -5.557867   -0.124710   -0.721093
     15          1           0       -6.543783   -0.500295   -0.965142
     16          1           0       -6.001043    1.948876   -1.025453
     17          1           0       -0.205480   -1.884675    0.772668
     18          7           0       -2.484345    3.494296    0.097717
     19          7           0       -3.871528   -3.333727    0.192204
     20          8           0       -1.756114   -3.834573    0.889620
     21          8           0       -6.020606   -2.930970   -0.514044
     22          8           0       -4.572182    3.963785   -0.749055
     23          8           0       -0.477438    3.192857    1.106921
     24          6           0       -2.242726    4.921198    0.281632
     25          1           0       -2.152099    5.161582    1.344815
     26          1           0       -1.303254    5.206641   -0.196963
     27          1           0       -3.083930    5.450783   -0.158985
     28          6           0       -4.173322   -4.755871    0.310776
     29          1           0       -3.518457   -5.337007   -0.343939
     30          1           0       -3.994468   -5.094362    1.334510
     31          1           0       -5.215361   -4.893990    0.033808
     32          6           0        0.899230    0.446704    0.330011
     33          6           0        1.631446    1.618067    0.172563
     34         16           0        2.027119   -0.936086    0.300091
     35          6           0        3.015493    1.421895    0.044350
     36          1           0        1.145320    2.577214    0.239391
     37          6           0        3.450510    0.100736    0.086036
     38          8           0        3.940313    2.425554   -0.101645
     39          6           0        4.777755   -0.407564   -0.046116
     40          6           0        3.448429    3.757587   -0.124816
     41          6           0        5.228964   -1.728222   -0.074724
     42         16           0        6.190314    0.659968   -0.191456
     43          1           0        4.325373    4.398981   -0.227194
     44          1           0        2.773887    3.917225   -0.972881
     45          1           0        2.913592    4.002560    0.798163
     46          6           0        6.634757   -1.878688   -0.197387
     47          8           0        4.386277   -2.814830    0.060596
     48          6           0        7.299151   -0.687653   -0.276891
     49          1           0        7.114458   -2.850202   -0.216402
     50          6           0        3.954911   -3.393551   -1.171446
     51          1           0        8.358568   -0.508637   -0.377945
     52          1           0        4.807048   -3.800284   -1.732669
     53          1           0        3.266408   -4.199020   -0.912599
     54          1           0        3.428320   -2.659450   -1.788689
 ---------------------------------------------------------------------

 The electronic state is 1-A.
 Alpha  occ. eigenvalues --  -88.71162 -88.67726 -18.99225 -18.98328 -18.88288
 Alpha  occ. eigenvalues --  -18.87826 -18.86919 -18.86464 -14.15796 -14.14826
 Alpha  occ. eigenvalues --  -10.06857 -10.06718 -10.06547 -10.06276 -10.05715
 Alpha  occ. eigenvalues --  -10.05571 -10.05371 -10.05256 -10.04913 -10.03568
 Alpha  occ. eigenvalues --  -10.02192 -10.02049 -10.01791 -10.01144 -10.00301
 Alpha  occ. eigenvalues --   -9.98672  -9.98582  -9.98407  -9.97154  -9.96981
 Alpha  occ. eigenvalues --   -9.96654  -9.96399  -9.96353  -9.96076  -9.95933
 Alpha  occ. eigenvalues --   -9.95891  -7.79709  -7.76301  -5.76025  -5.75652
 Alpha  occ. eigenvalues --   -5.75258  -5.72646  -5.72259  -5.71794  -0.90481
 Alpha  occ. eigenvalues --   -0.89539  -0.84012  -0.82801  -0.81625  -0.80251
 Alpha  occ. eigenvalues --   -0.72568  -0.71704  -0.71401  -0.68867  -0.66901
 Alpha  occ. eigenvalues --   -0.62324  -0.60040  -0.59343  -0.58311  -0.57387
 Alpha  occ. eigenvalues --   -0.55272  -0.54108  -0.53277  -0.52866  -0.52030
 Alpha  occ. eigenvalues --   -0.50371  -0.49855  -0.47685  -0.44201  -0.42842
 Alpha  occ. eigenvalues --   -0.42470  -0.41947  -0.40653  -0.39634  -0.38003
 Alpha  occ. eigenvalues --   -0.37112  -0.36134  -0.34445  -0.34030  -0.31991
 Alpha  occ. eigenvalues --   -0.31332  -0.31144  -0.30791  -0.30556  -0.29874
 Alpha  occ. eigenvalues --   -0.28926  -0.28455  -0.27797  -0.27219  -0.26903
 Alpha  occ. eigenvalues --   -0.26278  -0.25720  -0.25349  -0.25122  -0.24289
 Alpha  occ. eigenvalues --   -0.23619  -0.23054  -0.22725  -0.22492  -0.21523
 Alpha  occ. eigenvalues --   -0.21362  -0.20996  -0.20861  -0.20314  -0.19790
 Alpha  occ. eigenvalues --   -0.19548  -0.19390  -0.19247  -0.18680  -0.18547
 Alpha  occ. eigenvalues --   -0.18140  -0.17708  -0.16853  -0.16418  -0.16126
 Alpha  occ. eigenvalues --   -0.15433  -0.15039  -0.14374  -0.12825  -0.11996
 Alpha  occ. eigenvalues --   -0.11558  -0.09797  -0.08754  -0.07381  -0.07192
 Alpha  occ. eigenvalues --   -0.06671  -0.06209  -0.05762  -0.05281  -0.05118
 Alpha  occ. eigenvalues --   -0.05014  -0.03761  -0.02025   0.00089   0.06279
 Alpha virt. eigenvalues --    0.11817   0.12892   0.14038   0.14597   0.15494
 Alpha virt. eigenvalues --    0.15815   0.16492   0.16650   0.16765   0.17237
 Alpha virt. eigenvalues --    0.17644   0.18044   0.18629   0.18867   0.18954

 Mulliken charges:
               1
     1  C    0.167256
     2  C    0.040428
     3  C    0.162276
     4  C    0.257225
     5  C    0.125083
     6  C    0.120847
     7  C    0.057580
     8  C    0.415653
     9  C    0.192153
    10  C   -0.711550
    11  C    0.116557
    12  C    0.244975
    13  C   -0.491622
    14  C   -0.582161
    15  H    0.103772
    16  H    0.109413
    17  H    0.136127
    18  N   -0.057101
    19  N   -0.130104
    20  O   -0.413473
    21  O   -0.405762
    22  O   -0.424309
    23  O   -0.418413
    24  C   -0.141620
    25  H    0.134939
    26  H    0.131042
    27  H    0.156773
    28  C   -0.179544
    29  H    0.137750
    30  H    0.136381
    31  H    0.156369
    32  C   -0.108258
    33  C    0.015793
    34  S   -1.028785
    35  C   -0.763347
    36  H    0.190291
    37  C    0.325667
    38  O   -0.129559
    39  C    0.385803
    40  C   -0.248638
    41  C    0.169914
    42  S   -0.357206
    43  H    0.128473
    44  H    0.140970
    45  H    0.158147
    46  C   -0.028825
    47  O   -0.135195
    48  C   -0.201643
    49  H    0.092550
    50  C   -0.287424
    51  H    0.119002
    52  H    0.102820
    53  H    0.150892
    54  H    0.161618
 Sum of Mulliken charges =  -2.00000

 Dipole moment (field-independent basis, Debye):
    X=             14.1043    Y=              0.2223    Z=             -1.7365  Tot=             14.2125
 Quadrupole moment (field-independent basis, Debye-Ang):
   XX=           -419.7244   YY=           -307.6272   ZZ=           -242.1317
   XY=              6.4420   XZ=            -17.3099   YZ=              7.2279

 Normal termination of Gaussian 16 at Fri Oct  8 11:12:46 2021.
