 Gaussian 16, Revision C.01,
 Gaussian 16:  ES64L-G16RevC.01  3-Jul-2019

 -------------------------------------
 # opt=modredundant b3lyp/6-311+g(d,p)
 -------------------------------------

 ----------
 NDI_35.pdb
 ----------
 Symbolic Z-matrix:
 Charge = -2 Multiplicity = 1

 SCF Done:  E(RB3LYP) =  -2359.37453619     A.U. after   23 cycles
 SCF Done:  E(RB3LYP) =  -2359.38303667     A.U. after   18 cycles
 SCF Done:  E(RB3LYP) =  -2359.39339763     A.U. after   18 cycles
 SCF Done:  E(RB3LYP) =  -2359.39502595     A.U. after   16 cycles
 SCF Done:  E(RB3LYP) =  -2359.39576947     A.U. after   16 cycles
 SCF Done:  E(RB3LYP) =  -2359.39661185     A.U. after   16 cycles
 SCF Done:  E(RB3LYP) =  -2359.39696304     A.U. after   18 cycles
 SCF Done:  E(RB3LYP) =  -2359.39764416     A.U. after   15 cycles
 SCF Done:  E(RB3LYP) =  -2359.39785063     A.U. after   14 cycles
 SCF Done:  E(RB3LYP) =  -2359.39782778     A.U. after   14 cycles
 SCF Done:  E(RB3LYP) =  -2359.40136543     A.U. after   14 cycles
 SCF Done:  E(RB3LYP) =  -2359.40138240     A.U. after   14 cycles
 SCF Done:  E(RB3LYP) =  -2359.40138561     A.U. after   12 cycles
 SCF Done:  E(RB3LYP) =  -2359.40138621     A.U. after   11 cycles
 SCF Done:  E(RB3LYP) =  -2359.40138664     A.U. after   11 cycles
 SCF Done:  E(RB3LYP) =  -2359.40138725     A.U. after   11 cycles
 SCF Done:  E(RB3LYP) =  -2359.40138777     A.U. after   11 cycles
 SCF Done:  E(RB3LYP) =  -2359.40138811     A.U. after   10 cycles
 SCF Done:  E(RB3LYP) =  -2359.40138821     A.U. after   11 cycles
 SCF Done:  E(RB3LYP) =  -2359.40138819     A.U. after    9 cycles
 Optimization completed.
    -- Stationary point found.

                         Standard orientation:
 ---------------------------------------------------------------------
 Center     Atomic      Atomic             Coordinates (Angstroms)
 Number     Number       Type             X           Y           Z
 ---------------------------------------------------------------------
      1          6           0       -2.636032   -2.976350    0.169709
      2          6           0       -2.299147   -1.582501    0.029051
      3          6           0       -3.317111   -0.587104    0.048213
      4          6           0       -4.675567   -0.941367    0.192259
      5          6           0       -5.060656   -2.328118    0.326940
      6          6           0       -0.945790   -1.201350   -0.058010
      7          6           0       -2.934234    0.801341   -0.091025
      8          6           0       -1.556811    1.163631   -0.236866
      9          6           0       -0.533015    0.117589   -0.150662
     10          6           0       -1.246329    2.528578   -0.564152
     11          6           0       -3.674719    3.164481   -0.300239
     12          6           0       -3.973644    1.769818   -0.107276
     13          6           0       -5.338838    1.379479    0.048044
     14          6           0       -5.685979    0.068731    0.197570
     15          1           0       -6.717014   -0.242744    0.311607
     16          1           0       -6.082626    2.167206    0.033535
     17          1           0       -0.214188   -1.993926    0.036379
     18          7           0       -2.322898    3.456656   -0.534000
     19          7           0       -4.010005   -3.271055    0.301245
     20          8           0       -1.823042   -3.920586    0.182989
     21          8           0       -6.236595   -2.719948    0.459787
     22          8           0       -4.524491    4.081576   -0.290596
     23          8           0       -0.127197    2.984759   -0.881168
     24          6           0       -1.966353    4.840282   -0.827322
     25          1           0       -1.209683    5.193642   -0.121856
     26          1           0       -1.534958    4.916936   -1.828876
     27          1           0       -2.874867    5.432530   -0.750408
     28          6           0       -4.349238   -4.683317    0.432790
     29          1           0       -3.960674   -5.242963   -0.421591
     30          1           0       -3.890155   -5.102344    1.332708
     31          1           0       -5.432570   -4.756099    0.486603
     32          6           0        0.893651    0.367388   -0.016696
     33          6           0        1.555392    1.374473    0.666214
     34         16           0        2.069655   -0.770010   -0.678848
     35          6           0        2.950366    1.218138    0.693762
     36          1           0        1.024345    2.201088    1.106216
     37          6           0        3.443664    0.090229    0.039057
     38          8           0        3.831651    2.066507    1.317892
     39          6           0        4.797440   -0.349054   -0.086207
     40          6           0        3.308303    3.293554    1.802209
     41          6           0        5.300848   -1.530586   -0.630877
     42         16           0        6.170537    0.642998    0.443969
     43          1           0        4.166657    3.872466    2.147117
     44          1           0        2.782136    3.839051    1.012408
     45          1           0        2.620771    3.130674    2.640518
     46          6           0        6.716630   -1.630749   -0.639060
     47          8           0        4.496434   -2.515303   -1.172068
     48          6           0        7.335923   -0.541798   -0.094378
     49          1           0        7.234359   -2.490495   -1.047537
     50          6           0        4.103302   -3.533470   -0.249458
     51          1           0        8.391371   -0.355970    0.032386
     52          1           0        3.561931   -3.108261    0.600483
     53          1           0        3.437735   -4.206159   -0.791737
     54          1           0        4.978250   -4.089379    0.113184
 ---------------------------------------------------------------------

 The electronic state is 1-A.
 Alpha  occ. eigenvalues --  -88.71351 -88.68216 -18.99498 -18.98493 -18.87794
 Alpha  occ. eigenvalues --  -18.87401 -18.86787 -18.86171 -14.15445 -14.14657
 Alpha  occ. eigenvalues --  -10.07266 -10.06589 -10.06240 -10.05902 -10.05901
 Alpha  occ. eigenvalues --  -10.05840 -10.05258 -10.05092 -10.04994 -10.03758
 Alpha  occ. eigenvalues --  -10.02351 -10.02053 -10.02037 -10.00853 -10.00138
 Alpha  occ. eigenvalues --   -9.98476  -9.98384  -9.98222  -9.98047  -9.96847
 Alpha  occ. eigenvalues --   -9.96245  -9.96159  -9.95993  -9.95797  -9.95729
 Alpha  occ. eigenvalues --   -9.95667  -7.79900  -7.76784  -5.76215  -5.75843
 Alpha  occ. eigenvalues --   -5.75450  -5.73120  -5.72736  -5.72297  -0.90777
 Alpha  occ. eigenvalues --   -0.89677  -0.83526  -0.82596  -0.81105  -0.80071
 Alpha  occ. eigenvalues --   -0.72150  -0.71925  -0.71210  -0.69298  -0.66711
 Alpha  occ. eigenvalues --   -0.62268  -0.59948  -0.59331  -0.58463  -0.57665
 Alpha  occ. eigenvalues --   -0.55252  -0.54200  -0.53201  -0.52676  -0.52280
 Alpha  occ. eigenvalues --   -0.50279  -0.49819  -0.47551  -0.44048  -0.42722
 Alpha  occ. eigenvalues --   -0.42408  -0.41885  -0.40494  -0.39717  -0.38196
 Alpha  occ. eigenvalues --   -0.37172  -0.36462  -0.34200  -0.33846  -0.31818
 Alpha  occ. eigenvalues --   -0.31524  -0.31367  -0.30863  -0.30668  -0.30045
 Alpha  occ. eigenvalues --   -0.29150  -0.28569  -0.27453  -0.27130  -0.26702
 Alpha  occ. eigenvalues --   -0.26326  -0.25512  -0.25303  -0.24985  -0.24441
 Alpha  occ. eigenvalues --   -0.23341  -0.23242  -0.22412  -0.22264  -0.21605
 Alpha  occ. eigenvalues --   -0.21207  -0.20930  -0.20677  -0.20383  -0.19892
 Alpha  occ. eigenvalues --   -0.19569  -0.19286  -0.19124  -0.18685  -0.18345
 Alpha  occ. eigenvalues --   -0.18003  -0.17639  -0.16843  -0.16362  -0.15964
 Alpha  occ. eigenvalues --   -0.15390  -0.15059  -0.14885  -0.12699  -0.11970
 Alpha  occ. eigenvalues --   -0.11649  -0.09880  -0.08896  -0.07065  -0.06946
 Alpha  occ. eigenvalues --   -0.06400  -0.06249  -0.05620  -0.05416  -0.04751
 Alpha  occ. eigenvalues --   -0.04680  -0.03473  -0.01724  -0.00151   0.06494
 Alpha virt. eigenvalues --    0.11941   0.12805   0.13910   0.14433   0.15713
 Alpha virt. eigenvalues --    0.15826   0.16599   0.16743   0.16853   0.17159
 Alpha virt. eigenvalues --    0.17377   0.17965   0.18512   0.18768   0.19039

 Mulliken charges:
               1
     1  C    0.213765
     2  C   -0.112450
     3  C    0.118910
     4  C    0.241026
     5  C    0.096931
     6  C   -0.196994
     7  C    0.258373
     8  C    0.330946
     9  C    0.324064
    10  C   -0.607878
    11  C    0.082185
    12  C    0.205887
    13  C   -0.458604
    14  C   -0.602408
    15  H    0.103170
    16  H    0.106924
    17  H    0.144430
    18  N   -0.093342
    19  N   -0.135783
    20  O   -0.426341
    21  O   -0.407629
    22  O   -0.418277
    23  O   -0.354730
    24  C   -0.175218
    25  H    0.129131
    26  H    0.137631
    27  H    0.155597
    28  C   -0.180273
    29  H    0.136412
    30  H    0.133684
    31  H    0.156295
    32  C   -0.029613
    33  C   -0.472483
    34  S   -0.717181
    35  C   -0.498834
    36  H    0.129068
    37  C    0.479251
    38  O   -0.126433
    39  C    0.511952
    40  C   -0.257989
    41  C    0.168278
    42  S   -0.386558
    43  H    0.128612
    44  H    0.168498
    45  H    0.130130
    46  C   -0.153912
    47  O   -0.137362
    48  C   -0.177789
    49  H    0.093697
    50  C   -0.302522
    51  H    0.119614
    52  H    0.169469
    53  H    0.150952
    54  H    0.105722
 Sum of Mulliken charges =  -2.00000

 Dipole moment (field-independent basis, Debye):
    X=             15.0695    Y=             -0.0926    Z=              2.5014  Tot=             15.2759
 Quadrupole moment (field-independent basis, Debye-Ang):
   XX=           -426.6780   YY=           -307.0751   ZZ=           -238.6306
   XY=              3.1010   XZ=              9.6581   YZ=              9.8617

 Normal termination of Gaussian 16 at Fri Oct  8 08:28:08 2021.
