 Gaussian 16, Revision C.01,
 Gaussian 16:  ES64L-G16RevC.01  3-Jul-2019

 -------------------------------------
 # opt=modredundant b3lyp/6-311+g(d,p)
 -------------------------------------

 -----------
 NDI_125.pdb
 -----------
 Symbolic Z-matrix:
 Charge = -2 Multiplicity = 1

 SCF Done:  E(RB3LYP) =  -2359.37288162     A.U. after   23 cycles
 SCF Done:  E(RB3LYP) =  -2359.38882195     A.U. after   18 cycles
 SCF Done:  E(RB3LYP) =  -2359.39156084     A.U. after   15 cycles
 SCF Done:  E(RB3LYP) =  -2359.39261916     A.U. after   15 cycles
 SCF Done:  E(RB3LYP) =  -2359.39279536     A.U. after   13 cycles
 SCF Done:  E(RB3LYP) =  -2359.39293043     A.U. after   13 cycles
 SCF Done:  E(RB3LYP) =  -2359.39295952     A.U. after   13 cycles
 SCF Done:  E(RB3LYP) =  -2359.39300013     A.U. after   13 cycles
 SCF Done:  E(RB3LYP) =  -2359.39302902     A.U. after   13 cycles
 SCF Done:  E(RB3LYP) =  -2359.39312770     A.U. after   14 cycles
 SCF Done:  E(RB3LYP) =  -2359.39758737     A.U. after   14 cycles
 SCF Done:  E(RB3LYP) =  -2359.39759080     A.U. after   14 cycles
 SCF Done:  E(RB3LYP) =  -2359.39759231     A.U. after   13 cycles
 SCF Done:  E(RB3LYP) =  -2359.39759259     A.U. after   12 cycles
 SCF Done:  E(RB3LYP) =  -2359.39759270     A.U. after   11 cycles
 SCF Done:  E(RB3LYP) =  -2359.39759279     A.U. after   11 cycles
 SCF Done:  E(RB3LYP) =  -2359.39759292     A.U. after   11 cycles
 SCF Done:  E(RB3LYP) =  -2359.39759305     A.U. after   11 cycles
 SCF Done:  E(RB3LYP) =  -2359.39759310     A.U. after   10 cycles
 SCF Done:  E(RB3LYP) =  -2359.39759312     A.U. after   10 cycles
 Optimization completed.
    -- Stationary point found.

                         Standard orientation:
 ---------------------------------------------------------------------
 Center     Atomic      Atomic             Coordinates (Angstroms)
 Number     Number       Type             X           Y           Z
 ---------------------------------------------------------------------
      1          6           0        3.565939   -2.682231    0.340651
      2          6           0        2.810547   -1.478298    0.124834
      3          6           0        3.456697   -0.210518    0.132440
      4          6           0        4.849018   -0.102388    0.350989
      5          6           0        5.645352   -1.282992    0.580556
      6          6           0        1.407070   -1.552683   -0.052774
      7          6           0        2.667777    0.978106   -0.112050
      8          6           0        1.261198    0.871746   -0.340496
      9          6           0        0.623499   -0.433364   -0.237227
     10          6           0        0.539032    2.039868   -0.759453
     11          6           0        2.617873    3.436298   -0.457008
     12          6           0        3.338866    2.228419   -0.154574
     13          6           0        4.748249    2.303275    0.077379
     14          6           0        5.481572    1.180567    0.326871
     15          1           0        6.550335    1.221799    0.498795
     16          1           0        5.205994    3.284583    0.037700
     17          1           0        0.946012   -2.529214    0.033244
     18          7           0        1.254173    3.264122   -0.756034
     19          7           0        4.950236   -2.513700    0.559909
     20          8           0        3.099894   -3.840777    0.348283
     21          8           0        6.876841   -1.275036    0.785801
     22          8           0        3.124916    4.579142   -0.486752
     23          8           0       -0.652995    2.075452   -1.133877
     24          6           0        0.486834    4.441879   -1.144087
     25          1           0        0.115053    4.333880   -2.166951
     26          1           0       -0.383819    4.555036   -0.493226
     27          1           0        1.147976    5.301232   -1.063214
     28          6           0        5.712835   -3.736276    0.782338
     29          1           0        5.322201   -4.272179    1.651625
     30          1           0        5.618665   -4.402808   -0.079418
     31          1           0        6.750155   -3.450296    0.938000
     32          6           0       -0.822568   -0.661133   -0.292099
     33          6           0       -1.495834   -1.508009   -1.151814
     34         16           0       -1.948911    0.091087    0.815398
     35          6           0       -2.891948   -1.532724   -0.941202
     36          1           0       -0.977483   -2.047083   -1.930810
     37          6           0       -3.344731   -0.696779    0.072538
     38          8           0       -3.799156   -2.269380   -1.665637
     39          6           0       -4.697221   -0.430514    0.473150
     40          6           0       -3.295429   -3.036380   -2.743534
     41          6           0       -5.196887    0.596325    1.269718
     42         16           0       -6.043738   -1.482642    0.007746
     43          1           0       -4.157223   -3.536229   -3.188539
     44          1           0       -2.813858   -2.401140   -3.496012
     45          1           0       -2.575970   -3.788462   -2.399420
     46          6           0       -6.595793    0.531597    1.512219
     47          8           0       -4.419499    1.585653    1.830983
     48          6           0       -7.198078   -0.532824    0.904782
     49          1           0       -7.110458    1.266261    2.119406
     50          6           0       -4.120296    2.687822    0.960218
     51          1           0       -8.241827   -0.807331    0.900484
     52          1           0       -5.047672    3.159478    0.610663
     53          1           0       -3.546725    3.398565    1.555920
     54          1           0       -3.511285    2.372644    0.109721
 ---------------------------------------------------------------------

 The electronic state is 1-A.
 Alpha  occ. eigenvalues --  -88.71846 -88.68300 -19.00158 -18.98341 -18.87102
 Alpha  occ. eigenvalues --  -18.86806 -18.86412 -18.86041 -14.14919 -14.14360
 Alpha  occ. eigenvalues --  -10.08234 -10.06402 -10.06392 -10.05759 -10.05563
 Alpha  occ. eigenvalues --  -10.05391 -10.05219 -10.04899 -10.04674 -10.04327
 Alpha  occ. eigenvalues --  -10.02653 -10.02518 -10.02420 -10.00421  -9.99852
 Alpha  occ. eigenvalues --   -9.99028  -9.98044  -9.97975  -9.97776  -9.96372
 Alpha  occ. eigenvalues --   -9.95794  -9.95635  -9.95473  -9.95345  -9.95297
 Alpha  occ. eigenvalues --   -9.95243  -7.80406  -7.76880  -5.76717  -5.76344
 Alpha  occ. eigenvalues --   -5.75964  -5.73212  -5.72818  -5.72404  -0.91455
 Alpha  occ. eigenvalues --   -0.89491  -0.82835  -0.82244  -0.80376  -0.79737
 Alpha  occ. eigenvalues --   -0.72399  -0.71542  -0.70929  -0.69765  -0.66350
 Alpha  occ. eigenvalues --   -0.62164  -0.59903  -0.59116  -0.58654  -0.58156
 Alpha  occ. eigenvalues --   -0.55334  -0.54077  -0.53066  -0.52359  -0.52130
 Alpha  occ. eigenvalues --   -0.50361  -0.49550  -0.47362  -0.43676  -0.42876
 Alpha  occ. eigenvalues --   -0.42134  -0.41753  -0.40234  -0.39783  -0.38300
 Alpha  occ. eigenvalues --   -0.37215  -0.36910  -0.33836  -0.33544  -0.32383
 Alpha  occ. eigenvalues --   -0.31844  -0.31584  -0.30541  -0.30281  -0.29951
 Alpha  occ. eigenvalues --   -0.29469  -0.28530  -0.27100  -0.26951  -0.26429
 Alpha  occ. eigenvalues --   -0.26055  -0.25597  -0.25029  -0.24756  -0.24577
 Alpha  occ. eigenvalues --   -0.23709  -0.22970  -0.22273  -0.22016  -0.21540
 Alpha  occ. eigenvalues --   -0.21065  -0.20706  -0.20516  -0.20318  -0.20129
 Alpha  occ. eigenvalues --   -0.19374  -0.19062  -0.18837  -0.18555  -0.17816
 Alpha  occ. eigenvalues --   -0.17768  -0.17111  -0.17007  -0.16200  -0.16022
 Alpha  occ. eigenvalues --   -0.15689  -0.14802  -0.14548  -0.12228  -0.12012
 Alpha  occ. eigenvalues --   -0.11188  -0.09936  -0.09081  -0.06605  -0.06474
 Alpha  occ. eigenvalues --   -0.06151  -0.05858  -0.05498  -0.04946  -0.04373
 Alpha  occ. eigenvalues --   -0.04143  -0.03395  -0.01572  -0.00450   0.06923
 Alpha virt. eigenvalues --    0.11777   0.12627   0.13387   0.14329   0.15713
 Alpha virt. eigenvalues --    0.16118   0.16340   0.16898   0.16986   0.17211
 Alpha virt. eigenvalues --    0.17370   0.17784   0.18284   0.18470   0.18998

 Mulliken charges:
               1
     1  C    0.266261
     2  C   -0.176757
     3  C    0.083612
     4  C    0.271333
     5  C    0.153420
     6  C   -0.485846
     7  C    0.209273
     8  C    0.076367
     9  C    0.360245
    10  C   -0.363546
    11  C    0.181613
    12  C    0.269149
    13  C   -0.548358
    14  C   -0.631908
    15  H    0.102658
    16  H    0.105485
    17  H    0.119192
    18  N   -0.095464
    19  N   -0.135073
    20  O   -0.433428
    21  O   -0.418247
    22  O   -0.425606
    23  O   -0.341479
    24  C   -0.170072
    25  H    0.135372
    26  H    0.135617
    27  H    0.157801
    28  C   -0.182107
    29  H    0.134287
    30  H    0.131607
    31  H    0.157130
    32  C    0.099186
    33  C   -0.612635
    34  S   -0.203664
    35  C   -0.502845
    36  H    0.107491
    37  C    0.264571
    38  O   -0.118875
    39  C    0.363740
    40  C   -0.244985
    41  C    0.181212
    42  S   -0.341979
    43  H    0.132121
    44  H    0.140170
    45  H    0.140885
    46  C   -0.073071
    47  O   -0.160040
    48  C   -0.162730
    49  H    0.096744
    50  C   -0.321078
    51  H    0.122252
    52  H    0.102450
    53  H    0.140675
    54  H    0.207873
 Sum of Mulliken charges =  -2.00000

 Dipole moment (field-independent basis, Debye):
    X=            -16.7842    Y=             -2.4354    Z=             -2.3529  Tot=             17.1224
 Quadrupole moment (field-independent basis, Debye-Ang):
   XX=           -423.1308   YY=           -307.2922   ZZ=           -238.5229
   XY=             -5.3456   XZ=             -1.1368   YZ=             15.0346

 Normal termination of Gaussian 16 at Fri Oct  8 12:19:17 2021.
