 Gaussian 16, Revision C.01,
 Gaussian 16:  ES64L-G16RevC.01  3-Jul-2019

 -------------------------------------
 # opt=modredundant b3lyp/6-311+g(d,p)
 -------------------------------------

 -----------
 NDI_150.pdb
 -----------
 Symbolic Z-matrix:
 Charge = -2 Multiplicity = 1

 SCF Done:  E(RB3LYP) =  -2359.35848952     A.U. after   23 cycles
 SCF Done:  E(RB3LYP) =  -2359.37712445     A.U. after   21 cycles
 SCF Done:  E(RB3LYP) =  -2359.38779787     A.U. after   17 cycles
 SCF Done:  E(RB3LYP) =  -2359.39206438     A.U. after   17 cycles
 SCF Done:  E(RB3LYP) =  -2359.39321864     A.U. after   16 cycles
 SCF Done:  E(RB3LYP) =  -2359.39419062     A.U. after   14 cycles
 SCF Done:  E(RB3LYP) =  -2359.39446425     A.U. after   15 cycles
 SCF Done:  E(RB3LYP) =  -2359.39457564     A.U. after   15 cycles
 SCF Done:  E(RB3LYP) =  -2359.39470199     A.U. after   13 cycles
 SCF Done:  E(RB3LYP) =  -2359.39475380     A.U. after   14 cycles
 SCF Done:  E(RB3LYP) =  -2359.39912870     A.U. after   12 cycles
 SCF Done:  E(RB3LYP) =  -2359.39912959     A.U. after   12 cycles
 SCF Done:  E(RB3LYP) =  -2359.39913094     A.U. after   11 cycles
 SCF Done:  E(RB3LYP) =  -2359.39913105     A.U. after   10 cycles
 SCF Done:  E(RB3LYP) =  -2359.39913110     A.U. after   10 cycles
 SCF Done:  E(RB3LYP) =  -2359.39913114     A.U. after    9 cycles
 SCF Done:  E(RB3LYP) =  -2359.39913121     A.U. after   10 cycles
 SCF Done:  E(RB3LYP) =  -2359.39913128     A.U. after    9 cycles
 SCF Done:  E(RB3LYP) =  -2359.39913133     A.U. after    9 cycles
 SCF Done:  E(RB3LYP) =  -2359.39913136     A.U. after    9 cycles
 Optimization completed.
    -- Stationary point found.

                         Standard orientation:
 ---------------------------------------------------------------------
 Center     Atomic      Atomic             Coordinates (Angstroms)
 Number     Number       Type             X           Y           Z
 ---------------------------------------------------------------------
      1          6           0        3.511086   -2.694708    0.185573
      2          6           0        2.780556   -1.467536    0.003555
      3          6           0        3.439959   -0.210590    0.118759
      4          6           0        4.818704   -0.135714    0.409959
      5          6           0        5.590897   -1.341654    0.603590
      6          6           0        1.388905   -1.512540   -0.221425
      7          6           0        2.671956    0.997071   -0.088198
      8          6           0        1.276960    0.922100   -0.391218
      9          6           0        0.612331   -0.378164   -0.386227
     10          6           0        0.613076    2.117600   -0.829731
     11          6           0        2.670809    3.472911   -0.295723
     12          6           0        3.360015    2.237674   -0.023134
     13          6           0        4.754199    2.280389    0.283920
     14          6           0        5.465544    1.135711    0.499631
     15          1           0        6.524394    1.153245    0.726987
     16          1           0        5.221765    3.256904    0.327646
     17          1           0        0.921485   -2.487627   -0.172397
     18          7           0        1.331920    3.334724   -0.694563
     19          7           0        4.885600   -2.559470    0.475313
     20          8           0        3.030890   -3.843289    0.106675
     21          8           0        6.809533   -1.361324    0.866131
     22          8           0        3.190848    4.607107   -0.223269
     23          8           0       -0.529603    2.185156   -1.328008
     24          6           0        0.606281    4.540122   -1.078611
     25          1           0        0.370475    4.522304   -2.146943
     26          1           0       -0.341174    4.592350   -0.538012
     27          1           0        1.241322    5.390906   -0.844045
     28          6           0        5.623875   -3.803708    0.658198
     29          1           0        5.198713   -4.377783    1.485964
     30          1           0        5.547993   -4.422417   -0.239877
     31          1           0        6.659258   -3.542597    0.862283
     32          6           0       -0.828104   -0.602293   -0.402350
     33          6           0       -1.482342   -1.696362   -0.961924
     34         16           0       -1.975440    0.380204    0.483813
     35          6           0       -2.860242   -1.733889   -0.689129
     36          1           0       -0.958642   -2.418291   -1.570370
     37          6           0       -3.337377   -0.675563    0.081856
     38          8           0       -3.743218   -2.685514   -1.145449
     39          6           0       -4.689875   -0.376889    0.444218
     40          6           0       -3.212607   -3.736338   -1.930354
     41          6           0       -5.215084    0.759832    1.058304
     42         16           0       -6.016311   -1.524777    0.177079
     43          1           0       -4.053672   -4.387080   -2.175141
     44          1           0       -2.763941   -3.357934   -2.856588
     45          1           0       -2.457459   -4.307833   -1.378311
     46          6           0       -6.610603    0.707106    1.316035
     47          8           0       -4.450210    1.840006    1.447574
     48          6           0       -7.192018   -0.457655    0.902978
     49          1           0       -7.139521    1.520191    1.798783
     50          6           0       -4.285121    2.853802    0.447981
     51          1           0       -8.226876   -0.757517    0.964729
     52          1           0       -5.260591    3.252570    0.139793
     53          1           0       -3.691453    3.644500    0.908040
     54          1           0       -3.743313    2.471057   -0.420479
 ---------------------------------------------------------------------

 The electronic state is 1-A.
 Alpha  occ. eigenvalues --  -88.71292 -88.67881 -18.99791 -18.98016 -18.87721
 Alpha  occ. eigenvalues --  -18.87394 -18.86673 -18.86141 -14.15413 -14.14498
 Alpha  occ. eigenvalues --  -10.07923 -10.06169 -10.05913 -10.05800 -10.05780
 Alpha  occ. eigenvalues --  -10.05709 -10.05164 -10.04948 -10.04807 -10.03698
 Alpha  occ. eigenvalues --  -10.02190 -10.02129 -10.01954 -10.00847  -9.99959
 Alpha  occ. eigenvalues --   -9.98601  -9.98319  -9.98281  -9.98058  -9.96834
 Alpha  occ. eigenvalues --   -9.96166  -9.95935  -9.95892  -9.95725  -9.95623
 Alpha  occ. eigenvalues --   -9.95592  -7.79845  -7.76438  -5.76159  -5.75787
 Alpha  occ. eigenvalues --   -5.75398  -5.72773  -5.72377  -5.71960  -0.91083
 Alpha  occ. eigenvalues --   -0.89164  -0.83451  -0.82472  -0.81028  -0.79980
 Alpha  occ. eigenvalues --   -0.72095  -0.71829  -0.71117  -0.69328  -0.66656
 Alpha  occ. eigenvalues --   -0.62254  -0.59866  -0.59291  -0.58282  -0.57734
 Alpha  occ. eigenvalues --   -0.55393  -0.53793  -0.53369  -0.52520  -0.52033
 Alpha  occ. eigenvalues --   -0.50241  -0.49745  -0.47568  -0.43730  -0.42735
 Alpha  occ. eigenvalues --   -0.42360  -0.41788  -0.40384  -0.39736  -0.37978
 Alpha  occ. eigenvalues --   -0.37243  -0.36505  -0.34130  -0.33798  -0.32057
 Alpha  occ. eigenvalues --   -0.31908  -0.31504  -0.30381  -0.30056  -0.29826
 Alpha  occ. eigenvalues --   -0.29224  -0.28223  -0.27424  -0.27260  -0.26590
 Alpha  occ. eigenvalues --   -0.26155  -0.25388  -0.25256  -0.24921  -0.24590
 Alpha  occ. eigenvalues --   -0.23415  -0.23137  -0.22497  -0.21943  -0.21452
 Alpha  occ. eigenvalues --   -0.21185  -0.20876  -0.20795  -0.20387  -0.19891
 Alpha  occ. eigenvalues --   -0.19564  -0.19182  -0.18753  -0.18610  -0.18152
 Alpha  occ. eigenvalues --   -0.17889  -0.17574  -0.16714  -0.16452  -0.16127
 Alpha  occ. eigenvalues --   -0.15382  -0.14796  -0.14719  -0.12405  -0.11746
 Alpha  occ. eigenvalues --   -0.11574  -0.09760  -0.08753  -0.07004  -0.06867
 Alpha  occ. eigenvalues --   -0.06425  -0.06063  -0.05694  -0.05090  -0.04667
 Alpha  occ. eigenvalues --   -0.04571  -0.03347  -0.01650  -0.00146   0.06589
 Alpha virt. eigenvalues --    0.12105   0.12863   0.13617   0.14519   0.15815
 Alpha virt. eigenvalues --    0.15897   0.16524   0.16730   0.16887   0.17374
 Alpha virt. eigenvalues --    0.17468   0.17959   0.18594   0.18747   0.19014

 Mulliken charges:
               1
     1  C    0.222347
     2  C   -0.070873
     3  C    0.112242
     4  C    0.344781
     5  C    0.150060
     6  C   -0.145818
     7  C    0.205724
     8  C    0.070364
     9  C   -0.000323
    10  C   -0.460228
    11  C    0.257099
    12  C    0.255739
    13  C   -0.463987
    14  C   -0.634634
    15  H    0.103209
    16  H    0.107025
    17  H    0.124680
    18  N   -0.052794
    19  N   -0.137579
    20  O   -0.430467
    21  O   -0.408637
    22  O   -0.422161
    23  O   -0.349496
    24  C   -0.160933
    25  H    0.134946
    26  H    0.138910
    27  H    0.156676
    28  C   -0.179879
    29  H    0.135166
    30  H    0.133360
    31  H    0.157349
    32  C   -0.351348
    33  C   -0.117951
    34  S   -0.563986
    35  C   -0.401395
    36  H    0.116532
    37  C    0.238677
    38  O   -0.124434
    39  C    0.457415
    40  C   -0.230890
    41  C    0.049763
    42  S   -0.335810
    43  H    0.132071
    44  H    0.134755
    45  H    0.143642
    46  C   -0.042516
    47  O   -0.147830
    48  C   -0.200578
    49  H    0.094005
    50  C   -0.303483
    51  H    0.119949
    52  H    0.101274
    53  H    0.142311
    54  H    0.197956
 Sum of Mulliken charges =  -2.00000

 Dipole moment (field-independent basis, Debye):
    X=            -15.0669    Y=             -3.0329    Z=             -1.9137  Tot=             15.4878
 Quadrupole moment (field-independent basis, Debye-Ang):
   XX=           -421.6025   YY=           -304.3169   ZZ=           -241.3993
   XY=             -5.8565   XZ=             -3.3466   YZ=              9.8832

 Normal termination of Gaussian 16 at Fri Oct  8 19:32:16 2021.
