 Gaussian 16, Revision C.01,
 Gaussian 16:  ES64L-G16RevC.01  3-Jul-2019

 -------------------------------------
 # opt=modredundant b3lyp/6-311+g(d,p)
 -------------------------------------

 -----------
 NDI_-75.pdb
 -----------
 Symbolic Z-matrix:
 Charge = -2 Multiplicity = 1

 SCF Done:  E(RB3LYP) =  -2359.37301430     A.U. after   24 cycles
 SCF Done:  E(RB3LYP) =  -2359.38997237     A.U. after   16 cycles
 SCF Done:  E(RB3LYP) =  -2359.39237067     A.U. after   15 cycles
 SCF Done:  E(RB3LYP) =  -2359.39236207     A.U. after   14 cycles
 SCF Done:  E(RB3LYP) =  -2359.39264084     A.U. after   13 cycles
 SCF Done:  E(RB3LYP) =  -2359.39266739     A.U. after   13 cycles
 SCF Done:  E(RB3LYP) =  -2359.39267840     A.U. after   13 cycles
 SCF Done:  E(RB3LYP) =  -2359.39268607     A.U. after   13 cycles
 SCF Done:  E(RB3LYP) =  -2359.39269540     A.U. after   13 cycles
 SCF Done:  E(RB3LYP) =  -2359.39270149     A.U. after   12 cycles
 SCF Done:  E(RB3LYP) =  -2359.39559972     A.U. after   12 cycles
 SCF Done:  E(RB3LYP) =  -2359.39560374     A.U. after   13 cycles
 SCF Done:  E(RB3LYP) =  -2359.39560839     A.U. after   12 cycles
 SCF Done:  E(RB3LYP) =  -2359.39561166     A.U. after   12 cycles
 SCF Done:  E(RB3LYP) =  -2359.39561241     A.U. after   12 cycles
 SCF Done:  E(RB3LYP) =  -2359.39561277     A.U. after   11 cycles
 SCF Done:  E(RB3LYP) =  -2359.39561289     A.U. after   10 cycles
 SCF Done:  E(RB3LYP) =  -2359.39561295     A.U. after   10 cycles
 SCF Done:  E(RB3LYP) =  -2359.39561298     A.U. after   10 cycles
 SCF Done:  E(RB3LYP) =  -2359.39561300     A.U. after    9 cycles
 Optimization completed.
    -- Stationary point found.

                         Standard orientation:
 ---------------------------------------------------------------------
 Center     Atomic      Atomic             Coordinates (Angstroms)
 Number     Number       Type             X           Y           Z
 ---------------------------------------------------------------------
      1          6           0        2.773231   -2.873421    0.545171
      2          6           0        2.370567   -1.512520    0.317420
      3          6           0        3.343201   -0.507713    0.060781
      4          6           0        4.721915   -0.820118    0.010447
      5          6           0        5.171428   -2.171665    0.228909
      6          6           0        0.994286   -1.171262    0.359864
      7          6           0        2.902197    0.853337   -0.157164
      8          6           0        1.511973    1.174034   -0.095594
      9          6           0        0.552735    0.125168    0.213867
     10          6           0        1.096200    2.525624   -0.344365
     11          6           0        3.501397    3.203230   -0.688088
     12          6           0        3.883729    1.839856   -0.439851
     13          6           0        5.270577    1.488721   -0.486512
     14          6           0        5.679814    0.206837   -0.265906
     15          1           0        6.725957   -0.072852   -0.298223
     16          1           0        5.975999    2.281458   -0.705653
     17          1           0        0.291223   -1.967909    0.569622
     18          7           0        2.117507    3.459997   -0.642603
     19          7           0        4.160484   -3.126991    0.483874
     20          8           0        2.004457   -3.827840    0.786467
     21          8           0        6.367347   -2.532204    0.206158
     22          8           0        4.299644    4.133976   -0.936500
     23          8           0       -0.080861    2.946486   -0.328681
     24          6           0        1.666707    4.820899   -0.909652
     25          1           0        0.924501    4.817448   -1.711123
     26          1           0        1.185109    5.246357   -0.023827
     27          1           0        2.541836    5.405016   -1.183732
     28          6           0        4.564854   -4.509063    0.711505
     29          1           0        4.249918   -4.837600    1.706055
     30          1           0        4.082074   -5.167396   -0.015602
     31          1           0        5.647082   -4.552297    0.616421
     32          6           0       -0.897804    0.355153    0.330932
     33          6           0       -1.614361    0.951878    1.345083
     34         16           0       -1.984835   -0.465681   -0.767199
     35          6           0       -3.008390    0.782903    1.227952
     36          1           0       -1.124476    1.513283    2.125897
     37          6           0       -3.422647    0.013608    0.144178
     38          8           0       -3.948583    1.278205    2.099337
     39          6           0       -4.756626   -0.354689   -0.230535
     40          6           0       -3.511301    2.259572    3.025126
     41          6           0       -5.182701   -1.251755   -1.205615
     42         16           0       -6.187968    0.368333    0.522972
     43          1           0       -4.408568    2.620693    3.530395
     44          1           0       -2.826873    1.832690    3.767708
     45          1           0       -3.011946    3.090069    2.515213
     46          6           0       -6.592116   -1.343874   -1.358752
     47          8           0       -4.314055   -1.965614   -2.006396
     48          6           0       -7.276588   -0.532079   -0.500397
     49          1           0       -7.055205   -1.993124   -2.091903
     50          6           0       -3.937035   -3.241746   -1.482727
     51          1           0       -8.343280   -0.408502   -0.392649
     52          1           0       -4.810412   -3.901970   -1.400911
     53          1           0       -3.218774   -3.666249   -2.184926
     54          1           0       -3.460322   -3.142171   -0.503562
 ---------------------------------------------------------------------

 The electronic state is 1-A.
 Alpha  occ. eigenvalues --  -88.72091 -88.68991 -19.00130 -18.99121 -18.86829
 Alpha  occ. eigenvalues --  -18.86570 -18.86315 -18.85986 -14.14709 -14.14335
 Alpha  occ. eigenvalues --  -10.08026 -10.07144 -10.06709 -10.06515 -10.05768
 Alpha  occ. eigenvalues --  -10.05295 -10.04988 -10.04789 -10.04641 -10.04554
 Alpha  occ. eigenvalues --  -10.03008 -10.02758 -10.02728 -10.00229  -9.99814
 Alpha  occ. eigenvalues --   -9.98979  -9.97945  -9.97865  -9.97838  -9.96215
 Alpha  occ. eigenvalues --   -9.95813  -9.95401  -9.95313  -9.95195  -9.95158
 Alpha  occ. eigenvalues --   -9.95098  -7.80645  -7.77556  -5.76957  -5.76584
 Alpha  occ. eigenvalues --   -5.76201  -5.73884  -5.73486  -5.73099  -0.91411
 Alpha  occ. eigenvalues --   -0.90351  -0.82577  -0.82173  -0.80107  -0.79650
 Alpha  occ. eigenvalues --   -0.72711  -0.71310  -0.70873  -0.70047  -0.66244
 Alpha  occ. eigenvalues --   -0.62156  -0.60018  -0.59155  -0.59014  -0.58281
 Alpha  occ. eigenvalues --   -0.55299  -0.54459  -0.53031  -0.52788  -0.52068
 Alpha  occ. eigenvalues --   -0.50474  -0.49465  -0.47218  -0.43958  -0.42946
 Alpha  occ. eigenvalues --   -0.42031  -0.41741  -0.40308  -0.39704  -0.38862
 Alpha  occ. eigenvalues --   -0.37307  -0.37044  -0.33740  -0.33434  -0.32262
 Alpha  occ. eigenvalues --   -0.31966  -0.31592  -0.31268  -0.31142  -0.30144
 Alpha  occ. eigenvalues --   -0.29624  -0.29034  -0.26933  -0.26742  -0.26427
 Alpha  occ. eigenvalues --   -0.26320  -0.25804  -0.24921  -0.24857  -0.24447
 Alpha  occ. eigenvalues --   -0.23886  -0.23004  -0.22313  -0.22189  -0.21549
 Alpha  occ. eigenvalues --   -0.20906  -0.20802  -0.20559  -0.20319  -0.20078
 Alpha  occ. eigenvalues --   -0.19509  -0.19152  -0.18749  -0.18597  -0.17774
 Alpha  occ. eigenvalues --   -0.17675  -0.17215  -0.16924  -0.16368  -0.16031
 Alpha  occ. eigenvalues --   -0.15564  -0.14676  -0.14585  -0.12823  -0.11946
 Alpha  occ. eigenvalues --   -0.11229  -0.10073  -0.09497  -0.06618  -0.06377
 Alpha  occ. eigenvalues --   -0.06102  -0.05730  -0.05405  -0.05082  -0.04186
 Alpha  occ. eigenvalues --   -0.03967  -0.03447  -0.01552  -0.00463   0.07089
 Alpha virt. eigenvalues --    0.11581   0.12425   0.13419   0.13973   0.15367
 Alpha virt. eigenvalues --    0.16139   0.16346   0.16804   0.16902   0.17127
 Alpha virt. eigenvalues --    0.17201   0.17712   0.18205   0.18232   0.18536

 Mulliken charges:
               1
     1  C    0.315116
     2  C   -0.079514
     3  C    0.061171
     4  C    0.221236
     5  C    0.130596
     6  C   -0.806212
     7  C    0.201711
     8  C    0.077809
     9  C    0.683281
    10  C   -0.385931
    11  C    0.197549
    12  C    0.180094
    13  C   -0.555548
    14  C   -0.638051
    15  H    0.102005
    16  H    0.104440
    17  H    0.129233
    18  N   -0.158256
    19  N   -0.137069
    20  O   -0.433648
    21  O   -0.420016
    22  O   -0.427072
    23  O   -0.288537
    24  C   -0.197640
    25  H    0.139753
    26  H    0.128805
    27  H    0.158454
    28  C   -0.180142
    29  H    0.131624
    30  H    0.133767
    31  H    0.157216
    32  C    0.007622
    33  C   -0.389834
    34  S   -0.368104
    35  C   -0.486162
    36  H    0.101836
    37  C    0.461315
    38  O   -0.130974
    39  C    0.408712
    40  C   -0.265093
    41  C    0.178986
    42  S   -0.357372
    43  H    0.130490
    44  H    0.129857
    45  H    0.163526
    46  C   -0.147315
    47  O   -0.136159
    48  C   -0.177549
    49  H    0.096357
    50  C   -0.317544
    51  H    0.122499
    52  H    0.106949
    53  H    0.150245
    54  H    0.171486
 Sum of Mulliken charges =  -2.00000

 Dipole moment (field-independent basis, Debye):
    X=            -17.6822    Y=             -0.8339    Z=              2.6764  Tot=             17.9031
 Quadrupole moment (field-independent basis, Debye-Ang):
   XX=           -424.0692   YY=           -309.9896   ZZ=           -236.5946
   XY=              1.5178   XZ=             -1.3951   YZ=             20.1083

 Normal termination of Gaussian 16 at Thu Oct  7 20:16:37 2021.
