 Gaussian 16, Revision C.01,
 Gaussian 16:  ES64L-G16RevC.01  3-Jul-2019

 -------------------------------------
 # opt=modredundant b3lyp/6-311+g(d,p)
 -------------------------------------

 -----------
 NDI_-60.pdb
 -----------
 Symbolic Z-matrix:
 Charge = -2 Multiplicity = 1

 SCF Done:  E(RB3LYP) =  -2359.37771555     A.U. after   23 cycles
 SCF Done:  E(RB3LYP) =  -2359.39306781     A.U. after   17 cycles
 SCF Done:  E(RB3LYP) =  -2359.39507903     A.U. after   15 cycles
 SCF Done:  E(RB3LYP) =  -2359.39503630     A.U. after   14 cycles
 SCF Done:  E(RB3LYP) =  -2359.39538306     A.U. after   13 cycles
 SCF Done:  E(RB3LYP) =  -2359.39540727     A.U. after   13 cycles
 SCF Done:  E(RB3LYP) =  -2359.39541597     A.U. after   12 cycles
 SCF Done:  E(RB3LYP) =  -2359.39542389     A.U. after   11 cycles
 SCF Done:  E(RB3LYP) =  -2359.39543293     A.U. after   12 cycles
 SCF Done:  E(RB3LYP) =  -2359.39551267     A.U. after   13 cycles
 SCF Done:  E(RB3LYP) =  -2359.39869506     A.U. after   12 cycles
 SCF Done:  E(RB3LYP) =  -2359.39869582     A.U. after   12 cycles
 SCF Done:  E(RB3LYP) =  -2359.39869638     A.U. after   12 cycles
 SCF Done:  E(RB3LYP) =  -2359.39869645     A.U. after   11 cycles
 SCF Done:  E(RB3LYP) =  -2359.39869649     A.U. after   10 cycles
 SCF Done:  E(RB3LYP) =  -2359.39869652     A.U. after    9 cycles
 SCF Done:  E(RB3LYP) =  -2359.39869656     A.U. after    9 cycles
 SCF Done:  E(RB3LYP) =  -2359.39869661     A.U. after    9 cycles
 SCF Done:  E(RB3LYP) =  -2359.39869664     A.U. after    9 cycles
 SCF Done:  E(RB3LYP) =  -2359.39869666     A.U. after    9 cycles
 Optimization completed.
    -- Stationary point found.

                         Standard orientation:
 ---------------------------------------------------------------------
 Center     Atomic      Atomic             Coordinates (Angstroms)
 Number     Number       Type             X           Y           Z
 ---------------------------------------------------------------------
      1          6           0        2.656022   -2.920119    0.449397
      2          6           0        2.307423   -1.540471    0.235274
      3          6           0        3.322050   -0.558633    0.061715
      4          6           0        4.689774   -0.913597    0.079567
      5          6           0        5.085880   -2.286090    0.283652
      6          6           0        0.946108   -1.158749    0.222292
      7          6           0        2.931329    0.820033   -0.140434
      8          6           0        1.548329    1.184006   -0.148944
      9          6           0        0.540613    0.154697    0.086000
     10          6           0        1.195915    2.550812   -0.417631
     11          6           0        3.639117    3.159994   -0.581159
     12          6           0        3.960021    1.778445   -0.342293
     13          6           0        5.334929    1.385807   -0.319734
     14          6           0        5.693712    0.086596   -0.112067
     15          1           0        6.730894   -0.225320   -0.093124
     16          1           0        6.074073    2.162175   -0.477489
     17          1           0        0.215155   -1.938481    0.394650
     18          7           0        2.266360    3.458765   -0.622015
     19          7           0        4.036009   -3.216159    0.455506
     20          8           0        1.847441   -3.854098    0.624238
     21          8           0        6.269461   -2.680798    0.315810
     22          8           0        4.482519    4.067098   -0.754617
     23          8           0        0.038229    3.014638   -0.496168
     24          6           0        1.876416    4.836675   -0.898566
     25          1           0        1.213217    4.871257   -1.766035
     26          1           0        1.324033    5.255107   -0.051941
     27          1           0        2.787692    5.402239   -1.076880
     28          6           0        4.385874   -4.615891    0.666288
     29          1           0        4.009937   -4.959163    1.634211
     30          1           0        3.921768   -5.239462   -0.102238
     31          1           0        5.469676   -4.691444    0.625851
     32          6           0       -0.898583    0.413421    0.177995
     33          6           0       -1.600080    1.214136    1.058504
     34         16           0       -2.014219   -0.584716   -0.738003
     35          6           0       -2.993189    1.034817    0.998841
     36          1           0       -1.097029    1.922498    1.697069
     37          6           0       -3.433353    0.071813    0.091988
     38          8           0       -3.916278    1.700992    1.768577
     39          6           0       -4.773198   -0.348933   -0.183800
     40          6           0       -3.449726    2.820188    2.504443
     41          6           0       -5.223247   -1.402371   -0.977121
     42         16           0       -6.188741    0.502080    0.461879
     43          1           0       -4.334955    3.285811    2.940845
     44          1           0       -2.769187    2.514714    3.308074
     45          1           0       -2.934596    3.534898    1.854350
     46          6           0       -6.635114   -1.513927   -1.079400
     47          8           0       -4.372351   -2.249715   -1.659279
     48          6           0       -7.301231   -0.561398   -0.362243
     49          1           0       -7.114672   -2.280157   -1.676644
     50          6           0       -3.994331   -3.421591   -0.932569
     51          1           0       -8.365195   -0.416102   -0.254989
     52          1           0       -4.869576   -4.052915   -0.729975
     53          1           0       -3.286466   -3.963323   -1.560855
     54          1           0       -3.504917   -3.161357    0.010191
 ---------------------------------------------------------------------

 The electronic state is 1-A.
 Alpha  occ. eigenvalues --  -88.71701 -88.68648 -18.99795 -18.98784 -18.87278
 Alpha  occ. eigenvalues --  -18.86962 -18.86549 -18.86074 -14.15056 -14.14503
 Alpha  occ. eigenvalues --  -10.07658 -10.06827 -10.06279 -10.06179 -10.05736
 Alpha  occ. eigenvalues --  -10.05405 -10.05387 -10.05022 -10.04834 -10.04135
 Alpha  occ. eigenvalues --  -10.02661 -10.02385 -10.02357 -10.00522  -9.99967
 Alpha  occ. eigenvalues --   -9.98549  -9.98219  -9.98108  -9.98090  -9.96492
 Alpha  occ. eigenvalues --   -9.96026  -9.95800  -9.95630  -9.95483  -9.95441
 Alpha  occ. eigenvalues --   -9.95376  -7.80252  -7.77212  -5.76566  -5.76193
 Alpha  occ. eigenvalues --   -5.75805  -5.73542  -5.73150  -5.72747  -0.91075
 Alpha  occ. eigenvalues --   -0.89988  -0.83021  -0.82391  -0.80573  -0.79867
 Alpha  occ. eigenvalues --   -0.72298  -0.71706  -0.71044  -0.69685  -0.66473
 Alpha  occ. eigenvalues --   -0.62178  -0.59942  -0.59216  -0.58782  -0.57969
 Alpha  occ. eigenvalues --   -0.55219  -0.54341  -0.53019  -0.52717  -0.52277
 Alpha  occ. eigenvalues --   -0.50334  -0.49673  -0.47382  -0.43934  -0.42782
 Alpha  occ. eigenvalues --   -0.42258  -0.41812  -0.40341  -0.39787  -0.38505
 Alpha  occ. eigenvalues --   -0.37206  -0.36765  -0.33962  -0.33637  -0.31894
 Alpha  occ. eigenvalues --   -0.31767  -0.31443  -0.31030  -0.30932  -0.30129
 Alpha  occ. eigenvalues --   -0.29406  -0.28793  -0.27087  -0.27000  -0.26535
 Alpha  occ. eigenvalues --   -0.26293  -0.25678  -0.25102  -0.24710  -0.24668
 Alpha  occ. eigenvalues --   -0.23564  -0.23081  -0.22296  -0.22265  -0.21583
 Alpha  occ. eigenvalues --   -0.20946  -0.20786  -0.20616  -0.20362  -0.20158
 Alpha  occ. eigenvalues --   -0.19448  -0.19179  -0.18971  -0.18722  -0.17979
 Alpha  occ. eigenvalues --   -0.17889  -0.17279  -0.16987  -0.16308  -0.16046
 Alpha  occ. eigenvalues --   -0.15403  -0.14916  -0.14819  -0.12574  -0.12112
 Alpha  occ. eigenvalues --   -0.11332  -0.10049  -0.09176  -0.06777  -0.06634
 Alpha  occ. eigenvalues --   -0.06230  -0.06038  -0.05421  -0.05357  -0.04461
 Alpha  occ. eigenvalues --   -0.04297  -0.03479  -0.01527  -0.00427   0.06805
 Alpha virt. eigenvalues --    0.11809   0.12626   0.13661   0.14206   0.15601
 Alpha virt. eigenvalues --    0.16026   0.16544   0.16838   0.16975   0.17020
 Alpha virt. eigenvalues --    0.17219   0.17808   0.18353   0.18484   0.18778

 Mulliken charges:
               1
     1  C    0.281153
     2  C   -0.111343
     3  C    0.049973
     4  C    0.227111
     5  C    0.124469
     6  C   -0.721013
     7  C    0.212530
     8  C    0.129814
     9  C    0.575259
    10  C   -0.341698
    11  C    0.252972
    12  C    0.151330
    13  C   -0.546722
    14  C   -0.629557
    15  H    0.102642
    16  H    0.105977
    17  H    0.143036
    18  N   -0.147081
    19  N   -0.136951
    20  O   -0.429348
    21  O   -0.413804
    22  O   -0.423557
    23  O   -0.321554
    24  C   -0.187508
    25  H    0.140024
    26  H    0.129410
    27  H    0.158109
    28  C   -0.179692
    29  H    0.132750
    30  H    0.134628
    31  H    0.157387
    32  C   -0.002910
    33  C   -0.319138
    34  S   -0.486259
    35  C   -0.554620
    36  H    0.116973
    37  C    0.459505
    38  O   -0.125794
    39  C    0.475912
    40  C   -0.265703
    41  C    0.126676
    42  S   -0.356217
    43  H    0.129544
    44  H    0.129027
    45  H    0.165375
    46  C   -0.125392
    47  O   -0.135612
    48  C   -0.184084
    49  H    0.094877
    50  C   -0.310218
    51  H    0.121126
    52  H    0.106285
    53  H    0.151044
    54  H    0.170857
 Sum of Mulliken charges =  -2.00000

 Dipole moment (field-independent basis, Debye):
    X=            -16.3991    Y=             -0.3741    Z=              2.6014  Tot=             16.6084
 Quadrupole moment (field-independent basis, Debye-Ang):
   XX=           -425.8581   YY=           -308.1989   ZZ=           -237.6439
   XY=             -0.5704   XZ=             -4.0246   YZ=             16.7602

 Normal termination of Gaussian 16 at Fri Oct  8 11:52:40 2021.
