 Gaussian 16, Revision C.01,
 Gaussian 16:  ES64L-G16RevC.01  3-Jul-2019

 -------------------------------------
 # opt=modredundant b3lyp/6-311+g(d,p)
 -------------------------------------

 ----------
 NDI_20.pdb
 ----------
 Symbolic Z-matrix:
 Charge = -2 Multiplicity = 1

 SCF Done:  E(RB3LYP) =  -2359.36634089     A.U. after   22 cycles
 SCF Done:  E(RB3LYP) =  -2359.37208579     A.U. after   20 cycles
 SCF Done:  E(RB3LYP) =  -2359.38993540     A.U. after   18 cycles
 SCF Done:  E(RB3LYP) =  -2359.39310068     A.U. after   17 cycles
 SCF Done:  E(RB3LYP) =  -2359.39394984     A.U. after   14 cycles
 SCF Done:  E(RB3LYP) =  -2359.39401087     A.U. after   14 cycles
 SCF Done:  E(RB3LYP) =  -2359.39424906     A.U. after   13 cycles
 SCF Done:  E(RB3LYP) =  -2359.39423556     A.U. after   13 cycles
 SCF Done:  E(RB3LYP) =  -2359.39483362     A.U. after   18 cycles
 SCF Done:  E(RB3LYP) =  -2359.39513870     A.U. after   18 cycles
 SCF Done:  E(RB3LYP) =  -2359.40098289     A.U. after   13 cycles
 SCF Done:  E(RB3LYP) =  -2359.40103142     A.U. after   14 cycles
 SCF Done:  E(RB3LYP) =  -2359.40104344     A.U. after   12 cycles
 SCF Done:  E(RB3LYP) =  -2359.40104913     A.U. after   13 cycles
 SCF Done:  E(RB3LYP) =  -2359.40105128     A.U. after   12 cycles
 SCF Done:  E(RB3LYP) =  -2359.40105233     A.U. after   12 cycles
 SCF Done:  E(RB3LYP) =  -2359.40105258     A.U. after   10 cycles
 SCF Done:  E(RB3LYP) =  -2359.40105292     A.U. after   10 cycles
 SCF Done:  E(RB3LYP) =  -2359.40105307     A.U. after   10 cycles
 SCF Done:  E(RB3LYP) =  -2359.40105310     A.U. after    9 cycles
 Optimization completed.
    -- Stationary point found.

                         Standard orientation:
 ---------------------------------------------------------------------
 Center     Atomic      Atomic             Coordinates (Angstroms)
 Number     Number       Type             X           Y           Z
 ---------------------------------------------------------------------
      1          6           0       -2.622458   -2.992187   -0.010738
      2          6           0       -2.292845   -1.590796   -0.091751
      3          6           0       -3.307389   -0.599973    0.043209
      4          6           0       -4.653545   -0.964749    0.251098
      5          6           0       -5.030941   -2.358943    0.333153
      6          6           0       -0.947035   -1.202149   -0.212668
      7          6           0       -2.930683    0.793581   -0.049601
      8          6           0       -1.564932    1.166003   -0.264906
      9          6           0       -0.530366    0.119920   -0.265820
     10          6           0       -1.292984    2.534617   -0.608720
     11          6           0       -3.687479    3.160435   -0.116619
     12          6           0       -3.970935    1.757856    0.041270
     13          6           0       -5.322691    1.357310    0.265107
     14          6           0       -5.661466    0.039917    0.372042
     15          1           0       -6.683497   -0.279333    0.534576
     16          1           0       -6.065261    2.143298    0.334480
     17          1           0       -0.217412   -2.001867   -0.176376
     18          7           0       -2.360280    3.462134   -0.451086
     19          7           0       -3.986038   -3.296954    0.188206
     20          8           0       -1.811702   -3.933106   -0.099960
     21          8           0       -6.196258   -2.759060    0.517601
     22          8           0       -4.532995    4.074245   -0.002810
     23          8           0       -0.216265    2.998768   -1.042121
     24          6           0       -2.031617    4.853191   -0.741723
     25          1           0       -1.192995    5.179694   -0.121656
     26          1           0       -1.723823    4.962619   -1.785267
     27          1           0       -2.920362    5.445583   -0.538409
     28          6           0       -4.318591   -4.715198    0.260516
     29          1           0       -3.977918   -5.225719   -0.643457
     30          1           0       -3.811280   -5.182107    1.109547
     31          1           0       -5.397274   -4.793584    0.370165
     32          6           0        0.891730    0.359762   -0.101676
     33          6           0        1.553575    1.452543    0.438571
     34         16           0        2.082168   -0.854691   -0.602348
     35          6           0        2.947638    1.301085    0.501338
     36          1           0        1.024894    2.336175    0.748419
     37          6           0        3.448710    0.098885    0.005661
     38          8           0        3.821787    2.228470    1.011342
     39          6           0        4.802033   -0.353700   -0.039830
     40          6           0        3.283901    3.493119    1.367051
     41          6           0        5.314045   -1.589066   -0.439154
     42         16           0        6.166796    0.687728    0.413997
     43          1           0        4.136034    4.114407    1.647560
     44          1           0        2.749779    3.947738    0.526809
     45          1           0        2.599168    3.409129    2.218929
     46          6           0        6.728766   -1.692940   -0.397660
     47          8           0        4.518385   -2.623314   -0.894489
     48          6           0        7.339689   -0.552845    0.041888
     49          1           0        7.252815   -2.592971   -0.696856
     50          6           0        4.120315   -3.554796    0.112962
     51          1           0        8.392536   -0.356247    0.173870
     52          1           0        3.569938   -3.056061    0.916039
     53          1           0        3.461815   -4.276602   -0.371867
     54          1           0        4.993377   -4.072309    0.532771
 ---------------------------------------------------------------------

 The electronic state is 1-A.
 Alpha  occ. eigenvalues --  -88.71225 -88.67979 -18.99388 -18.98392 -18.88046
 Alpha  occ. eigenvalues --  -18.87622 -18.86871 -18.86235 -14.15631 -14.14716
 Alpha  occ. eigenvalues --  -10.07096 -10.06530 -10.06485 -10.06068 -10.05784
 Alpha  occ. eigenvalues --  -10.05764 -10.05338 -10.05047 -10.04977 -10.03622
 Alpha  occ. eigenvalues --  -10.02243 -10.01963 -10.01920 -10.01011 -10.00220
 Alpha  occ. eigenvalues --   -9.98569  -9.98495  -9.98265  -9.97755  -9.97035
 Alpha  occ. eigenvalues --   -9.96453  -9.96194  -9.96178  -9.95941  -9.95840
 Alpha  occ. eigenvalues --   -9.95788  -7.79773  -7.76550  -5.76089  -5.75716
 Alpha  occ. eigenvalues --   -5.75322  -5.72890  -5.72509  -5.72051  -0.90665
 Alpha  occ. eigenvalues --   -0.89577  -0.83774  -0.82673  -0.81369  -0.80144
 Alpha  occ. eigenvalues --   -0.72365  -0.71786  -0.71281  -0.69107  -0.66814
 Alpha  occ. eigenvalues --   -0.62310  -0.59994  -0.59341  -0.58358  -0.57538
 Alpha  occ. eigenvalues --   -0.55275  -0.54164  -0.53249  -0.52769  -0.52177
 Alpha  occ. eigenvalues --   -0.50310  -0.49839  -0.47620  -0.44123  -0.42776
 Alpha  occ. eigenvalues --   -0.42430  -0.41903  -0.40571  -0.39672  -0.38089
 Alpha  occ. eigenvalues --   -0.37162  -0.36338  -0.34309  -0.33941  -0.31887
 Alpha  occ. eigenvalues --   -0.31375  -0.31361  -0.30803  -0.30584  -0.29961
 Alpha  occ. eigenvalues --   -0.29041  -0.28495  -0.27634  -0.27187  -0.26781
 Alpha  occ. eigenvalues --   -0.26346  -0.25571  -0.25277  -0.25102  -0.24358
 Alpha  occ. eigenvalues --   -0.23445  -0.23156  -0.22492  -0.22328  -0.21545
 Alpha  occ. eigenvalues --   -0.21345  -0.21000  -0.20756  -0.20365  -0.19812
 Alpha  occ. eigenvalues --   -0.19539  -0.19382  -0.19203  -0.18615  -0.18521
 Alpha  occ. eigenvalues --   -0.18006  -0.17814  -0.16823  -0.16314  -0.16067
 Alpha  occ. eigenvalues --   -0.15437  -0.14992  -0.14831  -0.12803  -0.11868
 Alpha  occ. eigenvalues --   -0.11765  -0.09806  -0.08802  -0.07227  -0.07074
 Alpha  occ. eigenvalues --   -0.06557  -0.06256  -0.05712  -0.05397  -0.04927
 Alpha  occ. eigenvalues --   -0.04810  -0.03497  -0.01856   0.00011   0.06365
 Alpha virt. eigenvalues --    0.11938   0.12866   0.13997   0.14511   0.15634
 Alpha virt. eigenvalues --    0.15822   0.16583   0.16667   0.16798   0.17227
 Alpha virt. eigenvalues --    0.17491   0.18051   0.18573   0.18931   0.18970

 Mulliken charges:
               1
     1  C    0.142905
     2  C   -0.038432
     3  C    0.199262
     4  C    0.259867
     5  C    0.087151
     6  C    0.068154
     7  C    0.281671
     8  C    0.523588
     9  C    0.111086
    10  C   -0.930374
    11  C    0.103004
    12  C    0.236295
    13  C   -0.465242
    14  C   -0.614409
    15  H    0.103452
    16  H    0.107954
    17  H    0.137538
    18  N   -0.064790
    19  N   -0.134009
    20  O   -0.423125
    21  O   -0.404785
    22  O   -0.419288
    23  O   -0.373028
    24  C   -0.152527
    25  H    0.129020
    26  H    0.137818
    27  H    0.156171
    28  C   -0.180900
    29  H    0.136925
    30  H    0.134241
    31  H    0.156202
    32  C   -0.222635
    33  C   -0.362245
    34  S   -0.841241
    35  C   -0.469372
    36  H    0.141260
    37  C    0.523970
    38  O   -0.123097
    39  C    0.483572
    40  C   -0.257428
    41  C    0.179248
    42  S   -0.379691
    43  H    0.128810
    44  H    0.168801
    45  H    0.131881
    46  C   -0.126043
    47  O   -0.139933
    48  C   -0.187200
    49  H    0.093123
    50  C   -0.294412
    51  H    0.119132
    52  H    0.166532
    53  H    0.150848
    54  H    0.104727
 Sum of Mulliken charges =  -2.00000

 Dipole moment (field-independent basis, Debye):
    X=             14.5241    Y=             -0.0290    Z=              2.3528  Tot=             14.7134
 Quadrupole moment (field-independent basis, Debye-Ang):
   XX=           -425.4778   YY=           -306.7154   ZZ=           -239.6459
   XY=              4.3267   XZ=             12.4966   YZ=              5.3917

 Normal termination of Gaussian 16 at Fri Oct  8 15:09:06 2021.
