 Gaussian 16, Revision C.01,
 Gaussian 16:  ES64L-G16RevC.01  3-Jul-2019

 -------------------------------------
 # opt=modredundant b3lyp/6-311+g(d,p)
 -------------------------------------

 -----------
 NDI_-80.pdb
 -----------
 Symbolic Z-matrix:
 Charge = -2 Multiplicity = 1

 SCF Done:  E(RB3LYP) =  -2359.37144292     A.U. after   23 cycles
 SCF Done:  E(RB3LYP) =  -2359.38898406     A.U. after   16 cycles
 SCF Done:  E(RB3LYP) =  -2359.39150450     A.U. after   15 cycles
 SCF Done:  E(RB3LYP) =  -2359.39149823     A.U. after   14 cycles
 SCF Done:  E(RB3LYP) =  -2359.39171066     A.U. after   13 cycles
 SCF Done:  E(RB3LYP) =  -2359.39173698     A.U. after   13 cycles
 SCF Done:  E(RB3LYP) =  -2359.39181086     A.U. after   13 cycles
 SCF Done:  E(RB3LYP) =  -2359.39181763     A.U. after   11 cycles
 SCF Done:  E(RB3LYP) =  -2359.39182777     A.U. after   13 cycles
 SCF Done:  E(RB3LYP) =  -2359.39183317     A.U. after   11 cycles
 SCF Done:  E(RB3LYP) =  -2359.39459782     A.U. after   12 cycles
 SCF Done:  E(RB3LYP) =  -2359.39459925     A.U. after   12 cycles
 SCF Done:  E(RB3LYP) =  -2359.39459961     A.U. after   11 cycles
 SCF Done:  E(RB3LYP) =  -2359.39459975     A.U. after   10 cycles
 SCF Done:  E(RB3LYP) =  -2359.39459991     A.U. after   10 cycles
 SCF Done:  E(RB3LYP) =  -2359.39460005     A.U. after   10 cycles
 SCF Done:  E(RB3LYP) =  -2359.39460020     A.U. after   10 cycles
 SCF Done:  E(RB3LYP) =  -2359.39460030     A.U. after    9 cycles
 SCF Done:  E(RB3LYP) =  -2359.39460035     A.U. after   10 cycles
 SCF Done:  E(RB3LYP) =  -2359.39460037     A.U. after   10 cycles
 Optimization completed.
    -- Stationary point found.

                         Standard orientation:
 ---------------------------------------------------------------------
 Center     Atomic      Atomic             Coordinates (Angstroms)
 Number     Number       Type             X           Y           Z
 ---------------------------------------------------------------------
      1          6           0        2.843022   -2.856596    0.552771
      2          6           0        2.409286   -1.505081    0.330690
      3          6           0        3.356814   -0.482167    0.054229
      4          6           0        4.741076   -0.766629   -0.020287
      5          6           0        5.221389   -2.107566    0.192450
      6          6           0        1.025648   -1.190590    0.396065
      7          6           0        2.885842    0.869725   -0.158865
      8          6           0        1.491248    1.162097   -0.073508
      9          6           0        0.559245    0.095423    0.251444
     10          6           0        1.042164    2.504974   -0.308444
     11          6           0        3.425550    3.231403   -0.698593
     12          6           0        3.841066    1.876653   -0.458714
     13          6           0        5.234183    1.553157   -0.529947
     14          6           0        5.672438    0.279978   -0.315587
     15          1           0        6.723320    0.021389   -0.366379
     16          1           0        5.919876    2.359445   -0.761970
     17          1           0        0.340579   -2.000555    0.615099
     18          7           0        2.036981    3.460348   -0.624595
     19          7           0        4.233896   -3.082172    0.467669
     20          8           0        2.097733   -3.826459    0.808860
     21          8           0        6.423946   -2.445180    0.148738
     22          8           0        4.198696    4.179234   -0.962284
     23          8           0       -0.143853    2.899000   -0.265116
     24          6           0        1.553398    4.812512   -0.877924
     25          1           0        0.796211    4.796644   -1.665193
     26          1           0        1.080155    5.224849    0.018548
     27          1           0        2.410983    5.415361   -1.166569
     28          6           0        4.669815   -4.455296    0.690551
     29          1           0        4.373403   -4.789879    1.688747
     30          1           0        4.192575   -5.124314   -0.030622
     31          1           0        5.751499   -4.475726    0.582191
     32          6           0       -0.895949    0.302946    0.386489
     33          6           0       -1.612415    0.807921    1.447318
     34         16           0       -1.978968   -0.423164   -0.777920
     35          6           0       -3.007991    0.652117    1.312366
     36          1           0       -1.123134    1.296470    2.276348
     37          6           0       -3.418424   -0.020028    0.165756
     38          8           0       -3.949871    1.071532    2.220719
     39          6           0       -4.752677   -0.355080   -0.242003
     40          6           0       -3.516544    1.975798    3.223715
     41          6           0       -5.176264   -1.168339   -1.288067
     42         16           0       -6.184556    0.304902    0.564845
     43          1           0       -4.415176    2.290449    3.756795
     44          1           0       -2.830060    1.492764    3.928952
     45          1           0       -3.021529    2.847671    2.783309
     46          6           0       -6.585714   -1.246177   -1.451920
     47          8           0       -4.306628   -1.814523   -2.142853
     48          6           0       -7.270964   -0.506930   -0.531258
     49          1           0       -7.047619   -1.832258   -2.237108
     50          6           0       -3.931637   -3.129862   -1.725682
     51          1           0       -8.337811   -0.391087   -0.416474
     52          1           0       -4.806077   -3.793061   -1.697263
     53          1           0       -3.215055   -3.496660   -2.461303
     54          1           0       -3.453715   -3.111560   -0.742207
 ---------------------------------------------------------------------

 The electronic state is 1-A.
 Alpha  occ. eigenvalues --  -88.72274 -88.69115 -19.00282 -18.99279 -18.86632
 Alpha  occ. eigenvalues --  -18.86396 -18.86204 -18.85933 -14.14556 -14.14254
 Alpha  occ. eigenvalues --  -10.08178 -10.07301 -10.06909 -10.06667 -10.05941
 Alpha  occ. eigenvalues --  -10.05102 -10.04811 -10.04748 -10.04679 -10.04551
 Alpha  occ. eigenvalues --  -10.03171 -10.02928 -10.02887 -10.00101  -9.99740
 Alpha  occ. eigenvalues --   -9.99139  -9.97825  -9.97756  -9.97713  -9.96083
 Alpha  occ. eigenvalues --   -9.95717  -9.95224  -9.95166  -9.95062  -9.95027
 Alpha  occ. eigenvalues --   -9.94968  -7.80827  -7.77680  -5.77139  -5.76766
 Alpha  occ. eigenvalues --   -5.76385  -5.74008  -5.73608  -5.73225  -0.91565
 Alpha  occ. eigenvalues --   -0.90525  -0.82383  -0.82071  -0.79902  -0.79546
 Alpha  occ. eigenvalues --   -0.72903  -0.71137  -0.70791  -0.70192  -0.66135
 Alpha  occ. eigenvalues --   -0.62164  -0.60047  -0.59326  -0.58916  -0.58410
 Alpha  occ. eigenvalues --   -0.55375  -0.54473  -0.53176  -0.52689  -0.51965
 Alpha  occ. eigenvalues --   -0.50534  -0.49362  -0.47140  -0.44011  -0.43011
 Alpha  occ. eigenvalues --   -0.41920  -0.41710  -0.40323  -0.39616  -0.39028
 Alpha  occ. eigenvalues --   -0.37414  -0.37096  -0.33641  -0.33339  -0.32417
 Alpha  occ. eigenvalues --   -0.32098  -0.31693  -0.31430  -0.31154  -0.30174
 Alpha  occ. eigenvalues --   -0.29681  -0.29117  -0.26920  -0.26601  -0.26467
 Alpha  occ. eigenvalues --   -0.26258  -0.25824  -0.25008  -0.24755  -0.24327
 Alpha  occ. eigenvalues --   -0.24040  -0.23015  -0.22291  -0.22172  -0.21553
 Alpha  occ. eigenvalues --   -0.20951  -0.20855  -0.20465  -0.20240  -0.19984
 Alpha  occ. eigenvalues --   -0.19606  -0.19094  -0.18639  -0.18529  -0.17746
 Alpha  occ. eigenvalues --   -0.17550  -0.17227  -0.16841  -0.16420  -0.15939
 Alpha  occ. eigenvalues --   -0.15648  -0.14559  -0.14462  -0.12974  -0.11850
 Alpha  occ. eigenvalues --   -0.11253  -0.10031  -0.09634  -0.06605  -0.06258
 Alpha  occ. eigenvalues --   -0.06007  -0.05594  -0.05371  -0.04954  -0.04070
 Alpha  occ. eigenvalues --   -0.03841  -0.03396  -0.01621  -0.00403   0.07214
 Alpha virt. eigenvalues --    0.11464   0.12329   0.13316   0.13866   0.15250
 Alpha virt. eigenvalues --    0.16127   0.16254   0.16709   0.16945   0.17136
 Alpha virt. eigenvalues --    0.17239   0.17690   0.18097   0.18163   0.18463

 Mulliken charges:
               1
     1  C    0.318823
     2  C   -0.054135
     3  C    0.072928
     4  C    0.215593
     5  C    0.131434
     6  C   -0.817287
     7  C    0.199475
     8  C    0.052118
     9  C    0.713171
    10  C   -0.402604
    11  C    0.179696
    12  C    0.194741
    13  C   -0.564513
    14  C   -0.636910
    15  H    0.101708
    16  H    0.103882
    17  H    0.123412
    18  N   -0.159025
    19  N   -0.137251
    20  O   -0.435525
    21  O   -0.422494
    22  O   -0.427633
    23  O   -0.277328
    24  C   -0.200524
    25  H    0.139234
    26  H    0.128818
    27  H    0.158598
    28  C   -0.179852
    29  H    0.131340
    30  H    0.133054
    31  H    0.157139
    32  C    0.038382
    33  C   -0.444396
    34  S   -0.330564
    35  C   -0.466187
    36  H    0.097307
    37  C    0.428574
    38  O   -0.132436
    39  C    0.403479
    40  C   -0.264433
    41  C    0.196309
    42  S   -0.356775
    43  H    0.130908
    44  H    0.130563
    45  H    0.163207
    46  C   -0.146638
    47  O   -0.137084
    48  C   -0.178392
    49  H    0.096984
    50  C   -0.321320
    51  H    0.123176
    52  H    0.107379
    53  H    0.150045
    54  H    0.171827
 Sum of Mulliken charges =  -2.00000

 Dipole moment (field-independent basis, Debye):
    X=            -18.2719    Y=             -1.0843    Z=              2.6882  Tot=             18.5004
 Quadrupole moment (field-independent basis, Debye-Ang):
   XX=           -423.4858   YY=           -311.0917   ZZ=           -235.6700
   XY=              2.4241   XZ=             -0.5115   YZ=             20.7551

 Normal termination of Gaussian 16 at Fri Oct  8 00:54:09 2021.
