 Gaussian 16, Revision C.01,
 Gaussian 16:  ES64L-G16RevC.01  3-Jul-2019

 -------------------------------------
 # opt=modredundant b3lyp/6-311+g(d,p)
 -------------------------------------

 ------------
 NDI_-130.pdb
 ------------
 Symbolic Z-matrix:
 Charge = -2 Multiplicity = 1

 SCF Done:  E(RB3LYP) =  -2359.36898477     A.U. after   23 cycles
 SCF Done:  E(RB3LYP) =  -2359.38472611     A.U. after   20 cycles
 SCF Done:  E(RB3LYP) =  -2359.39119281     A.U. after   18 cycles
 SCF Done:  E(RB3LYP) =  -2359.39231692     A.U. after   15 cycles
 SCF Done:  E(RB3LYP) =  -2359.39277535     A.U. after   17 cycles
 SCF Done:  E(RB3LYP) =  -2359.39312614     A.U. after   15 cycles
 SCF Done:  E(RB3LYP) =  -2359.39344023     A.U. after   13 cycles
 SCF Done:  E(RB3LYP) =  -2359.39348185     A.U. after   14 cycles
 SCF Done:  E(RB3LYP) =  -2359.39350974     A.U. after   12 cycles
 SCF Done:  E(RB3LYP) =  -2359.39352109     A.U. after   12 cycles
 SCF Done:  E(RB3LYP) =  -2359.39810933     A.U. after   12 cycles
 SCF Done:  E(RB3LYP) =  -2359.39812259     A.U. after   13 cycles
 SCF Done:  E(RB3LYP) =  -2359.39812947     A.U. after   12 cycles
 SCF Done:  E(RB3LYP) =  -2359.39813456     A.U. after   11 cycles
 SCF Done:  E(RB3LYP) =  -2359.39813370     A.U. after   11 cycles
 SCF Done:  E(RB3LYP) =  -2359.39813672     A.U. after   11 cycles
 SCF Done:  E(RB3LYP) =  -2359.39813683     A.U. after   11 cycles
 SCF Done:  E(RB3LYP) =  -2359.39813729     A.U. after   11 cycles
 SCF Done:  E(RB3LYP) =  -2359.39813734     A.U. after   11 cycles
 SCF Done:  E(RB3LYP) =  -2359.39813736     A.U. after   10 cycles
 Optimization completed.
    -- Stationary point found.

                         Standard orientation:
 ---------------------------------------------------------------------
 Center     Atomic      Atomic             Coordinates (Angstroms)
 Number     Number       Type             X           Y           Z
 ---------------------------------------------------------------------
      1          6           0       -3.549974   -2.686524    0.318787
      2          6           0       -2.801772   -1.477076    0.105922
      3          6           0       -3.453250   -0.211881    0.131952
      4          6           0       -4.843213   -0.111848    0.365574
      5          6           0       -5.632410   -1.298511    0.592087
      6          6           0       -1.400372   -1.543633   -0.081152
      7          6           0       -2.671193    0.981564   -0.109508
      8          6           0       -1.266633    0.882872   -0.353637
      9          6           0       -0.620861   -0.419702   -0.264152
     10          6           0       -0.558553    2.055219   -0.785150
     11          6           0       -2.636173    3.442647   -0.437267
     12          6           0       -3.348417    2.229043   -0.134929
     13          6           0       -4.755042    2.296048    0.112822
     14          6           0       -5.481512    1.168184    0.360213
     15          1           0       -6.548526    1.203517    0.543712
     16          1           0       -5.217073    3.275798    0.086411
     17          1           0       -0.935009   -2.518333    0.001086
     18          7           0       -1.277224    3.277779   -0.758587
     19          7           0       -4.932758   -2.526053    0.552832
     20          8           0       -3.078886   -3.842698    0.311754
     21          8           0       -6.861405   -1.297266    0.809765
     22          8           0       -3.148249    4.583346   -0.449911
     23          8           0        0.623022    2.096164   -1.189174
     24          6           0       -0.520967    4.460577   -1.153126
     25          1           0        0.368881    4.563131   -0.527266
     26          1           0       -0.180400    4.367726   -2.188407
     27          1           0       -1.178634    5.319064   -1.040843
     28          6           0       -5.688116   -3.753911    0.771294
     29          1           0       -5.596998   -4.413104   -0.096338
     30          1           0       -5.288881   -4.294719    1.633610
     31          1           0       -6.725565   -3.474092    0.936835
     32          6           0        0.824046   -0.644432   -0.308858
     33          6           0        1.494449   -1.550293   -1.111992
     34         16           0        1.953692    0.164224    0.755345
     35          6           0        2.887448   -1.578123   -0.890511
     36          1           0        0.975001   -2.132814   -1.858270
     37          6           0        3.344668   -0.688296    0.075413
     38          8           0        3.790980   -2.365939   -1.564240
     39          6           0        4.697187   -0.414758    0.467570
     40          6           0        3.282278   -3.206811   -2.582889
     41          6           0        5.201569    0.634121    1.232741
     42         16           0        6.041051   -1.485033    0.033801
     43          1           0        4.140656   -3.743951   -2.989423
     44          1           0        2.557416   -3.926305   -2.184736
     45          1           0        2.805139   -2.625598   -3.380609
     46          6           0        6.600181    0.572862    1.475955
     47          8           0        4.424953    1.640313    1.765742
     48          6           0        7.199339   -0.510955    0.900470
     49          1           0        7.117243    1.323043    2.061888
     50          6           0        4.159025    2.734043    0.875070
     51          1           0        8.241783   -0.790288    0.906339
     52          1           0        3.569655    2.413065    0.012886
     53          1           0        3.576461    3.457526    1.446286
     54          1           0        5.099145    3.193269    0.543113
 ---------------------------------------------------------------------

 The electronic state is 1-A.
 Alpha  occ. eigenvalues --  -88.71725 -88.68207 -19.00092 -18.98284 -18.87235
 Alpha  occ. eigenvalues --  -18.86930 -18.86473 -18.86060 -14.15025 -14.14388
 Alpha  occ. eigenvalues --  -10.08177 -10.06298 -10.06262 -10.05779 -10.05694
 Alpha  occ. eigenvalues --  -10.05342 -10.05302 -10.04962 -10.04701 -10.04184
 Alpha  occ. eigenvalues --  -10.02554 -10.02410 -10.02346 -10.00512  -9.99874
 Alpha  occ. eigenvalues --   -9.98938  -9.98101  -9.98045  -9.97828  -9.96474
 Alpha  occ. eigenvalues --   -9.95809  -9.95751  -9.95574  -9.95429  -9.95370
 Alpha  occ. eigenvalues --   -9.95321  -7.80283  -7.76782  -5.76595  -5.76223
 Alpha  occ. eigenvalues --   -5.75840  -5.73116  -5.72722  -5.72305  -0.91388
 Alpha  occ. eigenvalues --   -0.89435  -0.82966  -0.82294  -0.80516  -0.79793
 Alpha  occ. eigenvalues --   -0.72275  -0.71660  -0.70969  -0.69670  -0.66418
 Alpha  occ. eigenvalues --   -0.62183  -0.59889  -0.59167  -0.58581  -0.58069
 Alpha  occ. eigenvalues --   -0.55345  -0.54021  -0.53128  -0.52357  -0.52160
 Alpha  occ. eigenvalues --   -0.50329  -0.49601  -0.47410  -0.43668  -0.42850
 Alpha  occ. eigenvalues --   -0.42191  -0.41765  -0.40248  -0.39802  -0.38240
 Alpha  occ. eigenvalues --   -0.37223  -0.36824  -0.33897  -0.33600  -0.32323
 Alpha  occ. eigenvalues --   -0.31813  -0.31595  -0.30525  -0.30251  -0.29942
 Alpha  occ. eigenvalues --   -0.29426  -0.28469  -0.27136  -0.27050  -0.26461
 Alpha  occ. eigenvalues --   -0.26072  -0.25554  -0.25071  -0.24754  -0.24640
 Alpha  occ. eigenvalues --   -0.23637  -0.23016  -0.22325  -0.21971  -0.21539
 Alpha  occ. eigenvalues --   -0.21076  -0.20752  -0.20575  -0.20334  -0.20109
 Alpha  occ. eigenvalues --   -0.19395  -0.19055  -0.18871  -0.18577  -0.17888
 Alpha  occ. eigenvalues --   -0.17800  -0.17202  -0.16956  -0.16255  -0.15998
 Alpha  occ. eigenvalues --   -0.15647  -0.14839  -0.14598  -0.12143  -0.12075
 Alpha  occ. eigenvalues --   -0.11273  -0.09906  -0.09025  -0.06679  -0.06561
 Alpha  occ. eigenvalues --   -0.06186  -0.05917  -0.05540  -0.04979  -0.04425
 Alpha  occ. eigenvalues --   -0.04251  -0.03393  -0.01553  -0.00417   0.06849
 Alpha virt. eigenvalues --    0.11859   0.12676   0.13430   0.14366   0.15734
 Alpha virt. eigenvalues --    0.16067   0.16374   0.16905   0.16942   0.17249
 Alpha virt. eigenvalues --    0.17392   0.17810   0.18360   0.18507   0.19003

 Mulliken charges:
               1
     1  C    0.257224
     2  C   -0.176375
     3  C    0.080917
     4  C    0.283423
     5  C    0.154970
     6  C   -0.407620
     7  C    0.207985
     8  C    0.089805
     9  C    0.290961
    10  C   -0.366630
    11  C    0.190226
    12  C    0.263783
    13  C   -0.527442
    14  C   -0.627923
    15  H    0.102794
    16  H    0.105784
    17  H    0.121118
    18  N   -0.087073
    19  N   -0.134963
    20  O   -0.432936
    21  O   -0.416355
    22  O   -0.424928
    23  O   -0.345118
    24  C   -0.164799
    25  H    0.136317
    26  H    0.135264
    27  H    0.157561
    28  C   -0.181666
    29  H    0.131966
    30  H    0.134510
    31  H    0.157238
    32  C    0.010001
    33  C   -0.557064
    34  S   -0.265771
    35  C   -0.492657
    36  H    0.110313
    37  C    0.259801
    38  O   -0.118848
    39  C    0.403571
    40  C   -0.243624
    41  C    0.159246
    42  S   -0.338680
    43  H    0.132144
    44  H    0.141757
    45  H    0.138794
    46  C   -0.066770
    47  O   -0.157491
    48  C   -0.172724
    49  H    0.096085
    50  C   -0.315933
    51  H    0.121739
    52  H    0.204572
    53  H    0.141134
    54  H    0.102386
 Sum of Mulliken charges =  -2.00000

 Dipole moment (field-independent basis, Debye):
    X=             16.4177    Y=             -2.5616    Z=             -2.2477  Tot=             16.7676
 Quadrupole moment (field-independent basis, Debye-Ang):
   XX=           -422.8827   YY=           -306.4711   ZZ=           -239.2649
   XY=              5.4592   XZ=              1.6395   YZ=             14.4044

 Normal termination of Gaussian 16 at Wed Oct  6 00:27:03 2021.
