 Gaussian 16, Revision C.01,
 Gaussian 16:  ES64L-G16RevC.01  3-Jul-2019

 -------------------------------------
 # opt=modredundant b3lyp/6-311+g(d,p)
 -------------------------------------

 ------------
 NDI_-145.pdb
 ------------
 Symbolic Z-matrix:
 Charge = -2 Multiplicity = 1

 SCF Done:  E(RB3LYP) =  -2359.36145567     A.U. after   23 cycles
 SCF Done:  E(RB3LYP) =  -2359.37809784     A.U. after   20 cycles
 SCF Done:  E(RB3LYP) =  -2359.38952397     A.U. after   18 cycles
 SCF Done:  E(RB3LYP) =  -2359.39191565     A.U. after   16 cycles
 SCF Done:  E(RB3LYP) =  -2359.39225814     A.U. after   17 cycles
 SCF Done:  E(RB3LYP) =  -2359.39295801     A.U. after   15 cycles
 SCF Done:  E(RB3LYP) =  -2359.39340682     A.U. after   17 cycles
 SCF Done:  E(RB3LYP) =  -2359.39359736     A.U. after   14 cycles
 SCF Done:  E(RB3LYP) =  -2359.39399641     A.U. after   14 cycles
 SCF Done:  E(RB3LYP) =  -2359.39427024     A.U. after   17 cycles
 SCF Done:  E(RB3LYP) =  -2359.39908371     A.U. after   12 cycles
 SCF Done:  E(RB3LYP) =  -2359.39909342     A.U. after   12 cycles
 SCF Done:  E(RB3LYP) =  -2359.39909816     A.U. after   13 cycles
 SCF Done:  E(RB3LYP) =  -2359.39909882     A.U. after   12 cycles
 SCF Done:  E(RB3LYP) =  -2359.39909884     A.U. after   11 cycles
 SCF Done:  E(RB3LYP) =  -2359.39909892     A.U. after   10 cycles
 SCF Done:  E(RB3LYP) =  -2359.39909894     A.U. after    9 cycles
 SCF Done:  E(RB3LYP) =  -2359.39909897     A.U. after   10 cycles
 SCF Done:  E(RB3LYP) =  -2359.39909899     A.U. after    9 cycles
 SCF Done:  E(RB3LYP) =  -2359.39909900     A.U. after    9 cycles
 Optimization completed.
    -- Stationary point found.

                         Standard orientation:
 ---------------------------------------------------------------------
 Center     Atomic      Atomic             Coordinates (Angstroms)
 Number     Number       Type             X           Y           Z
 ---------------------------------------------------------------------
      1          6           0       -3.517252   -2.694345    0.223723
      2          6           0       -2.783726   -1.470981    0.031694
      3          6           0       -3.442771   -0.211996    0.123129
      4          6           0       -4.824500   -0.131653    0.400514
      5          6           0       -5.599466   -1.333505    0.604797
      6          6           0       -1.389515   -1.520245   -0.183964
      7          6           0       -2.672954    0.992925   -0.094862
      8          6           0       -1.275361    0.912848   -0.383715
      9          6           0       -0.613945   -0.387403   -0.354799
     10          6           0       -0.602007    2.101995   -0.825415
     11          6           0       -2.666733    3.465086   -0.338005
     12          6           0       -3.360082    2.234895   -0.054619
     13          6           0       -4.757524    2.282870    0.238285
     14          6           0       -5.471051    1.141764    0.464487
     15          1           0       -6.532063    1.163067    0.681345
     16          1           0       -5.225175    3.260012    0.262774
     17          1           0       -0.920496   -2.494252   -0.124334
     18          7           0       -1.322752    3.320517   -0.719088
     19          7           0       -4.894028   -2.553588    0.500305
     20          8           0       -3.037953   -3.844727    0.164131
     21          8           0       -6.820694   -1.348605    0.856895
     22          8           0       -3.186378    4.600824   -0.288467
     23          8           0        0.550001    2.162433   -1.302956
     24          6           0       -0.591382    4.520164   -1.110072
     25          1           0        0.343649    4.586239   -0.549427
     26          1           0       -0.331328    4.481509   -2.172122
     27          1           0       -1.233470    5.373546   -0.906150
     28          6           0       -5.635011   -3.794414    0.694610
     29          1           0       -5.555981   -4.424260   -0.195504
     30          1           0       -5.214421   -4.358999    1.531164
     31          1           0       -6.670999   -3.529284    0.890356
     32          6           0        0.827423   -0.610059   -0.375934
     33          6           0        1.486770   -1.663695   -0.998330
     34         16           0        1.968769    0.334469    0.557264
     35          6           0        2.868638   -1.699706   -0.738259
     36          1           0        0.964538   -2.354712   -1.642997
     37          6           0        3.339844   -0.677578    0.082398
     38          8           0        3.758014   -2.615891   -1.250531
     39          6           0        4.692203   -0.383231    0.451242
     40          6           0        3.234193   -3.622605   -2.095735
     41          6           0        5.211333    0.734285    1.103615
     42         16           0        6.024284   -1.512549    0.140412
     43          1           0        4.080391   -4.249364   -2.381832
     44          1           0        2.486573   -4.233549   -1.576687
     45          1           0        2.778698   -3.193195   -2.995957
     46          6           0        6.607916    0.680958    1.356435
     47          8           0        4.442373    1.796907    1.530307
     48          6           0        7.194948   -0.465126    0.901376
     49          1           0        7.133258    1.480410    1.865051
     50          6           0        4.252056    2.832876    0.557548
     51          1           0        8.232198   -0.759480    0.947717
     52          1           0        3.697524    2.466918   -0.310039
     53          1           0        3.661340    3.607926    1.047050
     54          1           0        5.219213    3.245974    0.242362
 ---------------------------------------------------------------------

 The electronic state is 1-A.
 Alpha  occ. eigenvalues --  -88.71392 -88.67956 -18.99868 -18.98079 -18.87609
 Alpha  occ. eigenvalues --  -18.87284 -18.86631 -18.86120 -14.15323 -14.14472
 Alpha  occ. eigenvalues --  -10.07987 -10.06060 -10.06009 -10.05890 -10.05726
 Alpha  occ. eigenvalues --  -10.05693 -10.05122 -10.05032 -10.04784 -10.03808
 Alpha  occ. eigenvalues --  -10.02274 -10.02170 -10.02070 -10.00769  -9.99940
 Alpha  occ. eigenvalues --   -9.98681  -9.98270  -9.98230  -9.97998  -9.96754
 Alpha  occ. eigenvalues --   -9.96072  -9.95870  -9.95852  -9.95658  -9.95567
 Alpha  occ. eigenvalues --   -9.95531  -7.79947  -7.76519  -5.76260  -5.75888
 Alpha  occ. eigenvalues --   -5.75500  -5.72853  -5.72458  -5.72040  -0.91161
 Alpha  occ. eigenvalues --   -0.89227  -0.83338  -0.82431  -0.80909  -0.79939
 Alpha  occ. eigenvalues --   -0.71994  -0.71933  -0.71082  -0.69411  -0.66603
 Alpha  occ. eigenvalues --   -0.62238  -0.59864  -0.59275  -0.58353  -0.57814
 Alpha  occ. eigenvalues --   -0.55382  -0.53849  -0.53313  -0.52469  -0.52078
 Alpha  occ. eigenvalues --   -0.50254  -0.49721  -0.47535  -0.43706  -0.42757
 Alpha  occ. eigenvalues --   -0.42330  -0.41786  -0.40345  -0.39767  -0.38040
 Alpha  occ. eigenvalues --   -0.37239  -0.36579  -0.34075  -0.33753  -0.32124
 Alpha  occ. eigenvalues --   -0.31871  -0.31529  -0.30417  -0.30102  -0.29866
 Alpha  occ. eigenvalues --   -0.29273  -0.28279  -0.27338  -0.27233  -0.26559
 Alpha  occ. eigenvalues --   -0.26133  -0.25417  -0.25218  -0.24865  -0.24630
 Alpha  occ. eigenvalues --   -0.23449  -0.23126  -0.22460  -0.21930  -0.21482
 Alpha  occ. eigenvalues --   -0.21151  -0.20850  -0.20746  -0.20390  -0.19944
 Alpha  occ. eigenvalues --   -0.19525  -0.19137  -0.18787  -0.18619  -0.18093
 Alpha  occ. eigenvalues --   -0.17876  -0.17487  -0.16771  -0.16407  -0.16075
 Alpha  occ. eigenvalues --   -0.15441  -0.14820  -0.14726  -0.12341  -0.11822
 Alpha  occ. eigenvalues --   -0.11508  -0.09796  -0.08820  -0.06922  -0.06802
 Alpha  occ. eigenvalues --   -0.06359  -0.06034  -0.05659  -0.05067  -0.04575
 Alpha  occ. eigenvalues --   -0.04536  -0.03364  -0.01611  -0.00226   0.06646
 Alpha virt. eigenvalues --    0.12057   0.12820   0.13570   0.14485   0.15814
 Alpha virt. eigenvalues --    0.15917   0.16488   0.16778   0.16903   0.17349
 Alpha virt. eigenvalues --    0.17448   0.17920   0.18561   0.18663   0.19020

 Mulliken charges:
               1
     1  C    0.229578
     2  C   -0.103157
     3  C    0.092843
     4  C    0.330157
     5  C    0.151603
     6  C   -0.200789
     7  C    0.205676
     8  C    0.072065
     9  C    0.069891
    10  C   -0.412480
    11  C    0.241191
    12  C    0.252492
    13  C   -0.476978
    14  C   -0.630865
    15  H    0.103129
    16  H    0.106721
    17  H    0.124471
    18  N   -0.061845
    19  N   -0.136418
    20  O   -0.431333
    21  O   -0.410477
    22  O   -0.422904
    23  O   -0.349840
    24  C   -0.159591
    25  H    0.138228
    26  H    0.135073
    27  H    0.156898
    28  C   -0.180326
    29  H    0.132977
    30  H    0.135090
    31  H    0.157368
    32  C   -0.262792
    33  C   -0.240788
    34  S   -0.491336
    35  C   -0.430062
    36  H    0.116014
    37  C    0.236760
    38  O   -0.122718
    39  C    0.459355
    40  C   -0.234256
    41  C    0.075860
    42  S   -0.334765
    43  H    0.132058
    44  H    0.143325
    45  H    0.135607
    46  C   -0.048398
    47  O   -0.150328
    48  C   -0.194703
    49  H    0.094473
    50  C   -0.305233
    51  H    0.120376
    52  H    0.199658
    53  H    0.141870
    54  H    0.101574
 Sum of Mulliken charges =  -2.00000

 Dipole moment (field-independent basis, Debye):
    X=             15.3775    Y=             -2.9210    Z=             -1.9921  Tot=             15.7788
 Quadrupole moment (field-independent basis, Debye-Ang):
   XX=           -421.9345   YY=           -304.7459   ZZ=           -240.9591
   XY=              5.7441   XZ=              2.9234   YZ=             11.2051

 Normal termination of Gaussian 16 at Wed Oct  6 01:59:30 2021.
