 Gaussian 16, Revision C.01,
 Gaussian 16:  ES64L-G16RevC.01  3-Jul-2019

 -------------------------------------
 # opt=modredundant b3lyp/6-311+g(d,p)
 -------------------------------------

 ----------
 NDI_80.pdb
 ----------
 Symbolic Z-matrix:
 Charge = -2 Multiplicity = 1

 SCF Done:  E(RB3LYP) =  -2359.36868951     A.U. after   25 cycles
 SCF Done:  E(RB3LYP) =  -2359.38718688     A.U. after   16 cycles
 SCF Done:  E(RB3LYP) =  -2359.39088613     A.U. after   17 cycles
 SCF Done:  E(RB3LYP) =  -2359.39136930     A.U. after   15 cycles
 SCF Done:  E(RB3LYP) =  -2359.39145731     A.U. after   15 cycles
 SCF Done:  E(RB3LYP) =  -2359.39158042     A.U. after   12 cycles
 SCF Done:  E(RB3LYP) =  -2359.39162095     A.U. after   12 cycles
 SCF Done:  E(RB3LYP) =  -2359.39166227     A.U. after   13 cycles
 SCF Done:  E(RB3LYP) =  -2359.39168498     A.U. after   13 cycles
 SCF Done:  E(RB3LYP) =  -2359.39171909     A.U. after   13 cycles
 SCF Done:  E(RB3LYP) =  -2359.39443558     A.U. after   12 cycles
 SCF Done:  E(RB3LYP) =  -2359.39443735     A.U. after   12 cycles
 SCF Done:  E(RB3LYP) =  -2359.39443835     A.U. after   11 cycles
 SCF Done:  E(RB3LYP) =  -2359.39443907     A.U. after   11 cycles
 SCF Done:  E(RB3LYP) =  -2359.39443989     A.U. after   11 cycles
 SCF Done:  E(RB3LYP) =  -2359.39444060     A.U. after   11 cycles
 SCF Done:  E(RB3LYP) =  -2359.39444113     A.U. after   10 cycles
 SCF Done:  E(RB3LYP) =  -2359.39444139     A.U. after   11 cycles
 SCF Done:  E(RB3LYP) =  -2359.39444147     A.U. after   10 cycles
 SCF Done:  E(RB3LYP) =  -2359.39444149     A.U. after   10 cycles
 Optimization completed.
    -- Stationary point found.

                         Standard orientation:
 ---------------------------------------------------------------------
 Center     Atomic      Atomic             Coordinates (Angstroms)
 Number     Number       Type             X           Y           Z
 ---------------------------------------------------------------------
      1          6           0       -3.143005   -2.868668    0.239030
      2          6           0       -2.578513   -1.550124    0.166345
      3          6           0       -3.419700   -0.417434   -0.003479
      4          6           0       -4.824126   -0.557157   -0.117517
      5          6           0       -5.433486   -1.859731   -0.055531
      6          6           0       -1.171258   -1.378354    0.286216
      7          6           0       -2.820375    0.899046   -0.066178
      8          6           0       -1.405643    1.044866    0.055962
      9          6           0       -0.586503   -0.135857    0.275594
     10          6           0       -0.823976    2.351800   -0.054544
     11          6           0       -3.123203    3.345054   -0.352219
     12          6           0       -3.669984    2.019877   -0.260667
     13          6           0       -5.087020    1.841456   -0.374719
     14          6           0       -5.646516    0.600536   -0.302921
     15          1           0       -6.716187    0.450654   -0.388278
     16          1           0       -5.689423    2.729993   -0.522036
     17          1           0       -0.570264   -2.267408    0.435182
     18          7           0       -1.718869    3.428500   -0.255826
     19          7           0       -4.547751   -2.948461    0.119059
     20          8           0       -2.499076   -3.927902    0.397534
     21          8           0       -6.662253   -2.073684   -0.144444
     22          8           0       -3.797515    4.387346   -0.512468
     23          8           0        0.397585    2.619373    0.003751
     24          6           0       -1.103949    4.745547   -0.370241
     25          1           0       -0.561949    4.994630    0.546825
     26          1           0       -0.377234    4.751573   -1.186598
     27          1           0       -1.902156    5.461453   -0.550857
     28          6           0       -5.115660   -4.289182    0.188629
     29          1           0       -4.686508   -4.921299   -0.593435
     30          1           0       -4.875105   -4.753873    1.149155
     31          1           0       -6.191757   -4.194204    0.065107
     32          6           0        0.873353   -0.060177    0.486719
     33          6           0        1.564967    0.255043    1.632223
     34         16           0        1.970373   -0.634799   -0.743767
     35          6           0        2.962300    0.094130    1.508327
     36          1           0        1.060701    0.623732    2.512780
     37          6           0        3.392432   -0.377799    0.273636
     38          8           0        3.884553    0.339385    2.495800
     39          6           0        4.737676   -0.616334   -0.168372
     40          6           0        3.442459    1.087265    3.617365
     41          6           0        5.204893   -0.919072   -1.442044
     42         16           0        6.120546   -0.568707    0.935990
     43          1           0        4.331001    1.285009    4.218955
     44          1           0        2.986828    2.033291    3.306743
     45          1           0        2.720073    0.520768    4.216334
     46          6           0        6.609904   -1.115614   -1.532114
     47          8           0        4.377951   -1.058483   -2.537618
     48          6           0        7.246819   -0.959310   -0.335069
     49          1           0        7.103407   -1.365154   -2.463486
     50          6           0        4.174072    0.146919   -3.281327
     51          1           0        8.300951   -1.035116   -0.116193
     52          1           0        5.120490    0.505180   -3.706728
     53          1           0        3.479892   -0.099589   -4.085479
     54          1           0        3.733160    0.927546   -2.655265
 ---------------------------------------------------------------------

 The electronic state is 1-A.
 Alpha  occ. eigenvalues --  -88.72513 -88.69236 -19.00460 -18.99425 -18.86371
 Alpha  occ. eigenvalues --  -18.86108 -18.86100 -18.85896 -14.14317 -14.14205
 Alpha  occ. eigenvalues --  -10.08323 -10.07392 -10.07139 -10.06853 -10.06163
 Alpha  occ. eigenvalues --  -10.04990 -10.04846 -10.04567 -10.04543 -10.04488
 Alpha  occ. eigenvalues --  -10.03374 -10.03117 -10.03023  -9.99882  -9.99745
 Alpha  occ. eigenvalues --   -9.99259  -9.97700  -9.97581  -9.97543  -9.95882
 Alpha  occ. eigenvalues --   -9.95635  -9.94987  -9.94935  -9.94915  -9.94868
 Alpha  occ. eigenvalues --   -9.94803  -7.81068  -7.77804  -5.77378  -5.77004
 Alpha  occ. eigenvalues --   -5.76628  -5.74132  -5.73732  -5.73347  -0.91747
 Alpha  occ. eigenvalues --   -0.90676  -0.82115  -0.81980  -0.79624  -0.79440
 Alpha  occ. eigenvalues --   -0.73140  -0.70885  -0.70730  -0.70336  -0.65982
 Alpha  occ. eigenvalues --   -0.62181  -0.60062  -0.59500  -0.58798  -0.58529
 Alpha  occ. eigenvalues --   -0.55484  -0.54452  -0.53330  -0.52557  -0.51832
 Alpha  occ. eigenvalues --   -0.50591  -0.49238  -0.47037  -0.44109  -0.43073
 Alpha  occ. eigenvalues --   -0.41782  -0.41666  -0.40333  -0.39475  -0.39174
 Alpha  occ. eigenvalues --   -0.37563  -0.37086  -0.33512  -0.33220  -0.32572
 Alpha  occ. eigenvalues --   -0.32243  -0.31800  -0.31588  -0.31138  -0.30241
 Alpha  occ. eigenvalues --   -0.29636  -0.29180  -0.26946  -0.26509  -0.26387
 Alpha  occ. eigenvalues --   -0.26214  -0.25817  -0.25075  -0.24656  -0.24326
 Alpha  occ. eigenvalues --   -0.24169  -0.22848  -0.22462  -0.22095  -0.21542
 Alpha  occ. eigenvalues --   -0.21053  -0.20652  -0.20351  -0.20175  -0.19881
 Alpha  occ. eigenvalues --   -0.19830  -0.18974  -0.18506  -0.18439  -0.17698
 Alpha  occ. eigenvalues --   -0.17398  -0.17182  -0.16772  -0.16385  -0.15813
 Alpha  occ. eigenvalues --   -0.15729  -0.14415  -0.14315  -0.13174  -0.11774
 Alpha  occ. eigenvalues --   -0.11347  -0.10006  -0.09691  -0.06618  -0.06094
 Alpha  occ. eigenvalues --   -0.05866  -0.05430  -0.05294  -0.04793  -0.03987
 Alpha  occ. eigenvalues --   -0.03688  -0.03255  -0.01710  -0.00272   0.07347
 Alpha virt. eigenvalues --    0.11325   0.12218   0.13230   0.13761   0.15164
 Alpha virt. eigenvalues --    0.16023   0.16099   0.16755   0.16937   0.17057
 Alpha virt. eigenvalues --    0.17393   0.17557   0.17933   0.18025   0.18572

 Mulliken charges:
               1
     1  C    0.322462
     2  C   -0.064724
     3  C    0.176663
     4  C    0.233666
     5  C    0.107894
     6  C   -0.466160
     7  C    0.217210
     8  C   -0.021142
     9  C    0.524704
    10  C   -0.444359
    11  C   -0.004781
    12  C    0.275000
    13  C   -0.517098
    14  C   -0.673799
    15  H    0.101532
    16  H    0.102903
    17  H    0.120742
    18  N   -0.155874
    19  N   -0.138069
    20  O   -0.434939
    21  O   -0.425366
    22  O   -0.426826
    23  O   -0.275521
    24  C   -0.211723
    25  H    0.127950
    26  H    0.133865
    27  H    0.157350
    28  C   -0.178883
    29  H    0.132946
    30  H    0.130924
    31  H    0.154907
    32  C    0.128860
    33  C   -0.497502
    34  S   -0.379472
    35  C   -0.469718
    36  H    0.097082
    37  C    0.433858
    38  O   -0.131279
    39  C    0.423527
    40  C   -0.246682
    41  C    0.040179
    42  S   -0.343034
    43  H    0.131503
    44  H    0.159733
    45  H    0.131962
    46  C   -0.027405
    47  O   -0.148955
    48  C   -0.209313
    49  H    0.097433
    50  C   -0.329002
    51  H    0.123738
    52  H    0.108151
    53  H    0.147116
    54  H    0.177764
 Sum of Mulliken charges =  -2.00000

 Dipole moment (field-independent basis, Debye):
    X=             19.1858    Y=              0.8363    Z=              1.6632  Tot=             19.2759
 Quadrupole moment (field-independent basis, Debye-Ang):
   XX=           -423.0299   YY=           -321.7527   ZZ=           -225.9817
   XY=              7.1378   XZ=             -4.4358   YZ=              7.1426

 Normal termination of Gaussian 16 at Fri Oct  8 11:03:23 2021.
