 Gaussian 16, Revision C.01,
 Gaussian 16:  ES64L-G16RevC.01  3-Jul-2019

 -------------------------------------
 # opt=modredundant b3lyp/6-311+g(d,p)
 -------------------------------------

 ----------
 NDI_75.pdb
 ----------
 Symbolic Z-matrix:
 Charge = -2 Multiplicity = 1

 SCF Done:  E(RB3LYP) =  -2359.36981539     A.U. after   24 cycles
 SCF Done:  E(RB3LYP) =  -2359.38793120     A.U. after   18 cycles
 SCF Done:  E(RB3LYP) =  -2359.39172808     A.U. after   17 cycles
 SCF Done:  E(RB3LYP) =  -2359.39221610     A.U. after   15 cycles
 SCF Done:  E(RB3LYP) =  -2359.39230072     A.U. after   14 cycles
 SCF Done:  E(RB3LYP) =  -2359.39242872     A.U. after   12 cycles
 SCF Done:  E(RB3LYP) =  -2359.39247687     A.U. after   12 cycles
 SCF Done:  E(RB3LYP) =  -2359.39252326     A.U. after   13 cycles
 SCF Done:  E(RB3LYP) =  -2359.39254531     A.U. after   13 cycles
 SCF Done:  E(RB3LYP) =  -2359.39264365     A.U. after   14 cycles
 SCF Done:  E(RB3LYP) =  -2359.39518933     A.U. after   12 cycles
 SCF Done:  E(RB3LYP) =  -2359.39519132     A.U. after   12 cycles
 SCF Done:  E(RB3LYP) =  -2359.39519175     A.U. after   11 cycles
 SCF Done:  E(RB3LYP) =  -2359.39519407     A.U. after   12 cycles
 SCF Done:  E(RB3LYP) =  -2359.39519535     A.U. after   11 cycles
 SCF Done:  E(RB3LYP) =  -2359.39519740     A.U. after   11 cycles
 SCF Done:  E(RB3LYP) =  -2359.39519827     A.U. after   11 cycles
 SCF Done:  E(RB3LYP) =  -2359.39519835     A.U. after   11 cycles
 SCF Done:  E(RB3LYP) =  -2359.39519837     A.U. after   11 cycles
 SCF Done:  E(RB3LYP) =  -2359.39519837     A.U. after    9 cycles
 Optimization completed.
    -- Stationary point found.

                         Standard orientation:
 ---------------------------------------------------------------------
 Center     Atomic      Atomic             Coordinates (Angstroms)
 Number     Number       Type             X           Y           Z
 ---------------------------------------------------------------------
      1          6           0       -3.055252   -2.882583    0.343219
      2          6           0       -2.529668   -1.551236    0.216212
      3          6           0       -3.405660   -0.448704    0.022090
      4          6           0       -4.806361   -0.632241   -0.064957
      5          6           0       -5.377253   -1.949398    0.051540
      6          6           0       -1.128201   -1.336343    0.310084
      7          6           0       -2.844572    0.880553   -0.095433
      8          6           0       -1.432666    1.070682    0.000458
      9          6           0       -0.577212   -0.077732    0.255527
     10          6           0       -0.891216    2.387894   -0.178815
     11          6           0       -3.223160    3.304073   -0.472631
     12          6           0       -3.729549    1.968002   -0.319764
     13          6           0       -5.141735    1.745873   -0.405131
     14          6           0       -5.664839    0.493261   -0.278737
     15          1           0       -6.730820    0.310199   -0.342011
     16          1           0       -5.771113    2.611068   -0.576546
     17          1           0       -0.501412   -2.202324    0.485583
     18          7           0       -1.821178    3.430167   -0.407495
     19          7           0       -4.458781   -3.006113    0.248864
     20          8           0       -2.379128   -3.916477    0.527122
     21          8           0       -6.600210   -2.199742   -0.010329
     22          8           0       -3.930807    4.319003   -0.660383
     23          8           0        0.321973    2.693535   -0.159706
     24          6           0       -1.246209    4.757605   -0.590360
     25          1           0       -0.695704    5.061831    0.304752
     26          1           0       -0.534304    4.747718   -1.419507
     27          1           0       -2.067488    5.442585   -0.786673
     28          6           0       -4.986922   -4.359160    0.373682
     29          1           0       -4.551815   -5.005637   -0.393128
     30          1           0       -4.718456   -4.783008    1.345567
     31          1           0       -6.067043   -4.299097    0.264514
     32          6           0        0.878799    0.041013    0.452906
     33          6           0        1.571445    0.500748    1.549831
     34         16           0        1.978108   -0.687981   -0.692907
     35          6           0        2.966484    0.320084    1.451313
     36          1           0        1.067576    0.981441    2.374639
     37          6           0        3.399501   -0.309995    0.288862
     38          8           0        3.887621    0.687273    2.401569
     39          6           0        4.743773   -0.607882   -0.114012
     40          6           0        3.445489    1.575115    3.415894
     41          6           0        5.212978   -1.089085   -1.331696
     42         16           0        6.127283   -0.402266    0.972895
     43          1           0        4.334090    1.850007    3.986378
     44          1           0        2.988894    2.471980    2.984445
     45          1           0        2.723401    1.091352    4.083937
     46          6           0        6.617736   -1.294887   -1.392521
     47          8           0        4.385385   -1.383946   -2.396301
     48          6           0        7.254949   -0.968354   -0.230203
     49          1           0        7.111744   -1.674829   -2.278552
     50          6           0        4.196828   -0.303524   -3.314190
     51          1           0        8.309059   -1.011398   -0.002636
     52          1           0        5.147442   -0.024750   -3.787341
     53          1           0        3.499583   -0.660056   -4.073338
     54          1           0        3.766104    0.568654   -2.814264
 ---------------------------------------------------------------------

 The electronic state is 1-A.
 Alpha  occ. eigenvalues --  -88.72305 -88.69121 -19.00293 -18.99311 -18.86586
 Alpha  occ. eigenvalues --  -18.86295 -18.86225 -18.85956 -14.14482 -14.14290
 Alpha  occ. eigenvalues --  -10.08160 -10.07362 -10.06925 -10.06683 -10.05980
 Alpha  occ. eigenvalues --  -10.05056 -10.04767 -10.04736 -10.04693 -10.04583
 Alpha  occ. eigenvalues --  -10.03200 -10.02933 -10.02859 -10.00020  -9.99815
 Alpha  occ. eigenvalues --   -9.99092  -9.97825  -9.97693  -9.97681  -9.96031
 Alpha  occ. eigenvalues --   -9.95729  -9.95183  -9.95104  -9.95059  -9.95017
 Alpha  occ. eigenvalues --   -9.94952  -7.80858  -7.77687  -5.77170  -5.76795
 Alpha  occ. eigenvalues --   -5.76416  -5.74015  -5.73617  -5.73229  -0.91579
 Alpha  occ. eigenvalues --   -0.90556  -0.82326  -0.82091  -0.79847  -0.79557
 Alpha  occ. eigenvalues --   -0.72929  -0.71071  -0.70813  -0.70187  -0.66105
 Alpha  occ. eigenvalues --   -0.62158  -0.60044  -0.59351  -0.58893  -0.58410
 Alpha  occ. eigenvalues --   -0.55398  -0.54459  -0.53212  -0.52670  -0.51944
 Alpha  occ. eigenvalues --   -0.50536  -0.49351  -0.47125  -0.44029  -0.43014
 Alpha  occ. eigenvalues --   -0.41902  -0.41708  -0.40315  -0.39588  -0.39045
 Alpha  occ. eigenvalues --   -0.37420  -0.37073  -0.33617  -0.33322  -0.32409
 Alpha  occ. eigenvalues --   -0.32101  -0.31717  -0.31507  -0.31161  -0.30178
 Alpha  occ. eigenvalues --   -0.29625  -0.29134  -0.26909  -0.26546  -0.26481
 Alpha  occ. eigenvalues --   -0.26304  -0.25802  -0.25019  -0.24749  -0.24304
 Alpha  occ. eigenvalues --   -0.24189  -0.22852  -0.22431  -0.22108  -0.21483
 Alpha  occ. eigenvalues --   -0.21088  -0.20616  -0.20461  -0.20238  -0.19943
 Alpha  occ. eigenvalues --   -0.19797  -0.19047  -0.18629  -0.18510  -0.17719
 Alpha  occ. eigenvalues --   -0.17524  -0.17180  -0.16801  -0.16424  -0.15937
 Alpha  occ. eigenvalues --   -0.15616  -0.14553  -0.14447  -0.13064  -0.11857
 Alpha  occ. eigenvalues --   -0.11351  -0.09982  -0.09630  -0.06600  -0.06227
 Alpha  occ. eigenvalues --   -0.05963  -0.05577  -0.05364  -0.04931  -0.04110
 Alpha  occ. eigenvalues --   -0.03790  -0.03352  -0.01607  -0.00365   0.07216
 Alpha virt. eigenvalues --    0.11462   0.12316   0.13314   0.13836   0.15202
 Alpha virt. eigenvalues --    0.16101   0.16143   0.16828   0.16924   0.17093
 Alpha virt. eigenvalues --    0.17318   0.17531   0.17996   0.18124   0.18642

 Mulliken charges:
               1
     1  C    0.326096
     2  C   -0.104869
     3  C    0.168890
     4  C    0.233792
     5  C    0.109832
     6  C   -0.461753
     7  C    0.211485
     8  C    0.013439
     9  C    0.517193
    10  C   -0.433177
    11  C   -0.011255
    12  C    0.269728
    13  C   -0.501618
    14  C   -0.668297
    15  H    0.101857
    16  H    0.103379
    17  H    0.127471
    18  N   -0.156078
    19  N   -0.138156
    20  O   -0.432941
    21  O   -0.422591
    22  O   -0.425953
    23  O   -0.276629
    24  C   -0.210321
    25  H    0.127792
    26  H    0.134577
    27  H    0.156983
    28  C   -0.179091
    29  H    0.133420
    30  H    0.131580
    31  H    0.154980
    32  C    0.064310
    33  C   -0.409029
    34  S   -0.483208
    35  C   -0.438292
    36  H    0.099622
    37  C    0.514562
    38  O   -0.130682
    39  C    0.398395
    40  C   -0.248694
    41  C    0.022722
    42  S   -0.345728
    43  H    0.131003
    44  H    0.160759
    45  H    0.131021
    46  C   -0.036421
    47  O   -0.146084
    48  C   -0.208742
    49  H    0.096596
    50  C   -0.323620
    51  H    0.122993
    52  H    0.108077
    53  H    0.146650
    54  H    0.174023
 Sum of Mulliken charges =  -2.00000

 Dipole moment (field-independent basis, Debye):
    X=             18.5384    Y=              1.0863    Z=              1.3758  Tot=             18.6211
 Quadrupole moment (field-independent basis, Debye-Ang):
   XX=           -423.5183   YY=           -320.6347   ZZ=           -226.8671
   XY=              7.3918   XZ=             -4.8439   YZ=             11.6784

 Normal termination of Gaussian 16 at Fri Oct  8 15:25:20 2021.
