 Gaussian 16, Revision C.01,
 Gaussian 16:  ES64L-G16RevC.01  3-Jul-2019

 -------------------------------------
 # opt=modredundant b3lyp/6-311+g(d,p)
 -------------------------------------

 -----------
 NDI_-20.pdb
 -----------
 Symbolic Z-matrix:
 Charge = -1 Multiplicity = 2

 SCF Done:  E(UB3LYP) =  -2359.41856553     A.U. after   24 cycles
 SCF Done:  E(UB3LYP) =  -2359.40723443     A.U. after   24 cycles
 SCF Done:  E(UB3LYP) =  -2359.42266231     A.U. after   19 cycles
 SCF Done:  E(UB3LYP) =  -2359.42497468     A.U. after   21 cycles
 SCF Done:  E(UB3LYP) =  -2359.42655773     A.U. after   21 cycles
 SCF Done:  E(UB3LYP) =  -2359.42690471     A.U. after   22 cycles
 SCF Done:  E(UB3LYP) =  -2359.42707445     A.U. after   18 cycles
 SCF Done:  E(UB3LYP) =  -2359.42725103     A.U. after   19 cycles
 SCF Done:  E(UB3LYP) =  -2359.42726656     A.U. after   16 cycles
 SCF Done:  E(UB3LYP) =  -2359.42727184     A.U. after   15 cycles
 SCF Done:  E(UB3LYP) =  -2359.42729790     A.U. after   11 cycles
 SCF Done:  E(UB3LYP) =  -2359.42729878     A.U. after   13 cycles
 SCF Done:  E(UB3LYP) =  -2359.42729911     A.U. after   12 cycles
 SCF Done:  E(UB3LYP) =  -2359.42729941     A.U. after   12 cycles
 SCF Done:  E(UB3LYP) =  -2359.42729954     A.U. after   13 cycles
 SCF Done:  E(UB3LYP) =  -2359.42729960     A.U. after    9 cycles
 SCF Done:  E(UB3LYP) =  -2359.42729964     A.U. after    9 cycles
 SCF Done:  E(UB3LYP) =  -2359.42729968     A.U. after    9 cycles
 SCF Done:  E(UB3LYP) =  -2359.42729971     A.U. after    9 cycles
 SCF Done:  E(UB3LYP) =  -2359.42729975     A.U. after   10 cycles
 Optimization completed.
    -- Stationary point found.

                         Standard orientation:
 ---------------------------------------------------------------------
 Center     Atomic      Atomic             Coordinates (Angstroms)
 Number     Number       Type             X           Y           Z
 ---------------------------------------------------------------------
      1          6           0        2.603996   -3.014482    0.175564
      2          6           0        2.288512   -1.593672    0.053286
      3          6           0        3.320442   -0.625879    0.064407
      4          6           0        4.672106   -1.011290    0.200752
      5          6           0        5.030725   -2.424193    0.328635
      6          6           0        0.957081   -1.187795   -0.005506
      7          6           0        2.966421    0.757943   -0.073968
      8          6           0        1.598703    1.149985   -0.216849
      9          6           0        0.561892    0.149912   -0.116586
     10          6           0        1.338913    2.535922   -0.606461
     11          6           0        3.750203    3.126157   -0.251970
     12          6           0        4.023358    1.705668   -0.076769
     13          6           0        5.361840    1.295889    0.076748
     14          6           0        5.687133   -0.037455    0.212789
     15          1           0        6.713626   -0.362680    0.323480
     16          1           0        6.124506    2.064373    0.076023
     17          1           0        0.212476   -1.966885    0.096517
     18          7           0        2.414793    3.448944   -0.518197
     19          7           0        3.964676   -3.344434    0.300030
     20          8           0        1.762150   -3.913448    0.175718
     21          8           0        6.190802   -2.818811    0.452941
     22          8           0        4.617013    4.002873   -0.203466
     23          8           0        0.262812    2.974344   -1.020091
     24          6           0        2.095724    4.841275   -0.837022
     25          1           0        1.784093    4.929987   -1.879918
     26          1           0        1.270091    5.184992   -0.212397
     27          1           0        2.989319    5.431712   -0.656491
     28          6           0        4.272910   -4.770028    0.418844
     29          1           0        3.795523   -5.183407    1.309498
     30          1           0        3.885157   -5.307135   -0.448410
     31          1           0        5.352351   -4.870880    0.483355
     32          6           0       -0.871629    0.413301    0.059617
     33          6           0       -1.529467    1.531022    0.522632
     34         16           0       -2.038743   -0.835130   -0.362184
     35          6           0       -2.932178    1.382516    0.570424
     36          1           0       -1.014594    2.431937    0.804904
     37          6           0       -3.406061    0.155339    0.127421
     38          8           0       -3.820409    2.326885    1.005590
     39          6           0       -4.770371   -0.294956    0.053556
     40          6           0       -3.309748    3.621410    1.299432
     41          6           0       -5.251360   -1.522346   -0.385345
     42         16           0       -6.132575    0.710546    0.542441
     43          1           0       -4.176004    4.237640    1.539349
     44          1           0       -2.634111    3.594457    2.161371
     45          1           0       -2.781655    4.042931    0.438597
     46          6           0       -6.666602   -1.656245   -0.327738
     47          8           0       -4.371040   -2.465433   -0.834759
     48          6           0       -7.274731   -0.529920    0.153797
     49          1           0       -7.207349   -2.542215   -0.629269
     50          6           0       -4.867799   -3.764240   -1.107234
     51          1           0       -8.329421   -0.356487    0.301333
     52          1           0       -5.580670   -3.754314   -1.940629
     53          1           0       -4.002140   -4.365028   -1.382973
     54          1           0       -5.347110   -4.201526   -0.223491
 ---------------------------------------------------------------------

 The electronic state is 2-A.
 Alpha  occ. eigenvalues --  -88.80153 -88.78075 -19.08646 -19.08032 -18.99644
 Alpha  occ. eigenvalues --  -18.99502 -18.99119 -18.98946 -14.26536 -14.26150
 Alpha  occ. eigenvalues --  -10.18138 -10.17860 -10.17698 -10.17556 -10.16308
 Alpha  occ. eigenvalues --  -10.16004 -10.15312 -10.14941 -10.13406 -10.12683
 Alpha  occ. eigenvalues --  -10.12061 -10.11801 -10.11062 -10.10647 -10.10598
 Alpha  occ. eigenvalues --  -10.10380 -10.10300 -10.09928 -10.09286 -10.08730
 Alpha  occ. eigenvalues --  -10.08615 -10.08531 -10.08374 -10.08174 -10.07960
 Alpha  occ. eigenvalues --  -10.07895  -7.88706  -7.86643  -5.85014  -5.84631
 Alpha  occ. eigenvalues --   -5.84276  -5.82966  -5.82577  -5.82191  -1.00253
 Alpha  occ. eigenvalues --   -0.99408  -0.95708  -0.95383  -0.93646  -0.93238
 Alpha  occ. eigenvalues --   -0.83794  -0.83352  -0.81311  -0.79677  -0.78607
 Alpha  occ. eigenvalues --   -0.74095  -0.71674  -0.69823  -0.68351  -0.66904
 Alpha  occ. eigenvalues --   -0.65793  -0.65635  -0.63914  -0.63537  -0.61916
 Alpha  occ. eigenvalues --   -0.61112  -0.60392  -0.58450  -0.55118  -0.54028
 Alpha  occ. eigenvalues --   -0.53564  -0.52402  -0.51501  -0.49885  -0.48136
 Alpha  occ. eigenvalues --   -0.47421  -0.46022  -0.45750  -0.45244  -0.43151
 Alpha  occ. eigenvalues --   -0.41988  -0.40859  -0.40716  -0.39812  -0.39676
 Alpha  occ. eigenvalues --   -0.39324  -0.38340  -0.37994  -0.37912  -0.37492
 Alpha  occ. eigenvalues --   -0.37036  -0.36687  -0.36563  -0.35080  -0.34260
 Alpha  occ. eigenvalues --   -0.34203  -0.33788  -0.33204  -0.33058  -0.32702
 Alpha  occ. eigenvalues --   -0.32611  -0.32259  -0.31317  -0.30695  -0.30562
 Alpha  occ. eigenvalues --   -0.30340  -0.30111  -0.29897  -0.29611  -0.29384
 Alpha  occ. eigenvalues --   -0.29017  -0.28552  -0.27706  -0.27450  -0.27018
 Alpha  occ. eigenvalues --   -0.26086  -0.25549  -0.25185  -0.24904  -0.23614
 Alpha  occ. eigenvalues --   -0.22797  -0.20355  -0.19419  -0.18652  -0.17946
 Alpha  occ. eigenvalues --   -0.17811  -0.17261  -0.16982  -0.16438  -0.15989
 Alpha  occ. eigenvalues --   -0.15826  -0.14665  -0.13845  -0.10206  -0.05116
 Alpha virt. eigenvalues --    0.02657   0.04644   0.05796   0.06278   0.06883
 Alpha virt. eigenvalues --    0.07371   0.07511   0.08604   0.08916   0.09131
 Alpha virt. eigenvalues --    0.09565   0.09827   0.10226   0.10269   0.10630

  Beta  occ. eigenvalues --  -88.80150 -88.78061 -19.08632 -19.08040 -18.99473
  Beta  occ. eigenvalues --  -18.99308 -18.98939 -18.98739 -14.26583 -14.26201
  Beta  occ. eigenvalues --  -10.18094 -10.17819 -10.17643 -10.17512 -10.16308
  Beta  occ. eigenvalues --  -10.15969 -10.15311 -10.14974 -10.13431 -10.12649
  Beta  occ. eigenvalues --  -10.11987 -10.11854 -10.11075 -10.10598 -10.10510
  Beta  occ. eigenvalues --  -10.10379 -10.10350 -10.09985 -10.09111 -10.08587
  Beta  occ. eigenvalues --  -10.08442 -10.08381 -10.08344 -10.08112 -10.07883
  Beta  occ. eigenvalues --  -10.07816  -7.88703  -7.86630  -5.85013  -5.84630
  Beta  occ. eigenvalues --   -5.84268  -5.82959  -5.82569  -5.82146  -1.00224
  Beta  occ. eigenvalues --   -0.99427  -0.95483  -0.95143  -0.93336  -0.92910
  Beta  occ. eigenvalues --   -0.83686  -0.83238  -0.81277  -0.79561  -0.78515
  Beta  occ. eigenvalues --   -0.73787  -0.71383  -0.69727  -0.68299  -0.66809
  Beta  occ. eigenvalues --   -0.65687  -0.65258  -0.63820  -0.63476  -0.61869
  Beta  occ. eigenvalues --   -0.61062  -0.60140  -0.58193  -0.54972  -0.53838
  Beta  occ. eigenvalues --   -0.53471  -0.52234  -0.51454  -0.49839  -0.48110
  Beta  occ. eigenvalues --   -0.47359  -0.45951  -0.45673  -0.45128  -0.43000
  Beta  occ. eigenvalues --   -0.41893  -0.40821  -0.40672  -0.39826  -0.39639
  Beta  occ. eigenvalues --   -0.39166  -0.38128  -0.37918  -0.37760  -0.37459
  Beta  occ. eigenvalues --   -0.36931  -0.36628  -0.36464  -0.34988  -0.34155
  Beta  occ. eigenvalues --   -0.34092  -0.33701  -0.33132  -0.32963  -0.32542
  Beta  occ. eigenvalues --   -0.32367  -0.32019  -0.31201  -0.30417  -0.30280
  Beta  occ. eigenvalues --   -0.30186  -0.30021  -0.29631  -0.29222  -0.29058
  Beta  occ. eigenvalues --   -0.28514  -0.28308  -0.27631  -0.27213  -0.26771
  Beta  occ. eigenvalues --   -0.25994  -0.25499  -0.25049  -0.24789  -0.23519
  Beta  occ. eigenvalues --   -0.22212  -0.19937  -0.18546  -0.18465  -0.17636
  Beta  occ. eigenvalues --   -0.17377  -0.16950  -0.16714  -0.16222  -0.15731
  Beta  occ. eigenvalues --   -0.15441  -0.14412  -0.12576  -0.09739
  Beta virt. eigenvalues --   -0.00863   0.03040   0.05627   0.05797   0.06695
  Beta virt. eigenvalues --    0.06889   0.07508   0.08118   0.08610   0.08919
  Beta virt. eigenvalues --    0.09138   0.09578   0.10024   0.10246   0.10305

 Mulliken charges and spin densities:
               1          2
     1  C    0.230006   0.014957
     2  C   -0.117999   0.129330
     3  C    0.175931  -0.038075
     4  C    0.206466   0.097255
     5  C    0.171720   0.017907
     6  C   -0.043367   0.017875
     7  C    0.240685  -0.029894
     8  C    0.516064   0.133301
     9  C    0.207278   0.093486
    10  C   -0.842454   0.012732
    11  C    0.182514   0.018848
    12  C    0.133248   0.098439
    13  C   -0.483722   0.055001
    14  C   -0.579279   0.062885
    15  H    0.129866  -0.004337
    16  H    0.132504  -0.003998
    17  H    0.151088  -0.000812
    18  N   -0.060457  -0.020416
    19  N   -0.139999  -0.018965
    20  O   -0.358248   0.072472
    21  O   -0.341917   0.063842
    22  O   -0.350896   0.067706
    23  O   -0.301919   0.077549
    24  C   -0.158158   0.001756
    25  H    0.157352  -0.001083
    26  H    0.146987  -0.000778
    27  H    0.169500  -0.000371
    28  C   -0.192169   0.001091
    29  H    0.153665  -0.000884
    30  H    0.153599  -0.000828
    31  H    0.168345  -0.000320
    32  C   -0.098451  -0.035782
    33  C   -0.336829   0.052149
    34  S   -0.697995   0.023049
    35  C   -0.238790  -0.019117
    36  H    0.135897  -0.003349
    37  C    0.702244   0.043074
    38  O   -0.130829  -0.001302
    39  C    0.888524  -0.016077
    40  C   -0.243417   0.000055
    41  C   -0.017509   0.023957
    42  S   -0.275595   0.001976
    43  H    0.146695   0.000005
    44  H    0.137472  -0.000251
    45  H    0.165033  -0.000181
    46  C   -0.599071  -0.009882
    47  O   -0.119417   0.002107
    48  C   -0.312015   0.024468
    49  H    0.115819   0.000480
    50  C   -0.245865  -0.000221
    51  H    0.141372  -0.001524
    52  H    0.125047   0.000283
    53  H    0.165393   0.000000
    54  H    0.136050   0.000414
 Sum of Mulliken charges =  -1.00000   1.00000

 Dipole moment (field-independent basis, Debye):
    X=            -11.2476    Y=             -0.3870    Z=              0.6141  Tot=             11.2710
 Quadrupole moment (field-independent basis, Debye-Ang):
   XX=           -315.6791   YY=           -256.1030   ZZ=           -229.5826
   XY=              5.3758   XZ=             -1.5863   YZ=             11.3799

 Normal termination of Gaussian 16 at Tue Oct  5 18:40:01 2021.
