 Gaussian 16, Revision C.01,
 Gaussian 16:  ES64L-G16RevC.01  3-Jul-2019

 -------------------------------------
 # opt=modredundant b3lyp/6-311+g(d,p)
 -------------------------------------

 -----------
 NDI_-35.pdb
 -----------
 Symbolic Z-matrix:
 Charge = -1 Multiplicity = 2

 SCF Done:  E(UB3LYP) =  -2359.42385573     A.U. after   23 cycles
 SCF Done:  E(UB3LYP) =  -2359.42768398     A.U. after   19 cycles
 SCF Done:  E(UB3LYP) =  -2359.42742916     A.U. after   19 cycles
 SCF Done:  E(UB3LYP) =  -2359.42852662     A.U. after   18 cycles
 SCF Done:  E(UB3LYP) =  -2359.42861009     A.U. after   14 cycles
 SCF Done:  E(UB3LYP) =  -2359.42866169     A.U. after   17 cycles
 SCF Done:  E(UB3LYP) =  -2359.42867520     A.U. after   17 cycles
 SCF Done:  E(UB3LYP) =  -2359.42868375     A.U. after   12 cycles
 SCF Done:  E(UB3LYP) =  -2359.42868695     A.U. after   14 cycles
 SCF Done:  E(UB3LYP) =  -2359.42868964     A.U. after   14 cycles
 SCF Done:  E(UB3LYP) =  -2359.42870345     A.U. after   11 cycles
 SCF Done:  E(UB3LYP) =  -2359.42870424     A.U. after   13 cycles
 SCF Done:  E(UB3LYP) =  -2359.42870479     A.U. after   13 cycles
 SCF Done:  E(UB3LYP) =  -2359.42870507     A.U. after   11 cycles
 SCF Done:  E(UB3LYP) =  -2359.42870523     A.U. after    9 cycles
 SCF Done:  E(UB3LYP) =  -2359.42870530     A.U. after    9 cycles
 SCF Done:  E(UB3LYP) =  -2359.42870536     A.U. after   10 cycles
 SCF Done:  E(UB3LYP) =  -2359.42870543     A.U. after    9 cycles
 SCF Done:  E(UB3LYP) =  -2359.42870551     A.U. after   10 cycles
 SCF Done:  E(UB3LYP) =  -2359.42870554     A.U. after    9 cycles
 Optimization completed.
    -- Stationary point found.

                         Standard orientation:
 ---------------------------------------------------------------------
 Center     Atomic      Atomic             Coordinates (Angstroms)
 Number     Number       Type             X           Y           Z
 ---------------------------------------------------------------------
      1          6           0        2.684765   -2.981938    0.361065
      2          6           0        2.330517   -1.577569    0.176226
      3          6           0        3.339300   -0.591123    0.073640
      4          6           0        4.705885   -0.942663    0.150194
      5          6           0        5.102947   -2.338141    0.335686
      6          6           0        0.986383   -1.202888    0.154963
      7          6           0        2.950556    0.777545   -0.117339
      8          6           0        1.569460    1.135524   -0.197110
      9          6           0        0.567351    0.120287   -0.004665
     10          6           0        1.244463    2.507358   -0.591073
     11          6           0        3.667375    3.147900   -0.464550
     12          6           0        3.983201    1.743890   -0.234830
     13          6           0        5.337206    1.367296   -0.143600
     14          6           0        5.697744    0.049497    0.045592
     15          1           0        6.735832   -0.250321    0.111131
     16          1           0        6.082317    2.147625   -0.233492
     17          1           0        0.256185   -1.983730    0.324032
     18          7           0        2.308449    3.436812   -0.638925
     19          7           0        4.057533   -3.278049    0.424287
     20          8           0        1.864723   -3.895633    0.461478
     21          8           0        6.277096   -2.703326    0.411888
     22          8           0        4.517643    4.039665   -0.528573
     23          8           0        0.122684    2.917570   -0.895046
     24          6           0        1.935935    4.810931   -0.978315
     25          1           0        1.504296    4.848678   -1.980517
     26          1           0        1.183198    5.176076   -0.277927
     27          1           0        2.836074    5.416592   -0.927822
     28          6           0        4.403691   -4.688189    0.605786
     29          1           0        3.984562   -5.058816    1.543315
     30          1           0        3.981695   -5.281841   -0.206973
     31          1           0        5.487051   -4.764220    0.615711
     32          6           0       -0.871482    0.369682    0.160622
     33          6           0       -1.523887    1.405937    0.785255
     34         16           0       -2.027298   -0.804020   -0.439356
     35          6           0       -2.928249    1.257043    0.798163
     36          1           0       -1.002509    2.250110    1.204113
     37          6           0       -3.398943    0.107421    0.178106
     38          8           0       -3.819585    2.128815    1.360787
     39          6           0       -4.764071   -0.321453    0.022924
     40          6           0       -3.318386    3.385857    1.797738
     41          6           0       -5.241549   -1.472915   -0.589540
     42         16           0       -6.130594    0.613759    0.625101
     43          1           0       -4.188051    3.963248    2.110900
     44          1           0       -2.637744    3.267622    2.648126
     45          1           0       -2.799336    3.907087    0.987401
     46          6           0       -6.658143   -1.605866   -0.574004
     47          8           0       -4.356866   -2.348839   -1.153326
     48          6           0       -7.270503   -0.554184    0.049592
     49          1           0       -7.196592   -2.438461   -1.004312
     50          6           0       -4.849700   -3.604192   -1.588249
     51          1           0       -8.326824   -0.397513    0.204006
     52          1           0       -5.555021   -3.491984   -2.420583
     53          1           0       -3.981107   -4.166596   -1.928398
     54          1           0       -5.336371   -4.147025   -0.769487
 ---------------------------------------------------------------------

 The electronic state is 2-A.
 Alpha  occ. eigenvalues --  -88.80130 -88.78170 -19.08637 -19.08035 -18.99554
 Alpha  occ. eigenvalues --  -18.99417 -18.99117 -18.98906 -14.26469 -14.26140
 Alpha  occ. eigenvalues --  -10.18050 -10.17776 -10.17678 -10.17564 -10.16327
 Alpha  occ. eigenvalues --  -10.15959 -10.15366 -10.14957 -10.13390 -10.12651
 Alpha  occ. eigenvalues --  -10.12009 -10.11730 -10.11044 -10.10544 -10.10541
 Alpha  occ. eigenvalues --  -10.10329 -10.10282 -10.09940 -10.09295 -10.08679
 Alpha  occ. eigenvalues --  -10.08582 -10.08523 -10.08295 -10.08288 -10.07947
 Alpha  occ. eigenvalues --  -10.07885  -7.88683  -7.86733  -5.84992  -5.84609
 Alpha  occ. eigenvalues --   -5.84253  -5.83054  -5.82665  -5.82283  -1.00231
 Alpha  occ. eigenvalues --   -0.99414  -0.95620  -0.95358  -0.93553  -0.93225
 Alpha  occ. eigenvalues --   -0.83720  -0.83328  -0.81298  -0.79698  -0.78620
 Alpha  occ. eigenvalues --   -0.74081  -0.71654  -0.69813  -0.68334  -0.66870
 Alpha  occ. eigenvalues --   -0.65832  -0.65601  -0.63909  -0.63502  -0.61932
 Alpha  occ. eigenvalues --   -0.61074  -0.60364  -0.58467  -0.55059  -0.53998
 Alpha  occ. eigenvalues --   -0.53527  -0.52364  -0.51512  -0.49866  -0.48124
 Alpha  occ. eigenvalues --   -0.47435  -0.45964  -0.45766  -0.45218  -0.43097
 Alpha  occ. eigenvalues --   -0.41919  -0.40867  -0.40725  -0.39860  -0.39721
 Alpha  occ. eigenvalues --   -0.39307  -0.38286  -0.37974  -0.37892  -0.37490
 Alpha  occ. eigenvalues --   -0.37004  -0.36645  -0.36554  -0.35044  -0.34254
 Alpha  occ. eigenvalues --   -0.34201  -0.33780  -0.33260  -0.32975  -0.32671
 Alpha  occ. eigenvalues --   -0.32578  -0.32252  -0.31385  -0.30610  -0.30521
 Alpha  occ. eigenvalues --   -0.30284  -0.30002  -0.29895  -0.29547  -0.29325
 Alpha  occ. eigenvalues --   -0.29100  -0.28640  -0.27744  -0.27386  -0.27029
 Alpha  occ. eigenvalues --   -0.26067  -0.25567  -0.25062  -0.24653  -0.23844
 Alpha  occ. eigenvalues --   -0.22840  -0.20274  -0.19436  -0.18581  -0.17918
 Alpha  occ. eigenvalues --   -0.17764  -0.17219  -0.16964  -0.16362  -0.15976
 Alpha  occ. eigenvalues --   -0.15863  -0.14557  -0.13871  -0.10211  -0.05121
 Alpha virt. eigenvalues --    0.02895   0.04661   0.05792   0.06337   0.06870
 Alpha virt. eigenvalues --    0.07379   0.07480   0.08613   0.08953   0.09151
 Alpha virt. eigenvalues --    0.09466   0.09599   0.10108   0.10225   0.10630

  Beta  occ. eigenvalues --  -88.80128 -88.78159 -19.08626 -19.08042 -18.99377
  Beta  occ. eigenvalues --  -18.99218 -18.98936 -18.98699 -14.26518 -14.26191
  Beta  occ. eigenvalues --  -10.18005 -10.17733 -10.17625 -10.17520 -10.16327
  Beta  occ. eigenvalues --  -10.15932 -10.15365 -10.14984 -10.13409 -10.12624
  Beta  occ. eigenvalues --  -10.11949 -10.11774 -10.11054 -10.10540 -10.10419
  Beta  occ. eigenvalues --  -10.10334 -10.10328 -10.09997 -10.09118 -10.08531
  Beta  occ. eigenvalues --  -10.08403 -10.08371 -10.08258 -10.08236 -10.07866
  Beta  occ. eigenvalues --  -10.07805  -7.88681  -7.86723  -5.84991  -5.84608
  Beta  occ. eigenvalues --   -5.84246  -5.83048  -5.82659  -5.82251  -1.00208
  Beta  occ. eigenvalues --   -0.99429  -0.95388  -0.95117  -0.93233  -0.92894
  Beta  occ. eigenvalues --   -0.83608  -0.83213  -0.81270  -0.79586  -0.78526
  Beta  occ. eigenvalues --   -0.73771  -0.71357  -0.69721  -0.68288  -0.66778
  Beta  occ. eigenvalues --   -0.65723  -0.65213  -0.63819  -0.63443  -0.61893
  Beta  occ. eigenvalues --   -0.61024  -0.60115  -0.58200  -0.54914  -0.53804
  Beta  occ. eigenvalues --   -0.53436  -0.52190  -0.51472  -0.49819  -0.48101
  Beta  occ. eigenvalues --   -0.47372  -0.45906  -0.45680  -0.45099  -0.42944
  Beta  occ. eigenvalues --   -0.41820  -0.40837  -0.40687  -0.39869  -0.39692
  Beta  occ. eigenvalues --   -0.39147  -0.38065  -0.37909  -0.37725  -0.37461
  Beta  occ. eigenvalues --   -0.36904  -0.36587  -0.36448  -0.34957  -0.34144
  Beta  occ. eigenvalues --   -0.34092  -0.33682  -0.33200  -0.32899  -0.32511
  Beta  occ. eigenvalues --   -0.32338  -0.31983  -0.31282  -0.30337  -0.30226
  Beta  occ. eigenvalues --   -0.30148  -0.29904  -0.29614  -0.29179  -0.29012
  Beta  occ. eigenvalues --   -0.28608  -0.28302  -0.27677  -0.27154  -0.26774
  Beta  occ. eigenvalues --   -0.25993  -0.25529  -0.24958  -0.24526  -0.23775
  Beta  occ. eigenvalues --   -0.22188  -0.19906  -0.18543  -0.18394  -0.17596
  Beta  occ. eigenvalues --   -0.17312  -0.16887  -0.16728  -0.16135  -0.15697
  Beta  occ. eigenvalues --   -0.15507  -0.14348  -0.12523  -0.09835
  Beta virt. eigenvalues --   -0.00801   0.03223   0.05672   0.05794   0.06750
  Beta virt. eigenvalues --    0.06880   0.07469   0.08146   0.08620   0.08959
  Beta virt. eigenvalues --    0.09158   0.09525   0.09770   0.10124   0.10234

 Mulliken charges and spin densities:
               1          2
     1  C    0.278209   0.015356
     2  C   -0.182896   0.130979
     3  C    0.117647  -0.038822
     4  C    0.204802   0.101333
     5  C    0.186258   0.017753
     6  C   -0.369834   0.029162
     7  C    0.207458  -0.032340
     8  C    0.378794   0.134773
     9  C    0.431589   0.088372
    10  C   -0.554513   0.018155
    11  C    0.179320   0.019250
    12  C    0.136968   0.100977
    13  C   -0.480030   0.058225
    14  C   -0.581194   0.063016
    15  H    0.129956  -0.004371
    16  H    0.132012  -0.004178
    17  H    0.157214  -0.001619
    18  N   -0.089764  -0.020484
    19  N   -0.140956  -0.019517
    20  O   -0.357599   0.074401
    21  O   -0.343747   0.066373
    22  O   -0.349258   0.068442
    23  O   -0.277176   0.077880
    24  C   -0.175037   0.001523
    25  H    0.156708  -0.001060
    26  H    0.148261  -0.000805
    27  H    0.169167  -0.000365
    28  C   -0.191511   0.001148
    29  H    0.153449  -0.000909
    30  H    0.153521  -0.000861
    31  H    0.168556  -0.000333
    32  C    0.090648  -0.038084
    33  C   -0.435436   0.037429
    34  S   -0.626572   0.019813
    35  C   -0.228571  -0.013879
    36  H    0.125081  -0.003013
    37  C    0.678695   0.037993
    38  O   -0.130634  -0.001092
    39  C    0.821043  -0.014028
    40  C   -0.243185   0.000243
    41  C   -0.052645   0.018917
    42  S   -0.286708   0.001797
    43  H    0.146198   0.000003
    44  H    0.136558  -0.000195
    45  H    0.163707  -0.000128
    46  C   -0.572166  -0.007959
    47  O   -0.120098   0.001761
    48  C   -0.296570   0.019246
    49  H    0.115372   0.000380
    50  C   -0.247345  -0.000005
    51  H    0.140908  -0.001194
    52  H    0.125292   0.000213
    53  H    0.163509   0.000012
    54  H    0.136544   0.000316
 Sum of Mulliken charges =  -1.00000   1.00000

 Dipole moment (field-independent basis, Debye):
    X=            -11.2614    Y=             -0.3568    Z=              0.5824  Tot=             11.2821
 Quadrupole moment (field-independent basis, Debye-Ang):
   XX=           -316.8409   YY=           -257.7601   ZZ=           -227.4399
   XY=              5.2765   XZ=              1.7203   YZ=             15.8654

 Normal termination of Gaussian 16 at Tue Oct  5 14:19:26 2021.
