 Gaussian 16, Revision C.01,
 Gaussian 16:  ES64L-G16RevC.01  3-Jul-2019

 -------------------------------------
 # opt=modredundant b3lyp/6-311+g(d,p)
 -------------------------------------

 ------------
 NDI_-155.pdb
 ------------
 Symbolic Z-matrix:
 Charge = -1 Multiplicity = 2

 SCF Done:  E(UB3LYP) =  -2359.39588625     A.U. after   23 cycles
 SCF Done:  E(UB3LYP) =  -2359.41180236     A.U. after   23 cycles
 SCF Done:  E(UB3LYP) =  -2359.42089753     A.U. after   21 cycles
 SCF Done:  E(UB3LYP) =  -2359.42350636     A.U. after   19 cycles
 SCF Done:  E(UB3LYP) =  -2359.42416639     A.U. after   20 cycles
 SCF Done:  E(UB3LYP) =  -2359.42419296     A.U. after   17 cycles
 SCF Done:  E(UB3LYP) =  -2359.42444690     A.U. after   16 cycles
 SCF Done:  E(UB3LYP) =  -2359.42455388     A.U. after   17 cycles
 SCF Done:  E(UB3LYP) =  -2359.42466000     A.U. after   20 cycles
 SCF Done:  E(UB3LYP) =  -2359.42472855     A.U. after   16 cycles
 SCF Done:  E(UB3LYP) =  -2359.42619493     A.U. after   11 cycles
 SCF Done:  E(UB3LYP) =  -2359.42619576     A.U. after   12 cycles
 SCF Done:  E(UB3LYP) =  -2359.42619602     A.U. after   13 cycles
 SCF Done:  E(UB3LYP) =  -2359.42619609     A.U. after   10 cycles
 SCF Done:  E(UB3LYP) =  -2359.42619614     A.U. after    9 cycles
 SCF Done:  E(UB3LYP) =  -2359.42619618     A.U. after    9 cycles
 SCF Done:  E(UB3LYP) =  -2359.42619623     A.U. after    9 cycles
 SCF Done:  E(UB3LYP) =  -2359.42619630     A.U. after    9 cycles
 SCF Done:  E(UB3LYP) =  -2359.42619636     A.U. after    9 cycles
 SCF Done:  E(UB3LYP) =  -2359.42619639     A.U. after    9 cycles
 Optimization completed.
    -- Stationary point found.

                         Standard orientation:
 ---------------------------------------------------------------------
 Center     Atomic      Atomic             Coordinates (Angstroms)
 Number     Number       Type             X           Y           Z
 ---------------------------------------------------------------------
      1          6           0       -3.493690   -2.687952    0.294781
      2          6           0       -2.768097   -1.449906    0.029948
      3          6           0       -3.428869   -0.201600    0.116359
      4          6           0       -4.795638   -0.123905    0.464714
      5          6           0       -5.557072   -1.340795    0.742113
      6          6           0       -1.399933   -1.496947   -0.247881
      7          6           0       -2.685408    0.991892   -0.166162
      8          6           0       -1.307645    0.914261   -0.523168
      9          6           0       -0.639193   -0.355048   -0.508950
     10          6           0       -0.671132    2.122977   -1.043929
     11          6           0       -2.678142    3.480220   -0.407900
     12          6           0       -3.368024    2.233501   -0.094038
     13          6           0       -4.727894    2.282893    0.268175
     14          6           0       -5.432932    1.128743    0.543615
     15          1           0       -6.480162    1.157445    0.816419
     16          1           0       -5.200933    3.255669    0.316363
     17          1           0       -0.920180   -2.464564   -0.191818
     18          7           0       -1.361107    3.342197   -0.865908
     19          7           0       -4.851508   -2.556785    0.633598
     20          8           0       -2.990742   -3.812067    0.236789
     21          8           0       -6.749262   -1.338866    1.052749
     22          8           0       -3.199989    4.593778   -0.312566
     23          8           0        0.407725    2.149041   -1.635814
     24          6           0       -0.656626    4.545323   -1.310774
     25          1           0        0.350639    4.552183   -0.894641
     26          1           0       -0.568949    4.557179   -2.400139
     27          1           0       -1.227973    5.405690   -0.974148
     28          6           0       -5.571800   -3.803079    0.896757
     29          1           0       -5.527776   -4.450989    0.019444
     30          1           0       -5.106785   -4.334906    1.729052
     31          1           0       -6.600282   -3.546887    1.133708
     32          6           0        0.816176   -0.565661   -0.585082
     33          6           0        1.437585   -1.708743   -1.050684
     34         16           0        1.969122    0.455890    0.232826
     35          6           0        2.822731   -1.749130   -0.776427
     36          1           0        0.903011   -2.478080   -1.587911
     37          6           0        3.298936   -0.655529   -0.067310
     38          8           0        3.691150   -2.738034   -1.153990
     39          6           0        4.654982   -0.385253    0.336203
     40          6           0        3.156415   -3.850821   -1.854469
     41          6           0        5.139170    0.696786    1.059003
     42         16           0        5.997766   -1.457721   -0.054143
     43          1           0        3.997062   -4.516510   -2.048760
     44          1           0        2.406674   -4.377139   -1.253727
     45          1           0        2.708092   -3.544176   -2.805939
     46          6           0        6.544170    0.675345    1.284581
     47          8           0        4.268826    1.649626    1.508149
     48          6           0        7.139847   -0.427830    0.739579
     49          1           0        7.085031    1.438069    1.827001
     50          6           0        4.807620    2.883313    1.952217
     51          1           0        8.184082   -0.698598    0.762650
     52          1           0        5.435897    3.343419    1.180924
     53          1           0        3.954003    3.528460    2.156440
     54          1           0        5.391759    2.758968    2.872147
 ---------------------------------------------------------------------

 The electronic state is 2-A.
 Alpha  occ. eigenvalues --  -88.80124 -88.77920 -19.08505 -19.08259 -18.99522
 Alpha  occ. eigenvalues --  -18.99440 -18.99061 -18.98866 -14.26466 -14.25996
 Alpha  occ. eigenvalues --  -10.18018 -10.17788 -10.17515 -10.17475 -10.16221
 Alpha  occ. eigenvalues --  -10.15905 -10.15765 -10.15021 -10.13363 -10.12660
 Alpha  occ. eigenvalues --  -10.11959 -10.11929 -10.11012 -10.10546 -10.10425
 Alpha  occ. eigenvalues --  -10.10174 -10.10137 -10.09885 -10.09051 -10.08669
 Alpha  occ. eigenvalues --  -10.08622 -10.08558 -10.08476 -10.08370 -10.07924
 Alpha  occ. eigenvalues --  -10.07863  -7.88679  -7.86469  -5.84987  -5.84605
 Alpha  occ. eigenvalues --   -5.84249  -5.82796  -5.82397  -5.82011  -1.00115
 Alpha  occ. eigenvalues --   -0.99641  -0.95586  -0.95263  -0.93523  -0.93162
 Alpha  occ. eigenvalues --   -0.83695  -0.83265  -0.81280  -0.79702  -0.78617
 Alpha  occ. eigenvalues --   -0.74076  -0.71612  -0.69854  -0.68281  -0.66731
 Alpha  occ. eigenvalues --   -0.66213  -0.65459  -0.63868  -0.63423  -0.61957
 Alpha  occ. eigenvalues --   -0.61011  -0.60302  -0.58593  -0.54923  -0.54018
 Alpha  occ. eigenvalues --   -0.53396  -0.52437  -0.51454  -0.49801  -0.48044
 Alpha  occ. eigenvalues --   -0.47590  -0.46052  -0.45802  -0.45165  -0.43059
 Alpha  occ. eigenvalues --   -0.42092  -0.40763  -0.40374  -0.40165  -0.39892
 Alpha  occ. eigenvalues --   -0.39208  -0.38286  -0.38020  -0.37869  -0.37477
 Alpha  occ. eigenvalues --   -0.36965  -0.36616  -0.36488  -0.35317  -0.34328
 Alpha  occ. eigenvalues --   -0.34006  -0.33701  -0.33425  -0.32941  -0.32586
 Alpha  occ. eigenvalues --   -0.32489  -0.32250  -0.31563  -0.30538  -0.30429
 Alpha  occ. eigenvalues --   -0.30267  -0.29955  -0.29802  -0.29679  -0.29280
 Alpha  occ. eigenvalues --   -0.28901  -0.28595  -0.27734  -0.27543  -0.26924
 Alpha  occ. eigenvalues --   -0.25998  -0.25505  -0.25128  -0.24450  -0.23996
 Alpha  occ. eigenvalues --   -0.22671  -0.20164  -0.19389  -0.18578  -0.17897
 Alpha  occ. eigenvalues --   -0.17689  -0.17166  -0.16847  -0.16344  -0.15931
 Alpha  occ. eigenvalues --   -0.15826  -0.14540  -0.13828  -0.10204  -0.05059
 Alpha virt. eigenvalues --    0.02917   0.04763   0.05833   0.06259   0.06796
 Alpha virt. eigenvalues --    0.07390   0.07446   0.08601   0.08891   0.09095
 Alpha virt. eigenvalues --    0.09342   0.09593   0.10134   0.10410   0.10619

  Beta  occ. eigenvalues --  -88.80122 -88.77913 -19.08494 -19.08266 -18.99344
  Beta  occ. eigenvalues --  -18.99245 -18.98878 -18.98657 -14.26515 -14.26046
  Beta  occ. eigenvalues --  -10.17971 -10.17742 -10.17472 -10.17428 -10.16222
  Beta  occ. eigenvalues --  -10.15877 -10.15764 -10.15048 -10.13382 -10.12632
  Beta  occ. eigenvalues --  -10.11971 -10.11900 -10.11022 -10.10545 -10.10309
  Beta  occ. eigenvalues --  -10.10192 -10.10173 -10.09939 -10.08863 -10.08612
  Beta  occ. eigenvalues --  -10.08479 -10.08392 -10.08322 -10.08314 -10.07844
  Beta  occ. eigenvalues --  -10.07780  -7.88677  -7.86463  -5.84986  -5.84604
  Beta  occ. eigenvalues --   -5.84242  -5.82790  -5.82392  -5.81994  -1.00091
  Beta  occ. eigenvalues --   -0.99658  -0.95354  -0.95021  -0.93205  -0.92830
  Beta  occ. eigenvalues --   -0.83584  -0.83151  -0.81252  -0.79593  -0.78522
  Beta  occ. eigenvalues --   -0.73767  -0.71313  -0.69755  -0.68244  -0.66658
  Beta  occ. eigenvalues --   -0.66083  -0.65057  -0.63791  -0.63364  -0.61925
  Beta  occ. eigenvalues --   -0.60960  -0.60071  -0.58301  -0.54776  -0.53842
  Beta  occ. eigenvalues --   -0.53273  -0.52330  -0.51379  -0.49736  -0.48019
  Beta  occ. eigenvalues --   -0.47536  -0.46011  -0.45698  -0.45044  -0.42912
  Beta  occ. eigenvalues --   -0.41999  -0.40733  -0.40330  -0.40175  -0.39847
  Beta  occ. eigenvalues --   -0.39065  -0.38064  -0.37961  -0.37682  -0.37448
  Beta  occ. eigenvalues --   -0.36884  -0.36497  -0.36429  -0.35229  -0.34173
  Beta  occ. eigenvalues --   -0.33955  -0.33581  -0.33361  -0.32859  -0.32430
  Beta  occ. eigenvalues --   -0.32257  -0.32005  -0.31427  -0.30332  -0.30203
  Beta  occ. eigenvalues --   -0.30098  -0.29811  -0.29589  -0.29072  -0.29010
  Beta  occ. eigenvalues --   -0.28603  -0.28188  -0.27656  -0.27287  -0.26690
  Beta  occ. eigenvalues --   -0.25903  -0.25472  -0.24990  -0.24356  -0.23923
  Beta  occ. eigenvalues --   -0.22026  -0.19814  -0.18471  -0.18386  -0.17535
  Beta  occ. eigenvalues --   -0.17290  -0.16869  -0.16615  -0.16135  -0.15617
  Beta  occ. eigenvalues --   -0.15432  -0.14360  -0.12462  -0.09847
  Beta virt. eigenvalues --   -0.00728   0.03268   0.05772   0.05834   0.06642
  Beta virt. eigenvalues --    0.06803   0.07401   0.08201   0.08605   0.08898
  Beta virt. eigenvalues --    0.09124   0.09380   0.09772   0.10144   0.10418

 Mulliken charges and spin densities:
               1          2
     1  C    0.300844   0.018665
     2  C   -0.073086   0.124699
     3  C    0.115742  -0.038881
     4  C    0.242168   0.098566
     5  C    0.159602   0.019122
     6  C   -0.053111   0.030087
     7  C    0.146631  -0.035872
     8  C    0.184403   0.143043
     9  C    0.240263   0.079632
    10  C   -0.545935   0.013444
    11  C    0.280949   0.018969
    12  C    0.081842   0.108322
    13  C   -0.483531   0.052061
    14  C   -0.571495   0.068644
    15  H    0.129817  -0.004778
    16  H    0.131754  -0.003849
    17  H    0.139001  -0.001687
    18  N   -0.036268  -0.019933
    19  N   -0.143605  -0.019944
    20  O   -0.360369   0.073186
    21  O   -0.345219   0.066409
    22  O   -0.352534   0.068838
    23  O   -0.282638   0.079315
    24  C   -0.175934   0.001555
    25  H    0.158931  -0.000668
    26  H    0.155263  -0.001117
    27  H    0.168427  -0.000388
    28  C   -0.185817   0.001277
    29  H    0.152188  -0.000880
    30  H    0.153645  -0.000914
    31  H    0.168927  -0.000335
    32  C    0.113296  -0.017028
    33  C   -0.712847   0.041085
    34  S   -0.685139   0.012922
    35  C   -0.114009  -0.019895
    36  H    0.125768  -0.001893
    37  C    0.707165   0.029136
    38  O   -0.139851  -0.001044
    39  C    0.854345  -0.012506
    40  C   -0.223154   0.000189
    41  C   -0.080538   0.019573
    42  S   -0.270149   0.001423
    43  H    0.149176   0.000000
    44  H    0.147987  -0.000152
    45  H    0.141995  -0.000218
    46  C   -0.500018  -0.008809
    47  O   -0.120620   0.001598
    48  C   -0.315569   0.019619
    49  H    0.114100   0.000388
    50  C   -0.259153  -0.000294
    51  H    0.141268  -0.001219
    52  H    0.140440   0.000306
    53  H    0.160865   0.000032
    54  H    0.123787   0.000201
 Sum of Mulliken charges =  -1.00000   1.00000

 Dipole moment (field-independent basis, Debye):
    X=             11.1724    Y=             -1.2696    Z=              0.2402  Tot=             11.2469
 Quadrupole moment (field-independent basis, Debye-Ang):
   XX=           -312.1618   YY=           -258.9580   ZZ=           -229.3738
   XY=              9.8905   XZ=             12.7314   YZ=             14.6668

 Normal termination of Gaussian 16 at Tue Oct  5 13:08:34 2021.
