 Gaussian 16, Revision C.01,
 Gaussian 16:  ES64L-G16RevC.01  3-Jul-2019

 -------------------------------------
 # opt=modredundant b3lyp/6-311+g(d,p)
 -------------------------------------

 -----------
 NDI_170.pdb
 -----------
 Symbolic Z-matrix:
 Charge = -1 Multiplicity = 2

 SCF Done:  E(UB3LYP) =  -2359.37927941     A.U. after   25 cycles
 SCF Done:  E(UB3LYP) =  -2359.40809839     A.U. after   25 cycles
 SCF Done:  E(UB3LYP) =  -2359.41814434     A.U. after   21 cycles
 SCF Done:  E(UB3LYP) =  -2359.42142135     A.U. after   19 cycles
 SCF Done:  E(UB3LYP) =  -2359.42232128     A.U. after   20 cycles
 SCF Done:  E(UB3LYP) =  -2359.42247577     A.U. after   21 cycles
 SCF Done:  E(UB3LYP) =  -2359.42293750     A.U. after   15 cycles
 SCF Done:  E(UB3LYP) =  -2359.42322478     A.U. after   18 cycles
 SCF Done:  E(UB3LYP) =  -2359.42315642     A.U. after   21 cycles
 SCF Done:  E(UB3LYP) =  -2359.42363656     A.U. after   18 cycles
 SCF Done:  E(UB3LYP) =  -2359.42399300     A.U. after   11 cycles
 SCF Done:  E(UB3LYP) =  -2359.42399344     A.U. after   12 cycles
 SCF Done:  E(UB3LYP) =  -2359.42399382     A.U. after   10 cycles
 SCF Done:  E(UB3LYP) =  -2359.42399427     A.U. after   11 cycles
 SCF Done:  E(UB3LYP) =  -2359.42399454     A.U. after   11 cycles
 SCF Done:  E(UB3LYP) =  -2359.42399464     A.U. after   10 cycles
 SCF Done:  E(UB3LYP) =  -2359.42399468     A.U. after    8 cycles
 SCF Done:  E(UB3LYP) =  -2359.42399469     A.U. after    8 cycles
 SCF Done:  E(UB3LYP) =  -2359.42399470     A.U. after    8 cycles
 SCF Done:  E(UB3LYP) =  -2359.42399471     A.U. after    8 cycles
 Optimization completed.
    -- Stationary point found.

                         Standard orientation:
 ---------------------------------------------------------------------
 Center     Atomic      Atomic             Coordinates (Angstroms)
 Number     Number       Type             X           Y           Z
 ---------------------------------------------------------------------
      1          6           0       -3.541734   -2.663436   -0.135863
      2          6           0       -2.799079   -1.422236    0.063048
      3          6           0       -3.440532   -0.171373   -0.094380
      4          6           0       -4.804080   -0.093046   -0.450705
      5          6           0       -5.583716   -1.312630   -0.659826
      6          6           0       -1.434615   -1.475879    0.341228
      7          6           0       -2.674155    1.020261    0.122793
      8          6           0       -1.296706    0.940176    0.487572
      9          6           0       -0.640762   -0.340654    0.543050
     10          6           0       -0.654813    2.168857    0.945371
     11          6           0       -2.633961    3.519222    0.221861
     12          6           0       -3.338610    2.266180   -0.023288
     13          6           0       -4.696292    2.317242   -0.393389
     14          6           0       -5.421418    1.162377   -0.604514
     15          1           0       -6.467207    1.193066   -0.882356
     16          1           0       -5.151284    3.294077   -0.499038
     17          1           0       -0.987620   -2.459169    0.331972
     18          7           0       -1.324095    3.386593    0.698148
     19          7           0       -4.897168   -2.531590   -0.481465
     20          8           0       -3.054074   -3.789559   -0.018137
     21          8           0       -6.775084   -1.310299   -0.972150
     22          8           0       -3.138110    4.633109    0.058436
     23          8           0        0.420060    2.215656    1.546110
     24          6           0       -0.604549    4.601120    1.084155
     25          1           0       -0.514328    4.663069    2.171468
     26          1           0        0.401842    4.577224    0.666381
     27          1           0       -1.166919    5.450630    0.707258
     28          6           0       -5.636319   -3.779557   -0.675566
     29          1           0       -5.185766   -4.359631   -1.483324
     30          1           0       -5.593594   -4.382170    0.233394
     31          1           0       -6.663045   -3.521501   -0.917990
     32          6           0        0.811210   -0.591802    0.600791
     33          6           0        1.393563   -1.827117    0.849999
     34         16           0        2.020667    0.513527   -0.006030
     35          6           0        2.771129   -1.878628    0.563019
     36          1           0        0.837822   -2.664812    1.242115
     37          6           0        3.294196   -0.697051    0.054674
     38          8           0        3.595857   -2.955318    0.754202
     39          6           0        4.661262   -0.417176   -0.299276
     40          6           0        3.009835   -4.156515    1.232044
     41          6           0        5.194362    0.754300   -0.822113
     42         16           0        5.956047   -1.598951   -0.112441
     43          1           0        3.820410   -4.882030    1.296984
     44          1           0        2.567193   -4.016667    2.224522
     45          1           0        2.243115   -4.527578    0.543223
     46          6           0        6.597149    0.711701   -1.056656
     47          8           0        4.367950    1.808838   -1.087043
     48          6           0        7.143048   -0.495715   -0.719480
     49          1           0        7.171949    1.533926   -1.459141
     50          6           0        4.961443    3.069955   -1.343900
     51          1           0        8.174249   -0.803483   -0.798214
     52          1           0        5.526808    3.064299   -2.283780
     53          1           0        4.138072    3.778213   -1.426626
     54          1           0        5.621802    3.373430   -0.523328
 ---------------------------------------------------------------------

 The electronic state is 2-A.
 Alpha  occ. eigenvalues --  -88.80071 -88.77818 -19.08452 -19.08167 -18.99637
 Alpha  occ. eigenvalues --  -18.99570 -18.99051 -18.98891 -14.26566 -14.26027
 Alpha  occ. eigenvalues --  -10.18128 -10.17910 -10.17494 -10.17475 -10.16158
 Alpha  occ. eigenvalues --  -10.15886 -10.15682 -10.14881 -10.13294 -10.12628
 Alpha  occ. eigenvalues --  -10.11986 -10.11834 -10.10968 -10.10655 -10.10634
 Alpha  occ. eigenvalues --  -10.10205 -10.10169 -10.09855 -10.09069 -10.08679
 Alpha  occ. eigenvalues --  -10.08627 -10.08591 -10.08484 -10.08418 -10.07931
 Alpha  occ. eigenvalues --  -10.07869  -7.88626  -7.86344  -5.84934  -5.84552
 Alpha  occ. eigenvalues --   -5.84197  -5.82670  -5.82263  -5.81892  -1.00085
 Alpha  occ. eigenvalues --   -0.99544  -0.95706  -0.95302  -0.93648  -0.93180
 Alpha  occ. eigenvalues --   -0.83801  -0.83303  -0.81215  -0.79648  -0.78581
 Alpha  occ. eigenvalues --   -0.74077  -0.71634  -0.69815  -0.68232  -0.66692
 Alpha  occ. eigenvalues --   -0.66205  -0.65480  -0.63838  -0.63438  -0.61907
 Alpha  occ. eigenvalues --   -0.61050  -0.60318  -0.58571  -0.54983  -0.54081
 Alpha  occ. eigenvalues --   -0.53419  -0.52504  -0.51369  -0.49760  -0.48007
 Alpha  occ. eigenvalues --   -0.47544  -0.46141  -0.45771  -0.45195  -0.43114
 Alpha  occ. eigenvalues --   -0.42178  -0.40706  -0.40284  -0.40090  -0.39777
 Alpha  occ. eigenvalues --   -0.39146  -0.38374  -0.37997  -0.37927  -0.37437
 Alpha  occ. eigenvalues --   -0.36992  -0.36660  -0.36543  -0.35392  -0.34356
 Alpha  occ. eigenvalues --   -0.33903  -0.33744  -0.33310  -0.33006  -0.32586
 Alpha  occ. eigenvalues --   -0.32514  -0.32319  -0.31534  -0.30607  -0.30464
 Alpha  occ. eigenvalues --   -0.30328  -0.29969  -0.29846  -0.29718  -0.29370
 Alpha  occ. eigenvalues --   -0.28856  -0.28455  -0.27691  -0.27577  -0.26933
 Alpha  occ. eigenvalues --   -0.25969  -0.25481  -0.25147  -0.24536  -0.23652
 Alpha  occ. eigenvalues --   -0.22672  -0.20229  -0.19369  -0.18674  -0.17934
 Alpha  occ. eigenvalues --   -0.17760  -0.17242  -0.16816  -0.16468  -0.15946
 Alpha  occ. eigenvalues --   -0.15828  -0.14438  -0.13825  -0.10134  -0.05040
 Alpha virt. eigenvalues --    0.02680   0.04815   0.05856   0.06092   0.06833
 Alpha virt. eigenvalues --    0.07421   0.07448   0.08608   0.08879   0.09102
 Alpha virt. eigenvalues --    0.09418   0.09907   0.10262   0.10447   0.10584

  Beta  occ. eigenvalues --  -88.80068 -88.77813 -19.08437 -19.08177 -18.99465
  Beta  occ. eigenvalues --  -18.99381 -18.98869 -18.98683 -14.26613 -14.26077
  Beta  occ. eigenvalues --  -10.18082 -10.17865 -10.17451 -10.17425 -10.16158
  Beta  occ. eigenvalues --  -10.15845 -10.15681 -10.14920 -10.13322 -10.12587
  Beta  occ. eigenvalues --  -10.12042 -10.11750 -10.10983 -10.10633 -10.10526
  Beta  occ. eigenvalues --  -10.10222 -10.10204 -10.09909 -10.08889 -10.08549
  Beta  occ. eigenvalues --  -10.08541 -10.08436 -10.08375 -10.08326 -10.07856
  Beta  occ. eigenvalues --  -10.07788  -7.88623  -7.86339  -5.84932  -5.84550
  Beta  occ. eigenvalues --   -5.84187  -5.82666  -5.82260  -5.81876  -1.00052
  Beta  occ. eigenvalues --   -0.99566  -0.95482  -0.95061  -0.93340  -0.92849
  Beta  occ. eigenvalues --   -0.83695  -0.83188  -0.81177  -0.79531  -0.78491
  Beta  occ. eigenvalues --   -0.73773  -0.71343  -0.69708  -0.68189  -0.66608
  Beta  occ. eigenvalues --   -0.66087  -0.65094  -0.63755  -0.63372  -0.61868
  Beta  occ. eigenvalues --   -0.61001  -0.60081  -0.58291  -0.54835  -0.53912
  Beta  occ. eigenvalues --   -0.53290  -0.52403  -0.51289  -0.49692  -0.47977
  Beta  occ. eigenvalues --   -0.47493  -0.46074  -0.45690  -0.45077  -0.42973
  Beta  occ. eigenvalues --   -0.42086  -0.40664  -0.40239  -0.40103  -0.39714
  Beta  occ. eigenvalues --   -0.39019  -0.38157  -0.37927  -0.37746  -0.37405
  Beta  occ. eigenvalues --   -0.36913  -0.36548  -0.36479  -0.35301  -0.34207
  Beta  occ. eigenvalues --   -0.33855  -0.33630  -0.33225  -0.32889  -0.32432
  Beta  occ. eigenvalues --   -0.32315  -0.32077  -0.31392  -0.30377  -0.30245
  Beta  occ. eigenvalues --   -0.30138  -0.29862  -0.29574  -0.29123  -0.29077
  Beta  occ. eigenvalues --   -0.28479  -0.28253  -0.27521  -0.27416  -0.26691
  Beta  occ. eigenvalues --   -0.25854  -0.25421  -0.25019  -0.24443  -0.23541
  Beta  occ. eigenvalues --   -0.22102  -0.19810  -0.18498  -0.18462  -0.17574
  Beta  occ. eigenvalues --   -0.17395  -0.16950  -0.16549  -0.16263  -0.15722
  Beta  occ. eigenvalues --   -0.15368  -0.14195  -0.12557  -0.09680
  Beta virt. eigenvalues --   -0.00802   0.03131   0.05790   0.05857   0.06474
  Beta virt. eigenvalues --    0.06834   0.07442   0.08168   0.08610   0.08883
  Beta virt. eigenvalues --    0.09113   0.09447   0.10128   0.10269   0.10459

 Mulliken charges and spin densities:
               1          2
     1  C    0.293216   0.018257
     2  C   -0.074566   0.122602
     3  C    0.150431  -0.037311
     4  C    0.229258   0.094700
     5  C    0.159147   0.019347
     6  C    0.156204   0.020531
     7  C    0.086751  -0.033752
     8  C    0.299442   0.133991
     9  C    0.278341   0.087247
    10  C   -0.639737   0.013535
    11  C    0.256881   0.018715
    12  C    0.090297   0.104762
    13  C   -0.473253   0.048471
    14  C   -0.575895   0.068759
    15  H    0.129623  -0.004682
    16  H    0.132247  -0.003676
    17  H    0.134666  -0.001038
    18  N   -0.029510  -0.019914
    19  N   -0.145711  -0.019371
    20  O   -0.360474   0.070610
    21  O   -0.341822   0.064071
    22  O   -0.351785   0.068394
    23  O   -0.283536   0.079116
    24  C   -0.170853   0.001648
    25  H    0.155502  -0.001112
    26  H    0.156645  -0.000723
    27  H    0.168358  -0.000387
    28  C   -0.186029   0.001239
    29  H    0.153271  -0.000888
    30  H    0.152653  -0.000844
    31  H    0.168659  -0.000323
    32  C    0.011301  -0.026009
    33  C   -0.519290   0.061407
    34  S   -0.726583   0.011323
    35  C   -0.454436  -0.028260
    36  H    0.120237  -0.002785
    37  C    0.678410   0.046657
    38  O   -0.136214  -0.001318
    39  C    0.879859  -0.019230
    40  C   -0.225897   0.000222
    41  C   -0.049524   0.026737
    42  S   -0.272909   0.001887
    43  H    0.149428  -0.000002
    44  H    0.141487  -0.000305
    45  H    0.147076  -0.000234
    46  C   -0.460652  -0.012493
    47  O   -0.114195   0.002634
    48  C   -0.310730   0.028564
    49  H    0.114309   0.000560
    50  C   -0.257247  -0.000316
    51  H    0.140938  -0.001775
    52  H    0.123911   0.000275
    53  H    0.162140   0.000032
    54  H    0.140161   0.000457
 Sum of Mulliken charges =  -1.00000   1.00000

 Dipole moment (field-independent basis, Debye):
    X=             11.0195    Y=             -1.4630    Z=             -0.2901  Tot=             11.1200
 Quadrupole moment (field-independent basis, Debye-Ang):
   XX=           -311.4425   YY=           -256.9297   ZZ=           -231.8941
   XY=             11.1001   XZ=            -12.1612   YZ=             -9.3339

 Normal termination of Gaussian 16 at Wed Oct  6 01:36:17 2021.
