 Gaussian 16, Revision C.01,
 Gaussian 16:  ES64L-G16RevC.01  3-Jul-2019

 -------------------------------------
 # opt=modredundant b3lyp/6-311+g(d,p)
 -------------------------------------

 ------------
 NDI_-140.pdb
 ------------
 Symbolic Z-matrix:
 Charge = -1 Multiplicity = 2

 SCF Done:  E(UB3LYP) =  -2359.40935506     A.U. after   23 cycles
 SCF Done:  E(UB3LYP) =  -2359.41382880     A.U. after   22 cycles
 SCF Done:  E(UB3LYP) =  -2359.42126461     A.U. after   21 cycles
 SCF Done:  E(UB3LYP) =  -2359.42399606     A.U. after   19 cycles
 SCF Done:  E(UB3LYP) =  -2359.42475910     A.U. after   18 cycles
 SCF Done:  E(UB3LYP) =  -2359.42525578     A.U. after   17 cycles
 SCF Done:  E(UB3LYP) =  -2359.42549036     A.U. after   20 cycles
 SCF Done:  E(UB3LYP) =  -2359.42550552     A.U. after   21 cycles
 SCF Done:  E(UB3LYP) =  -2359.42608865     A.U. after   19 cycles
 SCF Done:  E(UB3LYP) =  -2359.42696438     A.U. after   22 cycles
 SCF Done:  E(UB3LYP) =  -2359.42748091     A.U. after   11 cycles
 SCF Done:  E(UB3LYP) =  -2359.42748151     A.U. after   11 cycles
 SCF Done:  E(UB3LYP) =  -2359.42748192     A.U. after   12 cycles
 SCF Done:  E(UB3LYP) =  -2359.42748214     A.U. after   11 cycles
 SCF Done:  E(UB3LYP) =  -2359.42748223     A.U. after    9 cycles
 SCF Done:  E(UB3LYP) =  -2359.42748229     A.U. after    9 cycles
 SCF Done:  E(UB3LYP) =  -2359.42748236     A.U. after    9 cycles
 SCF Done:  E(UB3LYP) =  -2359.42748244     A.U. after   10 cycles
 SCF Done:  E(UB3LYP) =  -2359.42748251     A.U. after    9 cycles
 SCF Done:  E(UB3LYP) =  -2359.42748253     A.U. after    8 cycles
 Optimization completed.
    -- Stationary point found.

                         Standard orientation:
 ---------------------------------------------------------------------
 Center     Atomic      Atomic             Coordinates (Angstroms)
 Number     Number       Type             X           Y           Z
 ---------------------------------------------------------------------
      1          6           0       -3.474569   -2.697727    0.400757
      2          6           0       -2.756431   -1.463079    0.104250
      3          6           0       -3.432450   -0.220174    0.129147
      4          6           0       -4.807749   -0.144921    0.447182
      5          6           0       -5.560780   -1.358053    0.758722
      6          6           0       -1.381795   -1.504927   -0.155065
      7          6           0       -2.700631    0.972715   -0.186873
      8          6           0       -1.316186    0.898462   -0.513459
      9          6           0       -0.639774   -0.360427   -0.442448
     10          6           0       -0.668234    2.096480   -1.046449
     11          6           0       -2.712774    3.448979   -0.525022
     12          6           0       -3.397316    2.208009   -0.178181
     13          6           0       -4.765302    2.254181    0.153524
     14          6           0       -5.460699    1.102298    0.461343
     15          1           0       -6.513656    1.128184    0.711649
     16          1           0       -5.251862    3.221456    0.153030
     17          1           0       -0.884190   -2.462381   -0.072901
     18          7           0       -1.379602    3.311134   -0.937765
     19          7           0       -4.839658   -2.568677    0.711470
     20          8           0       -2.959736   -3.817947    0.392478
     21          8           0       -6.758941   -1.357922    1.047012
     22          8           0       -3.250191    4.558633   -0.490464
     23          8           0        0.435425    2.114914   -1.590109
     24          6           0       -0.673906    4.507112   -1.399749
     25          1           0        0.314394    4.546626   -0.941820
     26          1           0       -0.539539    4.477211   -2.483965
     27          1           0       -1.271307    5.370798   -1.122161
     28          6           0       -5.550907   -3.812151    1.009942
     29          1           0       -5.490791   -4.490152    0.156551
     30          1           0       -5.090053   -4.309741    1.865335
     31          1           0       -6.584539   -3.558153    1.225964
     32          6           0        0.819147   -0.545897   -0.538935
     33          6           0        1.464869   -1.559340   -1.210130
     34         16           0        1.942053    0.353765    0.444031
     35          6           0        2.859557   -1.591534   -0.964575
     36          1           0        0.942697   -2.236004   -1.870649
     37          6           0        3.309177   -0.623112   -0.080374
     38          8           0        3.754909   -2.465148   -1.520396
     39          6           0        4.661909   -0.378314    0.352295
     40          6           0        3.251476   -3.436837   -2.424448
     41          6           0        5.119601    0.578455    1.247164
     42         16           0        6.034138   -1.315647   -0.233053
     43          1           0        4.112102   -4.022556   -2.746686
     44          1           0        2.524963   -4.096198   -1.937115
     45          1           0        2.785344   -2.965003   -3.296372
     46          6           0        6.528423    0.571589    1.450291
     47          8           0        4.224176    1.403777    1.868373
     48          6           0        7.153107   -0.396322    0.714746
     49          1           0        7.050990    1.248676    2.111399
     50          6           0        4.722861    2.585275    2.473188
     51          1           0        8.206636   -0.626471    0.677478
     52          1           0        5.303327    3.182000    1.760358
     53          1           0        3.849239    3.151824    2.793440
     54          1           0        5.343120    2.357890    3.348670
 ---------------------------------------------------------------------

 The electronic state is 2-A.
 Alpha  occ. eigenvalues --  -88.80139 -88.77977 -19.08503 -19.08305 -18.99424
 Alpha  occ. eigenvalues --  -18.99337 -18.99074 -18.98901 -14.26385 -14.26010
 Alpha  occ. eigenvalues --  -10.17922 -10.17689 -10.17535 -10.17497 -10.16242
 Alpha  occ. eigenvalues --  -10.15885 -10.15811 -10.15091 -10.13392 -10.12664
 Alpha  occ. eigenvalues --  -10.11967 -10.11912 -10.11022 -10.10474 -10.10294
 Alpha  occ. eigenvalues --  -10.10165 -10.10123 -10.09906 -10.09090 -10.08678
 Alpha  occ. eigenvalues --  -10.08572 -10.08532 -10.08473 -10.08311 -10.07917
 Alpha  occ. eigenvalues --  -10.07856  -7.88694  -7.86535  -5.85003  -5.84620
 Alpha  occ. eigenvalues --   -5.84264  -5.82863  -5.82468  -5.82073  -1.00095
 Alpha  occ. eigenvalues --   -0.99690  -0.95487  -0.95263  -0.93420  -0.93171
 Alpha  occ. eigenvalues --   -0.83609  -0.83266  -0.81295  -0.79718  -0.78626
 Alpha  occ. eigenvalues --   -0.74067  -0.71599  -0.69853  -0.68287  -0.66745
 Alpha  occ. eigenvalues --   -0.66191  -0.65448  -0.63877  -0.63404  -0.61967
 Alpha  occ. eigenvalues --   -0.60986  -0.60291  -0.58605  -0.54880  -0.53980
 Alpha  occ. eigenvalues --   -0.53387  -0.52371  -0.51514  -0.49824  -0.48043
 Alpha  occ. eigenvalues --   -0.47606  -0.45998  -0.45813  -0.45147  -0.43011
 Alpha  occ. eigenvalues --   -0.41986  -0.40782  -0.40458  -0.40204  -0.39977
 Alpha  occ. eigenvalues --   -0.39233  -0.38220  -0.38033  -0.37836  -0.37497
 Alpha  occ. eigenvalues --   -0.36943  -0.36595  -0.36464  -0.35245  -0.34331
 Alpha  occ. eigenvalues --   -0.34087  -0.33682  -0.33473  -0.32904  -0.32582
 Alpha  occ. eigenvalues --   -0.32445  -0.32214  -0.31598  -0.30482  -0.30385
 Alpha  occ. eigenvalues --   -0.30212  -0.29945  -0.29827  -0.29605  -0.29211
 Alpha  occ. eigenvalues --   -0.28932  -0.28692  -0.27802  -0.27421  -0.26938
 Alpha  occ. eigenvalues --   -0.25994  -0.25529  -0.24982  -0.24353  -0.24184
 Alpha  occ. eigenvalues --   -0.22659  -0.20079  -0.19416  -0.18502  -0.17860
 Alpha  occ. eigenvalues --   -0.17640  -0.17103  -0.16841  -0.16245  -0.16029
 Alpha  occ. eigenvalues --   -0.15724  -0.14675  -0.13836  -0.10272  -0.05072
 Alpha virt. eigenvalues --    0.03157   0.04713   0.05826   0.06437   0.06785
 Alpha virt. eigenvalues --    0.07365   0.07450   0.08592   0.08882   0.09037
 Alpha virt. eigenvalues --    0.09251   0.09400   0.10042   0.10401   0.10633

  Beta  occ. eigenvalues --  -88.80137 -88.77970 -19.08495 -19.08310 -18.99240
  Beta  occ. eigenvalues --  -18.99136 -18.98888 -18.98689 -14.26435 -14.26061
  Beta  occ. eigenvalues --  -10.17873 -10.17643 -10.17491 -10.17453 -10.16242
  Beta  occ. eigenvalues --  -10.15868 -10.15811 -10.15108 -10.13403 -10.12648
  Beta  occ. eigenvalues --  -10.11941 -10.11931 -10.11028 -10.10473 -10.10186
  Beta  occ. eigenvalues --  -10.10179 -10.10164 -10.09961 -10.08899 -10.08641
  Beta  occ. eigenvalues --  -10.08422 -10.08359 -10.08308 -10.08259 -10.07834
  Beta  occ. eigenvalues --  -10.07773  -7.88693  -7.86528  -5.85002  -5.84620
  Beta  occ. eigenvalues --   -5.84259  -5.82854  -5.82462  -5.82058  -1.00080
  Beta  occ. eigenvalues --   -0.99701  -0.95248  -0.95018  -0.93091  -0.92834
  Beta  occ. eigenvalues --   -0.83494  -0.83151  -0.81275  -0.79612  -0.78530
  Beta  occ. eigenvalues --   -0.73753  -0.71293  -0.69763  -0.68255  -0.66676
  Beta  occ. eigenvalues --   -0.66054  -0.65031  -0.63811  -0.63348  -0.61942
  Beta  occ. eigenvalues --   -0.60933  -0.60064  -0.58305  -0.54734  -0.53797
  Beta  occ. eigenvalues --   -0.53269  -0.52253  -0.51447  -0.49762  -0.48024
  Beta  occ. eigenvalues --   -0.47548  -0.45979  -0.45690  -0.45023  -0.42858
  Beta  occ. eigenvalues --   -0.41891  -0.40761  -0.40414  -0.40210  -0.39945
  Beta  occ. eigenvalues --   -0.39082  -0.38004  -0.37966  -0.37648  -0.37471
  Beta  occ. eigenvalues --   -0.36859  -0.36473  -0.36408  -0.35159  -0.34177
  Beta  occ. eigenvalues --   -0.34024  -0.33564  -0.33417  -0.32847  -0.32420
  Beta  occ. eigenvalues --   -0.32206  -0.31962  -0.31467  -0.30276  -0.30152
  Beta  occ. eigenvalues --   -0.30063  -0.29773  -0.29614  -0.29037  -0.28961
  Beta  occ. eigenvalues --   -0.28655  -0.28149  -0.27743  -0.27168  -0.26696
  Beta  occ. eigenvalues --   -0.25923  -0.25505  -0.24856  -0.24260  -0.24119
  Beta  occ. eigenvalues --   -0.21936  -0.19813  -0.18470  -0.18310  -0.17512
  Beta  occ. eigenvalues --   -0.17186  -0.16791  -0.16648  -0.16032  -0.15574
  Beta  occ. eigenvalues --   -0.15452  -0.14544  -0.12379  -0.10024
  Beta virt. eigenvalues --   -0.00637   0.03402   0.05771   0.05828   0.06752
  Beta virt. eigenvalues --    0.06869   0.07384   0.08231   0.08600   0.08919
  Beta virt. eigenvalues --    0.09090   0.09354   0.09430   0.10054   0.10406

 Mulliken charges and spin densities:
               1          2
     1  C    0.314896   0.018202
     2  C   -0.113912   0.128076
     3  C    0.112775  -0.039322
     4  C    0.219307   0.102737
     5  C    0.174790   0.018799
     6  C   -0.270945   0.040043
     7  C    0.181306  -0.036469
     8  C    0.076324   0.145484
     9  C    0.288061   0.071139
    10  C   -0.455771   0.014560
    11  C    0.252380   0.018634
    12  C    0.090037   0.111525
    13  C   -0.468982   0.056140
    14  C   -0.575325   0.068388
    15  H    0.129864  -0.004807
    16  H    0.131385  -0.004040
    17  H    0.141226  -0.002310
    18  N   -0.061973  -0.020117
    19  N   -0.142877  -0.020421
    20  O   -0.358912   0.075213
    21  O   -0.347592   0.068898
    22  O   -0.352784   0.069820
    23  O   -0.276111   0.080295
    24  C   -0.171833   0.001469
    25  H    0.159549  -0.000671
    26  H    0.154805  -0.001119
    27  H    0.168878  -0.000387
    28  C   -0.187892   0.001285
    29  H    0.151953  -0.000911
    30  H    0.153776  -0.000934
    31  H    0.169106  -0.000347
    32  C    0.247696  -0.014501
    33  C   -0.653073   0.027566
    34  S   -0.598437   0.014020
    35  C   -0.032460  -0.010829
    36  H    0.122902  -0.001242
    37  C    0.587069   0.014856
    38  O   -0.138404  -0.000696
    39  C    0.828956  -0.008390
    40  C   -0.223058   0.000019
    41  C   -0.074511   0.012767
    42  S   -0.277740   0.000946
    43  H    0.148872   0.000000
    44  H    0.146655  -0.000087
    45  H    0.144489  -0.000138
    46  C   -0.477213  -0.005364
    47  O   -0.126435   0.000693
    48  C   -0.327013   0.011840
    49  H    0.113494   0.000234
    50  C   -0.262466  -0.000156
    51  H    0.141198  -0.000730
    52  H    0.141144   0.000185
    53  H    0.159635   0.000027
    54  H    0.123192   0.000125
 Sum of Mulliken charges =  -1.00000   1.00000

 Dipole moment (field-independent basis, Debye):
    X=             11.2815    Y=             -1.0615    Z=              0.0817  Tot=             11.3317
 Quadrupole moment (field-independent basis, Debye-Ang):
   XX=           -313.6658   YY=           -261.9837   ZZ=           -225.6181
   XY=              8.9633   XZ=             12.4060   YZ=             17.9737

 Normal termination of Gaussian 16 at Tue Oct  5 14:30:21 2021.
