 Gaussian 16, Revision C.01,
 Gaussian 16:  ES64L-G16RevC.01  3-Jul-2019

 -------------------------------------
 # opt=modredundant b3lyp/6-311+g(d,p)
 -------------------------------------

 -----------
 NDI_-65.pdb
 -----------
 Symbolic Z-matrix:
 Charge = -1 Multiplicity = 2

 SCF Done:  E(UB3LYP) =  -2359.42222882     A.U. after   24 cycles
 SCF Done:  E(UB3LYP) =  -2359.42753220     A.U. after   20 cycles
 SCF Done:  E(UB3LYP) =  -2359.42818201     A.U. after   20 cycles
 SCF Done:  E(UB3LYP) =  -2359.42822395     A.U. after   17 cycles
 SCF Done:  E(UB3LYP) =  -2359.42844412     A.U. after   17 cycles
 SCF Done:  E(UB3LYP) =  -2359.42845129     A.U. after   16 cycles
 SCF Done:  E(UB3LYP) =  -2359.42845750     A.U. after   15 cycles
 SCF Done:  E(UB3LYP) =  -2359.42846100     A.U. after   17 cycles
 SCF Done:  E(UB3LYP) =  -2359.42846275     A.U. after   15 cycles
 SCF Done:  E(UB3LYP) =  -2359.42846435     A.U. after   15 cycles
 SCF Done:  E(UB3LYP) =  -2359.42846598     A.U. after   12 cycles
 SCF Done:  E(UB3LYP) =  -2359.42846719     A.U. after   15 cycles
 SCF Done:  E(UB3LYP) =  -2359.42846758     A.U. after   14 cycles
 SCF Done:  E(UB3LYP) =  -2359.42846826     A.U. after   13 cycles
 SCF Done:  E(UB3LYP) =  -2359.42846871     A.U. after   13 cycles
 SCF Done:  E(UB3LYP) =  -2359.42846882     A.U. after   12 cycles
 Optimization completed.
    -- Stationary point found.

                         Standard orientation:
 ---------------------------------------------------------------------
 Center     Atomic      Atomic             Coordinates (Angstroms)
 Number     Number       Type             X           Y           Z
 ---------------------------------------------------------------------
      1          6           0        2.931832   -2.880868    0.597059
      2          6           0        2.462974   -1.521332    0.350038
      3          6           0        3.385261   -0.488279    0.063041
      4          6           0        4.774765   -0.749001    0.008115
      5          6           0        5.284720   -2.096592    0.250704
      6          6           0        1.093931   -1.235116    0.423167
      7          6           0        2.891550    0.837510   -0.180853
      8          6           0        1.491902    1.103237   -0.125201
      9          6           0        0.590876    0.046509    0.219195
     10          6           0        1.020356    2.443440   -0.477852
     11          6           0        3.391481    3.217105   -0.760041
     12          6           0        3.832052    1.855541   -0.482590
     13          6           0        5.210330    1.567218   -0.525823
     14          6           0        5.676481    0.291185   -0.284988
     15          1           0        6.733581    0.059963   -0.318968
     16          1           0        5.887815    2.379422   -0.757231
     17          1           0        0.422016   -2.042901    0.683683
     18          7           0        2.003627    3.420236   -0.746694
     19          7           0        4.321285   -3.086195    0.530239
     20          8           0        2.192507   -3.832238    0.855569
     21          8           0        6.482852   -2.384548    0.218956
     22          8           0        4.162756    4.148292   -1.005213
     23          8           0       -0.161431    2.778430   -0.563778
     24          6           0        1.498513    4.754584   -1.073178
     25          1           0        0.868658    4.709215   -1.963492
     26          1           0        0.887394    5.133920   -0.252216
     27          1           0        2.356712    5.398332   -1.242343
     28          6           0        4.781229   -4.452829    0.778897
     29          1           0        4.473055   -4.774927    1.775374
     30          1           0        4.332947   -5.134711    0.053893
     31          1           0        5.863835   -4.458222    0.692141
     32          6           0       -0.865004    0.227998    0.404706
     33          6           0       -1.528450    0.956198    1.356948
     34         16           0       -1.982172   -0.681285   -0.574516
     35          6           0       -2.935131    0.805653    1.288561
     36          1           0       -1.013574    1.594519    2.058922
     37          6           0       -3.378887   -0.053699    0.294616
     38          8           0       -3.846336    1.411586    2.110407
     39          6           0       -4.737343   -0.405413   -0.033618
     40          6           0       -3.379563    2.469610    2.936432
     41          6           0       -5.188395   -1.273909   -1.017754
     42         16           0       -6.126251    0.266699    0.815459
     43          1           0       -4.262443    2.883554    3.423303
     44          1           0       -2.686069    2.101503    3.700736
     45          1           0       -2.887182    3.246186    2.342376
     46          6           0       -6.604378   -1.398059   -1.092174
     47          8           0       -4.280268   -1.915503   -1.813349
     48          6           0       -7.241558   -0.623666   -0.162722
     49          1           0       -7.124942   -2.029237   -1.798428
     50          6           0       -4.769585   -2.838290   -2.769899
     51          1           0       -8.302913   -0.526355    0.005345
     52          1           0       -5.413090   -2.346277   -3.509171
     53          1           0       -3.892255   -3.244572   -3.271668
     54          1           0       -5.323567   -3.654865   -2.291633
 ---------------------------------------------------------------------

 The electronic state is 2-A.
 Alpha  occ. eigenvalues --  -88.80112 -88.78288 -19.08673 -19.08099 -18.99362
 Alpha  occ. eigenvalues --  -18.99248 -18.99108 -18.98938 -14.26326 -14.26120
 Alpha  occ. eigenvalues --  -10.17861 -10.17624 -10.17611 -10.17571 -10.16411
 Alpha  occ. eigenvalues --  -10.15929 -10.15549 -10.14993 -10.13357 -10.12610
 Alpha  occ. eigenvalues --  -10.11886 -10.11783 -10.11033 -10.10415 -10.10327
 Alpha  occ. eigenvalues --  -10.10241 -10.10195 -10.09945 -10.09294 -10.08555
 Alpha  occ. eigenvalues --  -10.08522 -10.08497 -10.08417 -10.08215 -10.07919
 Alpha  occ. eigenvalues --  -10.07855  -7.88665  -7.86843  -5.84974  -5.84591
 Alpha  occ. eigenvalues --   -5.84235  -5.83164  -5.82773  -5.82392  -1.00258
 Alpha  occ. eigenvalues --   -0.99480  -0.95431  -0.95319  -0.93358  -0.93209
 Alpha  occ. eigenvalues --   -0.83561  -0.83305  -0.81290  -0.79719  -0.78636
 Alpha  occ. eigenvalues --   -0.74045  -0.71611  -0.69805  -0.68342  -0.66799
 Alpha  occ. eigenvalues --   -0.65935  -0.65519  -0.63904  -0.63430  -0.61971
 Alpha  occ. eigenvalues --   -0.60997  -0.60309  -0.58530  -0.54931  -0.53939
 Alpha  occ. eigenvalues --   -0.53432  -0.52262  -0.51575  -0.49847  -0.48150
 Alpha  occ. eigenvalues --   -0.47490  -0.45896  -0.45805  -0.45164  -0.42995
 Alpha  occ. eigenvalues --   -0.41745  -0.40893  -0.40845  -0.40014  -0.39872
 Alpha  occ. eigenvalues --   -0.39272  -0.38179  -0.37966  -0.37848  -0.37500
 Alpha  occ. eigenvalues --   -0.36958  -0.36557  -0.36525  -0.34968  -0.34428
 Alpha  occ. eigenvalues --   -0.34139  -0.33740  -0.33345  -0.32965  -0.32587
 Alpha  occ. eigenvalues --   -0.32418  -0.32251  -0.31545  -0.30489  -0.30314
 Alpha  occ. eigenvalues --   -0.30178  -0.29983  -0.29829  -0.29441  -0.29203
 Alpha  occ. eigenvalues --   -0.29137  -0.28762  -0.27797  -0.27227  -0.27041
 Alpha  occ. eigenvalues --   -0.26027  -0.25626  -0.24933  -0.24276  -0.24079
 Alpha  occ. eigenvalues --   -0.22873  -0.20036  -0.19490  -0.18433  -0.17827
 Alpha  occ. eigenvalues --   -0.17666  -0.17136  -0.16844  -0.16222  -0.16073
 Alpha  occ. eigenvalues --   -0.15703  -0.14661  -0.13877  -0.10229  -0.05109
 Alpha virt. eigenvalues --    0.03410   0.04683   0.05749   0.06518   0.06801
 Alpha virt. eigenvalues --    0.07329   0.07451   0.08574   0.08825   0.09001
 Alpha virt. eigenvalues --    0.09160   0.09464   0.09854   0.10226   0.10678

  Beta  occ. eigenvalues --  -88.80111 -88.78283 -19.08669 -19.08101 -18.99172
  Beta  occ. eigenvalues --  -18.99043 -18.98918 -18.98720 -14.26377 -14.26173
  Beta  occ. eigenvalues --  -10.17812 -10.17577 -10.17566 -10.17524 -10.16411
  Beta  occ. eigenvalues --  -10.15919 -10.15549 -10.15004 -10.13364 -10.12600
  Beta  occ. eigenvalues --  -10.11862 -10.11804 -10.11037 -10.10414 -10.10252
  Beta  occ. eigenvalues --  -10.10240 -10.10217 -10.10002 -10.09109 -10.08396
  Beta  occ. eigenvalues --  -10.08391 -10.08340 -10.08334 -10.08162 -10.07833
  Beta  occ. eigenvalues --  -10.07772  -7.88665  -7.86838  -5.84973  -5.84591
  Beta  occ. eigenvalues --   -5.84233  -5.83159  -5.82768  -5.82384  -1.00250
  Beta  occ. eigenvalues --   -0.99484  -0.95187  -0.95069  -0.93021  -0.92865
  Beta  occ. eigenvalues --   -0.83441  -0.83187  -0.81275  -0.79614  -0.78540
  Beta  occ. eigenvalues --   -0.73726  -0.71301  -0.69726  -0.68307  -0.66716
  Beta  occ. eigenvalues --   -0.65814  -0.65102  -0.63835  -0.63374  -0.61949
  Beta  occ. eigenvalues --   -0.60945  -0.60070  -0.58237  -0.54786  -0.53736
  Beta  occ. eigenvalues --   -0.53343  -0.52077  -0.51553  -0.49800  -0.48136
  Beta  occ. eigenvalues --   -0.47426  -0.45887  -0.45678  -0.45038  -0.42834
  Beta  occ. eigenvalues --   -0.41632  -0.40881  -0.40820  -0.40013  -0.39854
  Beta  occ. eigenvalues --   -0.39107  -0.37942  -0.37919  -0.37659  -0.37480
  Beta  occ. eigenvalues --   -0.36863  -0.36495  -0.36414  -0.34895  -0.34299
  Beta  occ. eigenvalues --   -0.34028  -0.33642  -0.33285  -0.32930  -0.32422
  Beta  occ. eigenvalues --   -0.32187  -0.31951  -0.31445  -0.30140  -0.30113
  Beta  occ. eigenvalues --   -0.30053  -0.29742  -0.29664  -0.29092  -0.28955
  Beta  occ. eigenvalues --   -0.28660  -0.28208  -0.27765  -0.27005  -0.26756
  Beta  occ. eigenvalues --   -0.26000  -0.25599  -0.24859  -0.24170  -0.24063
  Beta  occ. eigenvalues --   -0.22021  -0.19840  -0.18527  -0.18245  -0.17505
  Beta  occ. eigenvalues --   -0.17141  -0.16761  -0.16692  -0.15944  -0.15687
  Beta  occ. eigenvalues --   -0.15472  -0.14536  -0.12350  -0.10084
  Beta virt. eigenvalues --   -0.00589   0.03561   0.05749   0.05787   0.06802
  Beta virt. eigenvalues --    0.06997   0.07347   0.08216   0.08588   0.08981
  Beta virt. eigenvalues --    0.09009   0.09168   0.09469   0.09863   0.10233

 Mulliken charges and spin densities:
               1          2
     1  C    0.360497   0.016068
     2  C   -0.134025   0.133786
     3  C    0.118349  -0.040554
     4  C    0.192766   0.111190
     5  C    0.205156   0.017405
     6  C   -0.767517   0.044950
     7  C    0.195355  -0.035313
     8  C    0.146216   0.137321
     9  C    0.660576   0.073204
    10  C   -0.436014   0.020609
    11  C    0.248493   0.019727
    12  C    0.137951   0.110330
    13  C   -0.532543   0.062008
    14  C   -0.618851   0.064625
    15  H    0.129863  -0.004591
    16  H    0.131366  -0.004377
    17  H    0.151053  -0.002835
    18  N   -0.153708  -0.020874
    19  N   -0.145387  -0.020523
    20  O   -0.354124   0.076956
    21  O   -0.348084   0.071006
    22  O   -0.350763   0.071331
    23  O   -0.198628   0.081540
    24  C   -0.190214   0.001319
    25  H    0.157456  -0.001016
    26  H    0.151892  -0.000906
    27  H    0.170560  -0.000366
    28  C   -0.190393   0.001299
    29  H    0.153303  -0.000945
    30  H    0.152972  -0.000917
    31  H    0.169283  -0.000354
    32  C    0.140777  -0.025097
    33  C   -0.378387   0.014705
    34  S   -0.415787   0.007678
    35  C   -0.409835  -0.003764
    36  H    0.106619  -0.001441
    37  C    0.554952   0.022547
    38  O   -0.127157  -0.000514
    39  C    0.894822  -0.006244
    40  C   -0.250035   0.000350
    41  C   -0.007534   0.005546
    42  S   -0.279927   0.000848
    43  H    0.146617  -0.000005
    44  H    0.135873  -0.000069
    45  H    0.159951   0.000016
    46  C   -0.494386  -0.003718
    47  O   -0.124916   0.001152
    48  C   -0.304236   0.006906
    49  H    0.115739   0.000139
    50  C   -0.241147   0.000101
    51  H    0.140513  -0.000428
    52  H    0.130602   0.000090
    53  H    0.161787   0.000014
    54  H    0.132239   0.000083
 Sum of Mulliken charges =  -1.00000   1.00000

 Dipole moment (field-independent basis, Debye):
    X=            -11.3674    Y=             -0.3067    Z=              0.4013  Tot=             11.3786
 Quadrupole moment (field-independent basis, Debye-Ang):
   XX=           -318.0219   YY=           -264.7300   ZZ=           -220.0377
   XY=              3.9296   XZ=              8.3690   YZ=             21.7716

 Normal termination of Gaussian 16 at Tue Oct  5 06:10:42 2021.
