 Gaussian 16, Revision C.01,
 Gaussian 16:  ES64L-G16RevC.01  3-Jul-2019

 -------------------------------------
 # opt=modredundant b3lyp/6-311+g(d,p)
 -------------------------------------

 -----------
 NDI_-40.pdb
 -----------
 Symbolic Z-matrix:
 Charge = -1 Multiplicity = 2

 SCF Done:  E(UB3LYP) =  -2359.42432182     A.U. after   22 cycles
 SCF Done:  E(UB3LYP) =  -2359.42819506     A.U. after   18 cycles
 SCF Done:  E(UB3LYP) =  -2359.42845892     A.U. after   18 cycles
 SCF Done:  E(UB3LYP) =  -2359.42863485     A.U. after   18 cycles
 SCF Done:  E(UB3LYP) =  -2359.42884717     A.U. after   18 cycles
 SCF Done:  E(UB3LYP) =  -2359.42887315     A.U. after   17 cycles
 SCF Done:  E(UB3LYP) =  -2359.42889375     A.U. after   16 cycles
 SCF Done:  E(UB3LYP) =  -2359.42889961     A.U. after   17 cycles
 SCF Done:  E(UB3LYP) =  -2359.42890288     A.U. after   12 cycles
 SCF Done:  E(UB3LYP) =  -2359.42890523     A.U. after   13 cycles
 SCF Done:  E(UB3LYP) =  -2359.42890986     A.U. after   13 cycles
 SCF Done:  E(UB3LYP) =  -2359.42891173     A.U. after   12 cycles
 SCF Done:  E(UB3LYP) =  -2359.42891434     A.U. after   14 cycles
 SCF Done:  E(UB3LYP) =  -2359.42891489     A.U. after   13 cycles
 SCF Done:  E(UB3LYP) =  -2359.42891512     A.U. after   12 cycles
 SCF Done:  E(UB3LYP) =  -2359.42891579     A.U. after   10 cycles
 SCF Done:  E(UB3LYP) =  -2359.42891657     A.U. after   14 cycles
 SCF Done:  E(UB3LYP) =  -2359.42891738     A.U. after   13 cycles
 SCF Done:  E(UB3LYP) =  -2359.42891829     A.U. after   14 cycles
 SCF Done:  E(UB3LYP) =  -2359.42891842     A.U. after   11 cycles
 Optimization completed.
    -- Stationary point found.

                         Standard orientation:
 ---------------------------------------------------------------------
 Center     Atomic      Atomic             Coordinates (Angstroms)
 Number     Number       Type             X           Y           Z
 ---------------------------------------------------------------------
      1          6           0        2.709104   -2.968136    0.417636
      2          6           0        2.343263   -1.569422    0.214742
      3          6           0        3.344246   -0.579571    0.075740
      4          6           0        4.714349   -0.922544    0.131271
      5          6           0        5.122899   -2.312129    0.333399
      6          6           0        0.995930   -1.203056    0.206320
      7          6           0        2.945163    0.784023   -0.130430
      8          6           0        1.561090    1.133288   -0.188319
      9          6           0        0.569792    0.115378    0.033249
     10          6           0        1.217255    2.501812   -0.578254
     11          6           0        3.640709    3.152508   -0.529381
     12          6           0        3.969423    1.753976   -0.284646
     13          6           0        5.327028    1.385607   -0.215465
     14          6           0        5.698155    0.073001   -0.010930
     15          1           0        6.739028   -0.220211    0.038591
     16          1           0        6.066258    2.167693   -0.334021
     17          1           0        0.270465   -1.983925    0.394303
     18          7           0        2.275964    3.433838   -0.669663
     19          7           0        4.084614   -3.255721    0.459115
     20          8           0        1.896427   -3.884492    0.549516
     21          8           0        6.300451   -2.669788    0.392873
     22          8           0        4.484891    4.046599   -0.630587
     23          8           0        0.083636    2.906069   -0.842718
     24          6           0        1.887646    4.803203   -1.010718
     25          1           0        1.422148    4.828677   -1.998031
     26          1           0        1.157778    5.173515   -0.289158
     27          1           0        2.786927    5.412056   -0.997306
     28          6           0        4.442132   -4.660623    0.658498
     29          1           0        4.046276   -5.016062    1.611925
     30          1           0        4.004881   -5.271016   -0.133490
     31          1           0        5.525824   -4.731221    0.645388
     32          6           0       -0.871488    0.359930    0.193670
     33          6           0       -1.525575    1.361723    0.869109
     34         16           0       -2.020660   -0.787091   -0.462082
     35          6           0       -2.930177    1.210575    0.869787
     36          1           0       -1.004767    2.184692    1.330013
     37          6           0       -3.396505    0.091291    0.193577
     38          8           0       -3.825124    2.052468    1.471094
     39          6           0       -4.760644   -0.330995    0.011647
     40          6           0       -3.328719    3.289462    1.966246
     41          6           0       -5.233804   -1.452976   -0.656033
     42         16           0       -6.131064    0.574298    0.649350
     43          1           0       -4.200426    3.848351    2.306164
     44          1           0       -2.647395    3.134419    2.810174
     45          1           0       -2.812076    3.850103    1.180996
     46          6           0       -6.650415   -1.587256   -0.654614
     47          8           0       -4.345211   -2.301771   -1.254368
     48          6           0       -7.267003   -0.565973    0.013675
     49          1           0       -7.185837   -2.399262   -1.126086
     50          6           0       -4.835920   -3.533328   -1.754615
     51          1           0       -8.324263   -0.417245    0.169483
     52          1           0       -5.535507   -3.379082   -2.585048
     53          1           0       -3.965451   -4.079008   -2.116539
     54          1           0       -5.328497   -4.115882   -0.967268
 ---------------------------------------------------------------------

 The electronic state is 2-A.
 Alpha  occ. eigenvalues --  -88.80123 -88.78197 -19.08638 -19.08042 -18.99523
 Alpha  occ. eigenvalues --  -18.99389 -18.99114 -18.98903 -14.26446 -14.26137
 Alpha  occ. eigenvalues --  -10.18019 -10.17748 -10.17673 -10.17564 -10.16336
 Alpha  occ. eigenvalues --  -10.15948 -10.15391 -10.14962 -10.13383 -10.12640
 Alpha  occ. eigenvalues --  -10.11988 -10.11723 -10.11038 -10.10521 -10.10515
 Alpha  occ. eigenvalues --  -10.10313 -10.10275 -10.09943 -10.09302 -10.08660
 Alpha  occ. eigenvalues --  -10.08571 -10.08519 -10.08313 -10.08271 -10.07941
 Alpha  occ. eigenvalues --  -10.07879  -7.88677  -7.86759  -5.84985  -5.84603
 Alpha  occ. eigenvalues --   -5.84247  -5.83079  -5.82690  -5.82309  -1.00230
 Alpha  occ. eigenvalues --   -0.99423  -0.95589  -0.95352  -0.93521  -0.93222
 Alpha  occ. eigenvalues --   -0.83694  -0.83321  -0.81295  -0.79702  -0.78622
 Alpha  occ. eigenvalues --   -0.74076  -0.71647  -0.69810  -0.68332  -0.66859
 Alpha  occ. eigenvalues --   -0.65846  -0.65589  -0.63906  -0.63490  -0.61937
 Alpha  occ. eigenvalues --   -0.61061  -0.60356  -0.58473  -0.55039  -0.53988
 Alpha  occ. eigenvalues --   -0.53512  -0.52349  -0.51518  -0.49861  -0.48124
 Alpha  occ. eigenvalues --   -0.47442  -0.45945  -0.45774  -0.45209  -0.43079
 Alpha  occ. eigenvalues --   -0.41894  -0.40871  -0.40733  -0.39881  -0.39739
 Alpha  occ. eigenvalues --   -0.39303  -0.38267  -0.37968  -0.37886  -0.37490
 Alpha  occ. eigenvalues --   -0.36993  -0.36629  -0.36550  -0.35031  -0.34271
 Alpha  occ. eigenvalues --   -0.34190  -0.33773  -0.33280  -0.32961  -0.32660
 Alpha  occ. eigenvalues --   -0.32556  -0.32249  -0.31409  -0.30582  -0.30500
 Alpha  occ. eigenvalues --   -0.30266  -0.29974  -0.29893  -0.29528  -0.29305
 Alpha  occ. eigenvalues --   -0.29124  -0.28662  -0.27755  -0.27356  -0.27035
 Alpha  occ. eigenvalues --   -0.26059  -0.25563  -0.25032  -0.24582  -0.23906
 Alpha  occ. eigenvalues --   -0.22856  -0.20242  -0.19444  -0.18557  -0.17905
 Alpha  occ. eigenvalues --   -0.17750  -0.17204  -0.16952  -0.16335  -0.15986
 Alpha  occ. eigenvalues --   -0.15857  -0.14541  -0.13879  -0.10211  -0.05120
 Alpha virt. eigenvalues --    0.02977   0.04666   0.05789   0.06362   0.06864
 Alpha virt. eigenvalues --    0.07380   0.07472   0.08614   0.08968   0.09156
 Alpha virt. eigenvalues --    0.09391   0.09555   0.10065   0.10218   0.10637

  Beta  occ. eigenvalues --  -88.80121 -88.78188 -19.08628 -19.08048 -18.99343
  Beta  occ. eigenvalues --  -18.99189 -18.98932 -18.98694 -14.26495 -14.26188
  Beta  occ. eigenvalues --  -10.17973 -10.17705 -10.17621 -10.17519 -10.16336
  Beta  occ. eigenvalues --  -10.15923 -10.15390 -10.14987 -10.13401 -10.12616
  Beta  occ. eigenvalues --  -10.11933 -10.11764 -10.11048 -10.10521 -10.10393
  Beta  occ. eigenvalues --  -10.10327 -10.10312 -10.10000 -10.09124 -10.08509
  Beta  occ. eigenvalues --  -10.08390 -10.08366 -10.08264 -10.08232 -10.07859
  Beta  occ. eigenvalues --  -10.07799  -7.88675  -7.86750  -5.84984  -5.84602
  Beta  occ. eigenvalues --   -5.84240  -5.83074  -5.82685  -5.82282  -1.00209
  Beta  occ. eigenvalues --   -0.99436  -0.95355  -0.95110  -0.93198  -0.92889
  Beta  occ. eigenvalues --   -0.83580  -0.83206  -0.81268  -0.79592  -0.78528
  Beta  occ. eigenvalues --   -0.73764  -0.71348  -0.69720  -0.68288  -0.66768
  Beta  occ. eigenvalues --   -0.65736  -0.65197  -0.63820  -0.63432  -0.61901
  Beta  occ. eigenvalues --   -0.61011  -0.60108  -0.58202  -0.54894  -0.53792
  Beta  occ. eigenvalues --   -0.53422  -0.52173  -0.51481  -0.49814  -0.48102
  Beta  occ. eigenvalues --   -0.47380  -0.45893  -0.45684  -0.45089  -0.42925
  Beta  occ. eigenvalues --   -0.41793  -0.40843  -0.40698  -0.39888  -0.39713
  Beta  occ. eigenvalues --   -0.39143  -0.38044  -0.37906  -0.37714  -0.37462
  Beta  occ. eigenvalues --   -0.36895  -0.36572  -0.36441  -0.34946  -0.34159
  Beta  occ. eigenvalues --   -0.34081  -0.33673  -0.33222  -0.32891  -0.32499
  Beta  occ. eigenvalues --   -0.32319  -0.31973  -0.31308  -0.30310  -0.30208
  Beta  occ. eigenvalues --   -0.30133  -0.29869  -0.29610  -0.29165  -0.29002
  Beta  occ. eigenvalues --   -0.28630  -0.28292  -0.27693  -0.27126  -0.26776
  Beta  occ. eigenvalues --   -0.25992  -0.25528  -0.24933  -0.24461  -0.23843
  Beta  occ. eigenvalues --   -0.22175  -0.19895  -0.18542  -0.18370  -0.17584
  Beta  occ. eigenvalues --   -0.17286  -0.16864  -0.16727  -0.16105  -0.15686
  Beta  occ. eigenvalues --   -0.15524  -0.14348  -0.12502  -0.09869
  Beta virt. eigenvalues --   -0.00773   0.03281   0.05690   0.05791   0.06775
  Beta virt. eigenvalues --    0.06876   0.07455   0.08157   0.08620   0.08974
  Beta virt. eigenvalues --    0.09163   0.09498   0.09675   0.10079   0.10226

 Mulliken charges and spin densities:
               1          2
     1  C    0.297440   0.015639
     2  C   -0.192888   0.131386
     3  C    0.107848  -0.039083
     4  C    0.203910   0.102943
     5  C    0.192037   0.017764
     6  C   -0.454855   0.032440
     7  C    0.202450  -0.032917
     8  C    0.317781   0.134813
     9  C    0.484878   0.085596
    10  C   -0.489260   0.019532
    11  C    0.172159   0.019384
    12  C    0.148232   0.102063
    13  C   -0.479386   0.059244
    14  C   -0.584758   0.062990
    15  H    0.129958  -0.004391
    16  H    0.131857  -0.004228
    17  H    0.158315  -0.001881
    18  N   -0.102105  -0.020528
    19  N   -0.141682  -0.019705
    20  O   -0.357154   0.074965
    21  O   -0.344438   0.067196
    22  O   -0.348993   0.068788
    23  O   -0.268180   0.078253
    24  C   -0.181722   0.001463
    25  H    0.156429  -0.001057
    26  H    0.148816  -0.000811
    27  H    0.169127  -0.000365
    28  C   -0.191251   0.001170
    29  H    0.153314  -0.000921
    30  H    0.153558  -0.000867
    31  H    0.168608  -0.000337
    32  C    0.108156  -0.038192
    33  C   -0.426156   0.034512
    34  S   -0.596957   0.018068
    35  C   -0.215399  -0.012111
    36  H    0.122832  -0.002833
    37  C    0.674227   0.035791
    38  O   -0.131738  -0.001011
    39  C    0.800688  -0.013059
    40  C   -0.242631   0.000298
    41  C   -0.059636   0.017026
    42  S   -0.289004   0.001694
    43  H    0.146141   0.000002
    44  H    0.136347  -0.000176
    45  H    0.162851  -0.000113
    46  C   -0.568167  -0.007271
    47  O   -0.120576   0.001662
    48  C   -0.295130   0.017383
    49  H    0.115330   0.000344
    50  C   -0.247048   0.000041
    51  H    0.140787  -0.001077
    52  H    0.125636   0.000193
    53  H    0.163072   0.000014
    54  H    0.136334   0.000279
 Sum of Mulliken charges =  -1.00000   1.00000

 Dipole moment (field-independent basis, Debye):
    X=            -11.2712    Y=             -0.3490    Z=              0.5663  Tot=             11.2908
 Quadrupole moment (field-independent basis, Debye-Ang):
   XX=           -317.1739   YY=           -258.4432   ZZ=           -226.6088
   XY=              5.2227   XZ=              2.8177   YZ=             17.2714

 Normal termination of Gaussian 16 at Tue Oct  5 07:45:25 2021.
