 Gaussian 16, Revision C.01,
 Gaussian 16:  ES64L-G16RevC.01  3-Jul-2019

 -------------------------------------
 # opt=modredundant b3lyp/6-311+g(d,p)
 -------------------------------------

 ------------
 NDI_-165.pdb
 ------------
 Symbolic Z-matrix:
 Charge = -1 Multiplicity = 2

 SCF Done:  E(UB3LYP) =  -2359.38532994     A.U. after   24 cycles
 SCF Done:  E(UB3LYP) =  -2359.41008340     A.U. after   23 cycles
 SCF Done:  E(UB3LYP) =  -2359.41998104     A.U. after   21 cycles
 SCF Done:  E(UB3LYP) =  -2359.42233443     A.U. after   19 cycles
 SCF Done:  E(UB3LYP) =  -2359.42295749     A.U. after   18 cycles
 SCF Done:  E(UB3LYP) =  -2359.42312081     A.U. after   20 cycles
 SCF Done:  E(UB3LYP) =  -2359.42324441     A.U. after   17 cycles
 SCF Done:  E(UB3LYP) =  -2359.42339981     A.U. after   16 cycles
 SCF Done:  E(UB3LYP) =  -2359.42384567     A.U. after   21 cycles
 SCF Done:  E(UB3LYP) =  -2359.42428110     A.U. after   18 cycles
 SCF Done:  E(UB3LYP) =  -2359.42480223     A.U. after   11 cycles
 SCF Done:  E(UB3LYP) =  -2359.42480258     A.U. after   10 cycles
 SCF Done:  E(UB3LYP) =  -2359.42480282     A.U. after   10 cycles
 SCF Done:  E(UB3LYP) =  -2359.42480294     A.U. after   10 cycles
 SCF Done:  E(UB3LYP) =  -2359.42480300     A.U. after   10 cycles
 SCF Done:  E(UB3LYP) =  -2359.42480304     A.U. after    9 cycles
 SCF Done:  E(UB3LYP) =  -2359.42480309     A.U. after   10 cycles
 SCF Done:  E(UB3LYP) =  -2359.42480315     A.U. after    9 cycles
 SCF Done:  E(UB3LYP) =  -2359.42480318     A.U. after    9 cycles
 SCF Done:  E(UB3LYP) =  -2359.42480320     A.U. after    8 cycles
 Optimization completed.
    -- Stationary point found.

                         Standard orientation:
 ---------------------------------------------------------------------
 Center     Atomic      Atomic             Coordinates (Angstroms)
 Number     Number       Type             X           Y           Z
 ---------------------------------------------------------------------
      1          6           0       -3.520995   -2.674246    0.195630
      2          6           0       -2.785677   -1.433686   -0.030447
      3          6           0       -3.434040   -0.183334    0.102744
      4          6           0       -4.797621   -0.105336    0.460479
      5          6           0       -5.569638   -1.324572    0.697239
      6          6           0       -1.420595   -1.484619   -0.312041
      7          6           0       -2.676935    1.009611   -0.140505
      8          6           0       -1.300556    0.930612   -0.506765
      9          6           0       -0.639924   -0.346356   -0.538996
     10          6           0       -0.662982    2.152223   -0.991607
     11          6           0       -2.649647    3.505695   -0.291970
     12          6           0       -3.347890    2.254357   -0.019363
     13          6           0       -4.705185    2.304696    0.352070
     14          6           0       -5.422074    1.149487    0.588896
     15          1           0       -6.467529    1.179320    0.868160
     16          1           0       -5.166670    3.280403    0.438158
     17          1           0       -0.960594   -2.462108   -0.284173
     18          7           0       -1.338992    3.371063   -0.766547
     19          7           0       -4.876308   -2.542815    0.542809
     20          8           0       -3.027723   -3.799941    0.098891
     21          8           0       -6.760336   -1.322518    1.012552
     22          8           0       -3.159883    4.619885   -0.151357
     23          8           0        0.410217    2.191223   -1.594665
     24          6           0       -0.626926    4.581826   -1.177356
     25          1           0        0.382397    4.568160   -0.766353
     26          1           0       -0.544431    4.626639   -2.266196
     27          1           0       -1.189859    5.435502   -0.810837
     28          6           0       -5.607529   -3.790742    0.765020
     29          1           0       -5.567512   -4.410281   -0.132668
     30          1           0       -5.148570   -4.353070    1.580511
     31          1           0       -6.634102   -3.533545    1.009022
     32          6           0        0.813239   -0.581944   -0.603635
     33          6           0        1.410603   -1.790075   -0.927164
     34         16           0        2.000074    0.499448    0.082072
     35          6           0        2.790013   -1.837694   -0.640739
     36          1           0        0.863458   -2.606967   -1.372712
     37          6           0        3.294467   -0.681985   -0.059909
     38          8           0        3.631525   -2.887644   -0.895659
     39          6           0        4.656514   -0.403633    0.314995
     40          6           0        3.065719   -4.063591   -1.453945
     41          6           0        5.169874    0.741088    0.910980
     42         16           0        5.969923   -1.550750    0.057823
     43          1           0        3.887547   -4.770994   -1.562489
     44          1           0        2.302367   -4.490599   -0.794414
     45          1           0        2.624691   -3.865374   -2.437130
     46          6           0        6.573028    0.706528    1.145176
     47          8           0        4.326071    1.763434    1.240684
     48          6           0        7.138582   -0.468508    0.734391
     49          1           0        7.134111    1.511194    1.599214
     50          6           0        4.898837    3.018694    1.565040
     51          1           0        8.174553   -0.764010    0.795421
     52          1           0        5.550254    3.378518    0.760293
     53          1           0        4.063835    3.706915    1.689924
     54          1           0        5.468251    2.970893    2.501248
 ---------------------------------------------------------------------

 The electronic state is 2-A.
 Alpha  occ. eigenvalues --  -88.80094 -88.77858 -19.08477 -19.08202 -18.99598
 Alpha  occ. eigenvalues --  -18.99525 -18.99054 -18.98870 -14.26531 -14.26009
 Alpha  occ. eigenvalues --  -10.18091 -10.17868 -10.17500 -10.17469 -10.16184
 Alpha  occ. eigenvalues --  -10.15897 -10.15713 -10.14936 -10.13323 -10.12642
 Alpha  occ. eigenvalues --  -10.11960 -10.11896 -10.10987 -10.10603 -10.10565
 Alpha  occ. eigenvalues --  -10.10191 -10.10156 -10.09866 -10.09053 -10.08660
 Alpha  occ. eigenvalues --  -10.08646 -10.08579 -10.08481 -10.08404 -10.07929
 Alpha  occ. eigenvalues --  -10.07868  -7.88649  -7.86394  -5.84957  -5.84575
 Alpha  occ. eigenvalues --   -5.84219  -5.82720  -5.82317  -5.81940  -1.00101
 Alpha  occ. eigenvalues --   -0.99583  -0.95665  -0.95282  -0.93605  -0.93168
 Alpha  occ. eigenvalues --   -0.83764  -0.83284  -0.81244  -0.79670  -0.78598
 Alpha  occ. eigenvalues --   -0.74077  -0.71625  -0.69833  -0.68254  -0.66708
 Alpha  occ. eigenvalues --   -0.66212  -0.65472  -0.63849  -0.63435  -0.61928
 Alpha  occ. eigenvalues --   -0.61035  -0.60311  -0.58580  -0.54961  -0.54056
 Alpha  occ. eigenvalues --   -0.53408  -0.52482  -0.51400  -0.49776  -0.48024
 Alpha  occ. eigenvalues --   -0.47564  -0.46107  -0.45783  -0.45184  -0.43094
 Alpha  occ. eigenvalues --   -0.42152  -0.40730  -0.40316  -0.40119  -0.39815
 Alpha  occ. eigenvalues --   -0.39172  -0.38343  -0.38004  -0.37906  -0.37453
 Alpha  occ. eigenvalues --   -0.36983  -0.36641  -0.36520  -0.35366  -0.34345
 Alpha  occ. eigenvalues --   -0.33939  -0.33727  -0.33357  -0.32975  -0.32584
 Alpha  occ. eigenvalues --   -0.32512  -0.32292  -0.31541  -0.30583  -0.30453
 Alpha  occ. eigenvalues --   -0.30307  -0.29964  -0.29823  -0.29708  -0.29341
 Alpha  occ. eigenvalues --   -0.28871  -0.28505  -0.27658  -0.27623  -0.26926
 Alpha  occ. eigenvalues --   -0.25983  -0.25490  -0.25157  -0.24511  -0.23785
 Alpha  occ. eigenvalues --   -0.22674  -0.20211  -0.19376  -0.18640  -0.17923
 Alpha  occ. eigenvalues --   -0.17733  -0.17219  -0.16831  -0.16425  -0.15907
 Alpha  occ. eigenvalues --   -0.15861  -0.14464  -0.13822  -0.10155  -0.05049
 Alpha virt. eigenvalues --    0.02756   0.04800   0.05847   0.06143   0.06818
 Alpha virt. eigenvalues --    0.07413   0.07445   0.08606   0.08881   0.09107
 Alpha virt. eigenvalues --    0.09383   0.09808   0.10213   0.10432   0.10594

  Beta  occ. eigenvalues --  -88.80091 -88.77852 -19.08463 -19.08212 -18.99425
  Beta  occ. eigenvalues --  -18.99333 -18.98871 -18.98662 -14.26579 -14.26060
  Beta  occ. eigenvalues --  -10.18045 -10.17823 -10.17458 -10.17421 -10.16184
  Beta  occ. eigenvalues --  -10.15861 -10.15713 -10.14971 -10.13348 -10.12606
  Beta  occ. eigenvalues --  -10.12011 -10.11820 -10.11001 -10.10602 -10.10441
  Beta  occ. eigenvalues --  -10.10210 -10.10190 -10.09920 -10.08870 -10.08575
  Beta  occ. eigenvalues --  -10.08521 -10.08420 -10.08359 -10.08321 -10.07852
  Beta  occ. eigenvalues --  -10.07785  -7.88646  -7.86389  -5.84956  -5.84574
  Beta  occ. eigenvalues --   -5.84211  -5.82716  -5.82313  -5.81924  -1.00071
  Beta  occ. eigenvalues --   -0.99603  -0.95438  -0.95040  -0.93294  -0.92838
  Beta  occ. eigenvalues --   -0.83656  -0.83169  -0.81209  -0.79557  -0.78506
  Beta  occ. eigenvalues --   -0.73771  -0.71331  -0.69729  -0.68212  -0.66628
  Beta  occ. eigenvalues --   -0.66089  -0.65080  -0.63767  -0.63373  -0.61892
  Beta  occ. eigenvalues --   -0.60985  -0.60077  -0.58296  -0.54813  -0.53884
  Beta  occ. eigenvalues --   -0.53281  -0.52379  -0.51322  -0.49709  -0.47995
  Beta  occ. eigenvalues --   -0.47511  -0.46049  -0.45695  -0.45064  -0.42952
  Beta  occ. eigenvalues --   -0.42060  -0.40692  -0.40272  -0.40132  -0.39759
  Beta  occ. eigenvalues --   -0.39038  -0.38124  -0.37941  -0.37720  -0.37422
  Beta  occ. eigenvalues --   -0.36903  -0.36526  -0.36458  -0.35276  -0.34194
  Beta  occ. eigenvalues --   -0.33891  -0.33611  -0.33279  -0.32872  -0.32432
  Beta  occ. eigenvalues --   -0.32297  -0.32050  -0.31401  -0.30363  -0.30232
  Beta  occ. eigenvalues --   -0.30127  -0.29842  -0.29576  -0.29098  -0.29063
  Beta  occ. eigenvalues --   -0.28527  -0.28228  -0.27567  -0.27378  -0.26689
  Beta  occ. eigenvalues --   -0.25873  -0.25441  -0.25025  -0.24417  -0.23691
  Beta  occ. eigenvalues --   -0.22078  -0.19812  -0.18482  -0.18441  -0.17556
  Beta  occ. eigenvalues --   -0.17364  -0.16926  -0.16577  -0.16218  -0.15681
  Beta  occ. eigenvalues --   -0.15391  -0.14241  -0.12523  -0.09732
  Beta virt. eigenvalues --   -0.00781   0.03176   0.05783   0.05848   0.06527
  Beta virt. eigenvalues --    0.06819   0.07424   0.08180   0.08608   0.08885
  Beta virt. eigenvalues --    0.09122   0.09415   0.10022   0.10219   0.10443

 Mulliken charges and spin densities:
               1          2
     1  C    0.293733   0.018416
     2  C   -0.066728   0.123172
     3  C    0.137649  -0.037864
     4  C    0.237939   0.095922
     5  C    0.156722   0.019261
     6  C    0.104975   0.023312
     7  C    0.108079  -0.034658
     8  C    0.273734   0.137581
     9  C    0.247949   0.084898
    10  C   -0.618919   0.013609
    11  C    0.276283   0.018893
    12  C    0.087053   0.106000
    13  C   -0.479848   0.049484
    14  C   -0.577558   0.068722
    15  H    0.129710  -0.004724
    16  H    0.132081  -0.003728
    17  H    0.135484  -0.001255
    18  N   -0.027256  -0.019917
    19  N   -0.144726  -0.019555
    20  O   -0.360783   0.071502
    21  O   -0.343019   0.064748
    22  O   -0.351952   0.068478
    23  O   -0.283795   0.079159
    24  C   -0.174281   0.001621
    25  H    0.157668  -0.000700
    26  H    0.155452  -0.001114
    27  H    0.168335  -0.000388
    28  C   -0.185488   0.001256
    29  H    0.152454  -0.000856
    30  H    0.153408  -0.000896
    31  H    0.168750  -0.000327
    32  C    0.033322  -0.022321
    33  C   -0.621069   0.054076
    34  S   -0.714806   0.011711
    35  C   -0.330667  -0.025343
    36  H    0.122510  -0.002461
    37  C    0.715535   0.040714
    38  O   -0.137246  -0.001236
    39  C    0.872045  -0.016815
    40  C   -0.224928   0.000205
    41  C   -0.064749   0.024371
    42  S   -0.269247   0.001729
    43  H    0.149368  -0.000001
    44  H    0.147542  -0.000206
    45  H    0.141402  -0.000275
    46  C   -0.477797  -0.011317
    47  O   -0.116575   0.002290
    48  C   -0.310992   0.025541
    49  H    0.114270   0.000503
    50  C   -0.257991  -0.000316
    51  H    0.141086  -0.001588
    52  H    0.140288   0.000403
    53  H    0.161642   0.000032
    54  H    0.123949   0.000252
 Sum of Mulliken charges =  -1.00000   1.00000

 Dipole moment (field-independent basis, Debye):
    X=             11.0728    Y=             -1.4002    Z=              0.2859  Tot=             11.1646
 Quadrupole moment (field-independent basis, Debye-Ang):
   XX=           -311.5337   YY=           -257.5198   ZZ=           -231.1911
   XY=             10.6519   XZ=             12.5036   YZ=             11.3751

 Normal termination of Gaussian 16 at Tue Oct  5 06:40:05 2021.
