 Gaussian 16, Revision C.01,
 Gaussian 16:  ES64L-G16RevC.01  3-Jul-2019

 -------------------------------------
 # opt=modredundant b3lyp/6-311+g(d,p)
 -------------------------------------

 ----------
 NDI_-5.pdb
 ----------
 Symbolic Z-matrix:
 Charge = -1 Multiplicity = 2

 SCF Done:  E(UB3LYP) =  -2359.40821524     A.U. after   22 cycles
 SCF Done:  E(UB3LYP) =  -2359.40186379     A.U. after   23 cycles
 SCF Done:  E(UB3LYP) =  -2359.41985697     A.U. after   19 cycles
 SCF Done:  E(UB3LYP) =  -2359.42281257     A.U. after   22 cycles
 SCF Done:  E(UB3LYP) =  -2359.42376640     A.U. after   22 cycles
 SCF Done:  E(UB3LYP) =  -2359.42472160     A.U. after   23 cycles
 SCF Done:  E(UB3LYP) =  -2359.42501028     A.U. after   17 cycles
 SCF Done:  E(UB3LYP) =  -2359.42513007     A.U. after   19 cycles
 SCF Done:  E(UB3LYP) =  -2359.42514803     A.U. after   17 cycles
 SCF Done:  E(UB3LYP) =  -2359.42521972     A.U. after   16 cycles
 SCF Done:  E(UB3LYP) =  -2359.42525494     A.U. after   13 cycles
 SCF Done:  E(UB3LYP) =  -2359.42525506     A.U. after   10 cycles
 SCF Done:  E(UB3LYP) =  -2359.42525519     A.U. after   10 cycles
 SCF Done:  E(UB3LYP) =  -2359.42525535     A.U. after   10 cycles
 SCF Done:  E(UB3LYP) =  -2359.42525556     A.U. after   10 cycles
 SCF Done:  E(UB3LYP) =  -2359.42525576     A.U. after   10 cycles
 SCF Done:  E(UB3LYP) =  -2359.42525595     A.U. after   10 cycles
 SCF Done:  E(UB3LYP) =  -2359.42525606     A.U. after   11 cycles
 SCF Done:  E(UB3LYP) =  -2359.42525611     A.U. after   10 cycles
 SCF Done:  E(UB3LYP) =  -2359.42525613     A.U. after    9 cycles
 Optimization completed.
    -- Stationary point found.

                         Standard orientation:
 ---------------------------------------------------------------------
 Center     Atomic      Atomic             Coordinates (Angstroms)
 Number     Number       Type             X           Y           Z
 ---------------------------------------------------------------------
      1          6           0       -2.503522   -3.028333    0.071083
      2          6           0       -2.236163   -1.592293    0.101257
      3          6           0       -3.291287   -0.661809   -0.046329
      4          6           0       -4.618607   -1.099401   -0.241988
      5          6           0       -4.928569   -2.529204   -0.287552
      6          6           0       -0.924471   -1.141375    0.203036
      7          6           0       -2.981883    0.737327    0.019761
      8          6           0       -1.637072    1.182114    0.227257
      9          6           0       -0.560284    0.211229    0.235537
     10          6           0       -1.460562    2.592121    0.567657
     11          6           0       -3.845205    3.084548   -0.021747
     12          6           0       -4.063760    1.647656   -0.114975
     13          6           0       -5.376640    1.186085   -0.330116
     14          6           0       -5.657137   -0.162577   -0.391645
     15          1           0       -6.664540   -0.526924   -0.546559
     16          1           0       -6.156992    1.929099   -0.436098
     17          1           0       -0.165001   -1.912798    0.209239
     18          7           0       -2.545769    3.465060    0.328904
     19          7           0       -3.842650   -3.410363   -0.117993
     20          8           0       -1.639505   -3.896694    0.196906
     21          8           0       -6.065958   -2.968885   -0.458677
     22          8           0       -4.727756    3.928181   -0.199953
     23          8           0       -0.445933    3.088404    1.067375
     24          6           0       -2.293554    4.883157    0.588894
     25          1           0       -2.096516    5.046450    1.650672
     26          1           0       -1.414867    5.210898    0.032086
     27          1           0       -3.176635    5.434427    0.278928
     28          6           0       -4.103524   -4.850016   -0.147464
     29          1           0       -3.553335   -5.313342   -0.968809
     30          1           0       -3.764139   -5.307940    0.783183
     31          1           0       -5.172591   -4.989970   -0.277905
     32          6           0        0.874563    0.489684    0.079441
     33          6           0        1.557048    1.657211   -0.195938
     34         16           0        2.032774   -0.834408    0.257095
     35          6           0        2.955559    1.494849   -0.288549
     36          1           0        1.060938    2.604854   -0.293612
     37          6           0        3.412255    0.203900   -0.068323
     38          8           0        3.855622    2.487339   -0.561689
     39          6           0        4.768362   -0.274415   -0.088450
     40          6           0        3.354199    3.812278   -0.690436
     41          6           0        5.232130   -1.566133    0.131006
     42         16           0        6.143147    0.777909   -0.418386
     43          1           0        4.225657    4.447421   -0.847980
     44          1           0        2.680283    3.898637   -1.549496
     45          1           0        2.825809    4.126277    0.214951
     46          6           0        6.644195   -1.709803    0.034704
     47          8           0        4.339394   -2.558223    0.419464
     48          6           0        7.267035   -0.527645   -0.257510
     49          1           0        7.172638   -2.642052    0.175622
     50          6           0        4.826264   -3.884581    0.526068
     51          1           0        8.323161   -0.348331   -0.386674
     52          1           0        5.531414   -3.986825    1.359764
     53          1           0        3.954389   -4.509611    0.714138
     54          1           0        5.311397   -4.207585   -0.402635
 ---------------------------------------------------------------------

 The electronic state is 2-A.
 Alpha  occ. eigenvalues --  -88.80178 -88.77962 -19.08654 -19.08004 -18.99720
 Alpha  occ. eigenvalues --  -18.99579 -18.99111 -18.99050 -14.26597 -14.26180
 Alpha  occ. eigenvalues --  -10.18213 -10.17938 -10.17769 -10.17536 -10.16285
 Alpha  occ. eigenvalues --  -10.16056 -10.15239 -10.14878 -10.13416 -10.12720
 Alpha  occ. eigenvalues --  -10.12084 -10.11945 -10.11083 -10.10820 -10.10650
 Alpha  occ. eigenvalues --  -10.10421 -10.10326 -10.09913 -10.09353 -10.08771
 Alpha  occ. eigenvalues --  -10.08642 -10.08538 -10.08444 -10.07968 -10.07910
 Alpha  occ. eigenvalues --  -10.07900  -7.88731  -7.86537  -5.85039  -5.84656
 Alpha  occ. eigenvalues --   -5.84302  -5.82863  -5.82470  -5.82081  -1.00280
 Alpha  occ. eigenvalues --   -0.99371  -0.95787  -0.95441  -0.93729  -0.93274
 Alpha  occ. eigenvalues --   -0.83863  -0.83401  -0.81320  -0.79647  -0.78582
 Alpha  occ. eigenvalues --   -0.74103  -0.71693  -0.69825  -0.68365  -0.66928
 Alpha  occ. eigenvalues --   -0.65736  -0.65665  -0.63904  -0.63572  -0.61877
 Alpha  occ. eigenvalues --   -0.61147  -0.60431  -0.58431  -0.55183  -0.54066
 Alpha  occ. eigenvalues --   -0.53598  -0.52441  -0.51492  -0.49902  -0.48145
 Alpha  occ. eigenvalues --   -0.47402  -0.46056  -0.45734  -0.45272  -0.43208
 Alpha  occ. eigenvalues --   -0.42023  -0.40845  -0.40715  -0.39746  -0.39632
 Alpha  occ. eigenvalues --   -0.39367  -0.38398  -0.38023  -0.37938  -0.37492
 Alpha  occ. eigenvalues --   -0.37064  -0.36733  -0.36548  -0.35131  -0.34326
 Alpha  occ. eigenvalues --   -0.34213  -0.33767  -0.33205  -0.33172  -0.32752
 Alpha  occ. eigenvalues --   -0.32542  -0.32248  -0.31274  -0.30730  -0.30579
 Alpha  occ. eigenvalues --   -0.30395  -0.30251  -0.29889  -0.29678  -0.29440
 Alpha  occ. eigenvalues --   -0.28916  -0.28413  -0.27724  -0.27425  -0.27028
 Alpha  occ. eigenvalues --   -0.26111  -0.25507  -0.25347  -0.25072  -0.23279
 Alpha  occ. eigenvalues --   -0.22763  -0.20407  -0.19428  -0.18718  -0.17958
 Alpha  occ. eigenvalues --   -0.17857  -0.17306  -0.16971  -0.16497  -0.15995
 Alpha  occ. eigenvalues --   -0.15784  -0.14874  -0.13842  -0.10216  -0.05102
 Alpha virt. eigenvalues --    0.02439   0.04620   0.05801   0.06245   0.06904
 Alpha virt. eigenvalues --    0.07344   0.07564   0.08585   0.08916   0.09114
 Alpha virt. eigenvalues --    0.09615   0.10083   0.10312   0.10347   0.10675

  Beta  occ. eigenvalues --  -88.80175 -88.77945 -19.08638 -19.08014 -18.99555
  Beta  occ. eigenvalues --  -18.99390 -18.98933 -18.98839 -14.26642 -14.26231
  Beta  occ. eigenvalues --  -10.18170 -10.17898 -10.17712 -10.17493 -10.16286
  Beta  occ. eigenvalues --  -10.16015 -10.15238 -10.14914 -10.13445 -10.12679
  Beta  occ. eigenvalues --  -10.12005 -10.11999 -10.11098 -10.10669 -10.10649
  Beta  occ. eigenvalues --  -10.10420 -10.10375 -10.09970 -10.09181 -10.08632
  Beta  occ. eigenvalues --  -10.08480 -10.08415 -10.08390 -10.07894 -10.07841
  Beta  occ. eigenvalues --  -10.07821  -7.88728  -7.86521  -5.85038  -5.84655
  Beta  occ. eigenvalues --   -5.84292  -5.82854  -5.82461  -5.82027  -1.00245
  Beta  occ. eigenvalues --   -0.99393  -0.95567  -0.95199  -0.93427  -0.92944
  Beta  occ. eigenvalues --   -0.83757  -0.83286  -0.81282  -0.79524  -0.78492
  Beta  occ. eigenvalues --   -0.73796  -0.71406  -0.69726  -0.68309  -0.66829
  Beta  occ. eigenvalues --   -0.65634  -0.65291  -0.63811  -0.63507  -0.61824
  Beta  occ. eigenvalues --   -0.61097  -0.60174  -0.58183  -0.55034  -0.53881
  Beta  occ. eigenvalues --   -0.53501  -0.52278  -0.51440  -0.49856  -0.48117
  Beta  occ. eigenvalues --   -0.47340  -0.45972  -0.45666  -0.45158  -0.43058
  Beta  occ. eigenvalues --   -0.41931  -0.40801  -0.40667  -0.39762  -0.39589
  Beta  occ. eigenvalues --   -0.39211  -0.38190  -0.37926  -0.37810  -0.37458
  Beta  occ. eigenvalues --   -0.36949  -0.36673  -0.36459  -0.35031  -0.34220
  Beta  occ. eigenvalues --   -0.34104  -0.33693  -0.33099  -0.33073  -0.32578
  Beta  occ. eigenvalues --   -0.32291  -0.32062  -0.31120  -0.30471  -0.30323
  Beta  occ. eigenvalues --   -0.30205  -0.30164  -0.29609  -0.29269  -0.29113
  Beta  occ. eigenvalues --   -0.28451  -0.28216  -0.27636  -0.27196  -0.26792
  Beta  occ. eigenvalues --   -0.26002  -0.25441  -0.25147  -0.25011  -0.23143
  Beta  occ. eigenvalues --   -0.22235  -0.19963  -0.18575  -0.18517  -0.17681
  Beta  occ. eigenvalues --   -0.17420  -0.17015  -0.16666  -0.16296  -0.15736
  Beta  occ. eigenvalues --   -0.15394  -0.14595  -0.12623  -0.09685
  Beta virt. eigenvalues --   -0.00889   0.02859   0.05589   0.05802   0.06663
  Beta virt. eigenvalues --    0.06907   0.07565   0.08087   0.08588   0.08917
  Beta virt. eigenvalues --    0.09121   0.09619   0.10208   0.10335   0.10446

 Mulliken charges and spin densities:
               1          2
     1  C    0.243559   0.014490
     2  C   -0.012534   0.128655
     3  C    0.199485  -0.038734
     4  C    0.203448   0.094673
     5  C    0.185925   0.018034
     6  C    0.094587   0.008033
     7  C    0.194368  -0.026113
     8  C    0.437691   0.127248
     9  C    0.113280   0.091922
    10  C   -0.886321   0.010908
    11  C    0.190054   0.020521
    12  C    0.163787   0.094151
    13  C   -0.490288   0.053578
    14  C   -0.579710   0.063565
    15  H    0.129875  -0.004302
    16  H    0.133213  -0.003840
    17  H    0.148500  -0.000197
    18  N   -0.049131  -0.020243
    19  N   -0.139735  -0.018383
    20  O   -0.357082   0.070530
    21  O   -0.341292   0.061883
    22  O   -0.351668   0.067200
    23  O   -0.327462   0.078321
    24  C   -0.149227   0.001961
    25  H    0.157394  -0.001100
    26  H    0.146734  -0.000788
    27  H    0.170121  -0.000378
    28  C   -0.188979   0.001021
    29  H    0.154213  -0.000858
    30  H    0.153736  -0.000806
    31  H    0.168373  -0.000309
    32  C   -0.134644  -0.037905
    33  C    0.011393   0.073694
    34  S   -0.690692   0.021593
    35  C   -0.669225  -0.021399
    36  H    0.157197  -0.003091
    37  C    0.584371   0.048335
    38  O   -0.131397  -0.001444
    39  C    0.995209  -0.018145
    40  C   -0.245436   0.000165
    41  C    0.004954   0.027056
    42  S   -0.256164   0.002128
    43  H    0.147097   0.000005
    44  H    0.139155  -0.000301
    45  H    0.163333  -0.000274
    46  C   -0.573388  -0.011353
    47  O   -0.119397   0.002573
    48  C   -0.338674   0.028486
    49  H    0.116214   0.000555
    50  C   -0.245102  -0.000359
    51  H    0.141665  -0.001780
    52  H    0.126536   0.000353
    53  H    0.167985  -0.000017
    54  H    0.134093   0.000479
 Sum of Mulliken charges =  -1.00000   1.00000

 Dipole moment (field-independent basis, Debye):
    X=             11.2340    Y=             -0.4329    Z=             -0.5670  Tot=             11.2566
 Quadrupole moment (field-independent basis, Debye-Ang):
   XX=           -314.3047   YY=           -254.7225   ZZ=           -231.6227
   XY=             -5.4464   XZ=             -5.1859   YZ=             -5.4174

 Normal termination of Gaussian 16 at Tue Oct  5 16:03:49 2021.
