 Gaussian 16, Revision C.01,
 Gaussian 16:  ES64L-G16RevC.01  3-Jul-2019

 -------------------------------------
 # opt=modredundant b3lyp/6-311+g(d,p)
 -------------------------------------

 ----------
 NDI_30.pdb
 ----------
 Symbolic Z-matrix:
 Charge = -1 Multiplicity = 2

 SCF Done:  E(UB3LYP) =  -2359.41613404     A.U. after   23 cycles
 SCF Done:  E(UB3LYP) =  -2359.40970458     A.U. after   23 cycles
 SCF Done:  E(UB3LYP) =  -2359.42152743     A.U. after   19 cycles
 SCF Done:  E(UB3LYP) =  -2359.42513516     A.U. after   17 cycles
 SCF Done:  E(UB3LYP) =  -2359.42568294     A.U. after   17 cycles
 SCF Done:  E(UB3LYP) =  -2359.42646714     A.U. after   19 cycles
 SCF Done:  E(UB3LYP) =  -2359.42708787     A.U. after   22 cycles
 SCF Done:  E(UB3LYP) =  -2359.42748263     A.U. after   18 cycles
 SCF Done:  E(UB3LYP) =  -2359.42799635     A.U. after   22 cycles
 SCF Done:  E(UB3LYP) =  -2359.42810647     A.U. after   18 cycles
 SCF Done:  E(UB3LYP) =  -2359.42835758     A.U. after   14 cycles
 SCF Done:  E(UB3LYP) =  -2359.42835781     A.U. after   12 cycles
 SCF Done:  E(UB3LYP) =  -2359.42835811     A.U. after   11 cycles
 SCF Done:  E(UB3LYP) =  -2359.42835832     A.U. after   12 cycles
 SCF Done:  E(UB3LYP) =  -2359.42835847     A.U. after   11 cycles
 SCF Done:  E(UB3LYP) =  -2359.42835861     A.U. after   12 cycles
 SCF Done:  E(UB3LYP) =  -2359.42835868     A.U. after   11 cycles
 SCF Done:  E(UB3LYP) =  -2359.42835876     A.U. after   11 cycles
 SCF Done:  E(UB3LYP) =  -2359.42835880     A.U. after   11 cycles
 SCF Done:  E(UB3LYP) =  -2359.42835880     A.U. after    9 cycles
 Optimization completed.
    -- Stationary point found.

                         Standard orientation:
 ---------------------------------------------------------------------
 Center     Atomic      Atomic             Coordinates (Angstroms)
 Number     Number       Type             X           Y           Z
 ---------------------------------------------------------------------
      1          6           0       -2.659917   -2.994272    0.303226
      2          6           0       -2.317576   -1.584480    0.137088
      3          6           0       -3.333902   -0.602542    0.071085
      4          6           0       -4.696359   -0.963651    0.167866
      5          6           0       -5.081679   -2.364879    0.335770
      6          6           0       -0.977065   -1.200756    0.103207
      7          6           0       -2.955751    0.771092   -0.103855
      8          6           0       -1.578275    1.138687   -0.205126
      9          6           0       -0.565252    0.127100   -0.042264
     10          6           0       -1.273181    2.514266   -0.601108
     11          6           0       -3.693608    3.142339   -0.397461
     12          6           0       -3.996343    1.732894   -0.184258
     13          6           0       -5.346052    1.346986   -0.071962
     14          6           0       -5.695804    0.024060    0.100909
     15          1           0       -6.730712   -0.282894    0.181673
     16          1           0       -6.096925    2.124584   -0.133063
     17          1           0       -0.242191   -1.981358    0.252324
     18          7           0       -2.341358    3.440362   -0.603452
     19          7           0       -4.029463   -3.299919    0.387125
     20          8           0       -1.832824   -3.904456    0.371613
     21          8           0       -6.251930   -2.738389    0.427999
     22          8           0       -4.549399    4.030698   -0.424517
     23          8           0       -0.165115    2.931338   -0.944511
     24          6           0       -1.985290    4.819917   -0.938401
     25          1           0       -1.204332    5.175984   -0.264921
     26          1           0       -1.596370    4.873674   -1.957327
     27          1           0       -2.883444    5.422932   -0.841704
     28          6           0       -4.363965   -4.715194    0.549787
     29          1           0       -3.955959   -5.291406   -0.282453
     30          1           0       -3.923124   -5.100350    1.471338
     31          1           0       -5.446437   -4.797797    0.580896
     32          6           0        0.871354    0.381127    0.127796
     33          6           0        1.523674    1.448281    0.699977
     34         16           0        2.032567   -0.818144   -0.415073
     35          6           0        2.927662    1.300799    0.724678
     36          1           0        1.002977    2.312413    1.075404
     37          6           0        3.401245    0.123211    0.162028
     38          8           0        3.816597    2.199661    1.246716
     39          6           0        4.766790   -0.312379    0.033823
     40          6           0        3.310621    3.470746    1.635079
     41          6           0        5.247378   -1.490812   -0.522784
     42         16           0        6.130295    0.649035    0.600856
     43          1           0        4.178386    4.063441    1.923932
     44          1           0        2.788016    3.957822    0.806024
     45          1           0        2.631694    3.382744    2.490459
     46          6           0        6.663730   -1.623206   -0.492612
     47          8           0        4.365666   -2.391378   -1.050862
     48          6           0        7.272912   -0.544273    0.086031
     49          1           0        7.204352   -2.474629   -0.881320
     50          6           0        4.861528   -3.662859   -1.432186
     51          1           0        8.328420   -0.380819    0.238989
     52          1           0        5.345668   -4.171151   -0.590072
     53          1           0        3.994797   -4.239732   -1.752210
     54          1           0        5.569917   -3.583822   -2.265725
 ---------------------------------------------------------------------

 The electronic state is 2-A.
 Alpha  occ. eigenvalues --  -88.80137 -88.78141 -19.08640 -19.08034 -18.99585
 Alpha  occ. eigenvalues --  -18.99445 -18.99119 -18.98915 -14.26492 -14.26142
 Alpha  occ. eigenvalues --  -10.18080 -10.17804 -10.17683 -10.17562 -10.16321
 Alpha  occ. eigenvalues --  -10.15974 -10.15348 -10.14954 -10.13395 -10.12661
 Alpha  occ. eigenvalues --  -10.12028 -10.11745 -10.11049 -10.10574 -10.10560
 Alpha  occ. eigenvalues --  -10.10347 -10.10288 -10.09937 -10.09288 -10.08697
 Alpha  occ. eigenvalues --  -10.08594 -10.08526 -10.08320 -10.08259 -10.07951
 Alpha  occ. eigenvalues --  -10.07889  -7.88690  -7.86705  -5.84998  -5.84616
 Alpha  occ. eigenvalues --   -5.84260  -5.83027  -5.82638  -5.82255  -1.00239
 Alpha  occ. eigenvalues --   -0.99413  -0.95649  -0.95365  -0.93584  -0.93228
 Alpha  occ. eigenvalues --   -0.83745  -0.83334  -0.81302  -0.79692  -0.78616
 Alpha  occ. eigenvalues --   -0.74086  -0.71661  -0.69817  -0.68340  -0.66882
 Alpha  occ. eigenvalues --   -0.65820  -0.65613  -0.63911  -0.63513  -0.61928
 Alpha  occ. eigenvalues --   -0.61087  -0.60373  -0.58462  -0.55078  -0.54008
 Alpha  occ. eigenvalues --   -0.53540  -0.52377  -0.51508  -0.49872  -0.48129
 Alpha  occ. eigenvalues --   -0.47430  -0.45984  -0.45760  -0.45227  -0.43115
 Alpha  occ. eigenvalues --   -0.41944  -0.40865  -0.40721  -0.39844  -0.39705
 Alpha  occ. eigenvalues --   -0.39312  -0.38304  -0.37980  -0.37898  -0.37491
 Alpha  occ. eigenvalues --   -0.37014  -0.36659  -0.36558  -0.35055  -0.34243
 Alpha  occ. eigenvalues --   -0.34208  -0.33784  -0.33241  -0.32999  -0.32680
 Alpha  occ. eigenvalues --   -0.32596  -0.32254  -0.31362  -0.30638  -0.30538
 Alpha  occ. eigenvalues --   -0.30303  -0.30034  -0.29896  -0.29569  -0.29345
 Alpha  occ. eigenvalues --   -0.29076  -0.28614  -0.27730  -0.27413  -0.27023
 Alpha  occ. eigenvalues --   -0.26073  -0.25563  -0.25102  -0.24739  -0.23778
 Alpha  occ. eigenvalues --   -0.22826  -0.20303  -0.19429  -0.18605  -0.17929
 Alpha  occ. eigenvalues --   -0.17780  -0.17232  -0.16974  -0.16388  -0.15974
 Alpha  occ. eigenvalues --   -0.15857  -0.14584  -0.13861  -0.10208  -0.05120
 Alpha virt. eigenvalues --    0.02815   0.04656   0.05793   0.06315   0.06874
 Alpha virt. eigenvalues --    0.07377   0.07488   0.08611   0.08938   0.09145
 Alpha virt. eigenvalues --    0.09514   0.09666   0.10147   0.10237   0.10626

  Beta  occ. eigenvalues --  -88.80134 -88.78129 -19.08629 -19.08042 -18.99409
  Beta  occ. eigenvalues --  -18.99248 -18.98938 -18.98709 -14.26539 -14.26193
  Beta  occ. eigenvalues --  -10.18035 -10.17762 -10.17629 -10.17518 -10.16322
  Beta  occ. eigenvalues --  -10.15943 -10.15347 -10.14983 -10.13417 -10.12631
  Beta  occ. eigenvalues --  -10.11963 -10.11792 -10.11061 -10.10560 -10.10445
  Beta  occ. eigenvalues --  -10.10346 -10.10340 -10.09994 -10.09112 -10.08550
  Beta  occ. eigenvalues --  -10.08415 -10.08375 -10.08286 -10.08203 -10.07872
  Beta  occ. eigenvalues --  -10.07809  -7.88688  -7.86694  -5.84997  -5.84615
  Beta  occ. eigenvalues --   -5.84253  -5.83020  -5.82631  -5.82218  -1.00213
  Beta  occ. eigenvalues --   -0.99429  -0.95420  -0.95125  -0.93267  -0.92899
  Beta  occ. eigenvalues --   -0.83634  -0.83220  -0.81272  -0.79579  -0.78523
  Beta  occ. eigenvalues --   -0.73777  -0.71366  -0.69724  -0.68292  -0.66789
  Beta  occ. eigenvalues --   -0.65712  -0.65229  -0.63820  -0.63454  -0.61887
  Beta  occ. eigenvalues --   -0.61037  -0.60122  -0.58198  -0.54933  -0.53815
  Beta  occ. eigenvalues --   -0.53449  -0.52205  -0.51465  -0.49825  -0.48105
  Beta  occ. eigenvalues --   -0.47368  -0.45921  -0.45677  -0.45109  -0.42962
  Beta  occ. eigenvalues --   -0.41847  -0.40832  -0.40682  -0.39855  -0.39674
  Beta  occ. eigenvalues --   -0.39153  -0.38086  -0.37912  -0.37735  -0.37460
  Beta  occ. eigenvalues --   -0.36914  -0.36601  -0.36454  -0.34967  -0.34135
  Beta  occ. eigenvalues --   -0.34098  -0.33689  -0.33178  -0.32916  -0.32522
  Beta  occ. eigenvalues --   -0.32353  -0.31994  -0.31256  -0.30365  -0.30245
  Beta  occ. eigenvalues --   -0.30162  -0.29941  -0.29620  -0.29194  -0.29025
  Beta  occ. eigenvalues --   -0.28580  -0.28308  -0.27660  -0.27179  -0.26771
  Beta  occ. eigenvalues --   -0.25993  -0.25521  -0.24990  -0.24611  -0.23701
  Beta  occ. eigenvalues --   -0.22198  -0.19916  -0.18543  -0.18418  -0.17609
  Beta  occ. eigenvalues --   -0.17335  -0.16907  -0.16728  -0.16164  -0.15709
  Beta  occ. eigenvalues --   -0.15485  -0.14359  -0.12541  -0.09801
  Beta virt. eigenvalues --   -0.00825   0.03163   0.05656   0.05795   0.06729
  Beta virt. eigenvalues --    0.06882   0.07480   0.08137   0.08617   0.08943
  Beta virt. eigenvalues --    0.09152   0.09545   0.09864   0.10166   0.10250

 Mulliken charges and spin densities:
               1          2
     1  C    0.260331   0.015190
     2  C   -0.167151   0.130463
     3  C    0.133544  -0.038517
     4  C    0.205249   0.099778
     5  C    0.180782   0.017792
     6  C   -0.266112   0.025754
     7  C    0.215723  -0.031693
     8  C    0.439973   0.134683
     9  C    0.364335   0.090761
    10  C   -0.643378   0.016379
    11  C    0.184345   0.019086
    12  C    0.128777   0.100042
    13  C   -0.481336   0.057133
    14  C   -0.580124   0.063042
    15  H    0.129937  -0.004357
    16  H    0.132163  -0.004121
    17  H    0.155459  -0.001352
    18  N   -0.077880  -0.020458
    19  N   -0.140422  -0.019331
    20  O   -0.357919   0.073796
    21  O   -0.343107   0.065517
    22  O   -0.349756   0.068159
    23  O   -0.285510   0.077611
    24  C   -0.168409   0.001592
    25  H    0.147819  -0.000792
    26  H    0.156878  -0.001070
    27  H    0.169224  -0.000367
    28  C   -0.191835   0.001126
    29  H    0.153511  -0.000853
    30  H    0.153560  -0.000898
    31  H    0.168492  -0.000328
    32  C    0.048223  -0.037547
    33  C   -0.430571   0.041140
    34  S   -0.655850   0.021268
    35  C   -0.230455  -0.015743
    36  H    0.127990  -0.003160
    37  C    0.687418   0.039921
    38  O   -0.130265  -0.001168
    39  C    0.841980  -0.014820
    40  C   -0.243106   0.000179
    41  C   -0.040425   0.020705
    42  S   -0.283977   0.001876
    43  H    0.146376   0.000003
    44  H    0.164276  -0.000143
    45  H    0.136882  -0.000215
    46  C   -0.581529  -0.008630
    47  O   -0.119854   0.001873
    48  C   -0.299651   0.021065
    49  H    0.115516   0.000415
    50  C   -0.246912  -0.000069
    51  H    0.141037  -0.001309
    52  H    0.136476   0.000350
    53  H    0.164087   0.000008
    54  H    0.125172   0.000237
 Sum of Mulliken charges =  -1.00000   1.00000

 Dipole moment (field-independent basis, Debye):
    X=             11.2564    Y=             -0.3643    Z=              0.5982  Tot=             11.2782
 Quadrupole moment (field-independent basis, Debye-Ang):
   XX=           -316.4745   YY=           -257.1699   ZZ=           -228.1782
   XY=             -5.3204   XZ=             -0.6448   YZ=             14.4679

 Normal termination of Gaussian 16 at Wed Oct  6 02:07:10 2021.
