 Gaussian 16, Revision C.01,
 Gaussian 16:  ES64L-G16RevC.01  3-Jul-2019

 -------------------------------------
 # opt=modredundant b3lyp/6-311+g(d,p)
 -------------------------------------

 -----------
 NDI_175.pdb
 -----------
 Symbolic Z-matrix:
 Charge = -1 Multiplicity = 2

 SCF Done:  E(UB3LYP) =  -2359.37661840     A.U. after   23 cycles
 SCF Done:  E(UB3LYP) =  -2359.40769542     A.U. after   25 cycles
 SCF Done:  E(UB3LYP) =  -2359.41771974     A.U. after   20 cycles
 SCF Done:  E(UB3LYP) =  -2359.42077810     A.U. after   19 cycles
 SCF Done:  E(UB3LYP) =  -2359.42146112     A.U. after   21 cycles
 SCF Done:  E(UB3LYP) =  -2359.42167522     A.U. after   21 cycles
 SCF Done:  E(UB3LYP) =  -2359.42203503     A.U. after   20 cycles
 SCF Done:  E(UB3LYP) =  -2359.42229408     A.U. after   18 cycles
 SCF Done:  E(UB3LYP) =  -2359.42255780     A.U. after   21 cycles
 SCF Done:  E(UB3LYP) =  -2359.42269229     A.U. after   21 cycles
 SCF Done:  E(UB3LYP) =  -2359.42318685     A.U. after   12 cycles
 SCF Done:  E(UB3LYP) =  -2359.42318717     A.U. after   10 cycles
 SCF Done:  E(UB3LYP) =  -2359.42318770     A.U. after   11 cycles
 SCF Done:  E(UB3LYP) =  -2359.42318801     A.U. after   10 cycles
 SCF Done:  E(UB3LYP) =  -2359.42318841     A.U. after   10 cycles
 SCF Done:  E(UB3LYP) =  -2359.42318864     A.U. after   10 cycles
 SCF Done:  E(UB3LYP) =  -2359.42318899     A.U. after   10 cycles
 SCF Done:  E(UB3LYP) =  -2359.42318925     A.U. after   10 cycles
 SCF Done:  E(UB3LYP) =  -2359.42318935     A.U. after   10 cycles
 SCF Done:  E(UB3LYP) =  -2359.42318938     A.U. after    9 cycles
 Optimization completed.
    -- Stationary point found.

                         Standard orientation:
 ---------------------------------------------------------------------
 Center     Atomic      Atomic             Coordinates (Angstroms)
 Number     Number       Type             X           Y           Z
 ---------------------------------------------------------------------
      1          6           0       -3.569186   -2.649195   -0.067840
      2          6           0       -2.816576   -1.408716    0.097322
      3          6           0       -3.450004   -0.157390   -0.084971
      4          6           0       -4.814739   -0.077461   -0.434967
      5          6           0       -5.604319   -1.295980   -0.610870
      6          6           0       -1.451777   -1.466581    0.367250
      7          6           0       -2.672281    1.031612    0.101552
      8          6           0       -1.292517    0.949073    0.460182
      9          6           0       -0.642279   -0.335858    0.536510
     10          6           0       -0.643461    2.183869    0.886662
     11          6           0       -2.615654    3.532210    0.143915
     12          6           0       -3.329169    2.278747   -0.069130
     13          6           0       -4.688492    2.331774   -0.433288
     14          6           0       -5.423946    1.178540   -0.614180
     15          1           0       -6.471010    1.211053   -0.886884
     16          1           0       -5.136144    3.309664   -0.558654
     17          1           0       -1.020215   -2.456078    0.380983
     18          7           0       -1.305085    3.400519    0.617613
     19          7           0       -4.925657   -2.515633   -0.407719
     20          8           0       -3.088425   -3.775705    0.072410
     21          8           0       -6.797389   -1.292279   -0.916238
     22          8           0       -3.112695    4.645714   -0.042538
     23          8           0        0.434877    2.237803    1.481931
     24          6           0       -0.575045    4.617750    0.974443
     25          1           0       -0.471929    4.697429    2.059367
     26          1           0        0.426312    4.582015    0.545419
     27          1           0       -1.137675    5.463282    0.589106
     28          6           0       -5.675142   -3.762262   -0.567950
     29          1           0       -5.236102   -4.363052   -1.366893
     30          1           0       -5.628239   -4.345085    0.353578
     31          1           0       -6.702191   -3.502272   -0.806903
     32          6           0        0.808389   -0.604230    0.583737
     33          6           0        1.374685   -1.862086    0.757028
     34         16           0        2.043083    0.520460    0.064561
     35          6           0        2.751745   -1.916844    0.475179
     36          1           0        0.809119   -2.718539    1.088486
     37          6           0        3.295678   -0.713406    0.046219
     38          8           0        3.558310   -3.016836    0.601346
     39          6           0        4.669173   -0.433148   -0.280679
     40          6           0        2.950585   -4.237458    0.995399
     41          6           0        5.224799    0.761463   -0.722105
     42         16           0        5.943750   -1.646066   -0.165816
     43          1           0        3.749555   -4.978260    1.017769
     44          1           0        2.502611   -4.156377    1.992033
     45          1           0        2.183428   -4.550524    0.278811
     46          6           0        6.627984    0.710878   -0.952222
     47          8           0        4.417692    1.845041   -0.919365
     48          6           0        7.152095   -0.525217   -0.693092
     49          1           0        7.218555    1.548163   -1.296635
     50          6           0        5.033225    3.108739   -1.099546
     51          1           0        8.178579   -0.844236   -0.787246
     52          1           0        5.598951    3.150234   -2.038337
     53          1           0        4.222274    3.834828   -1.138434
     54          1           0        5.698405    3.350405   -0.262454
 ---------------------------------------------------------------------

 The electronic state is 2-A.
 Alpha  occ. eigenvalues --  -88.80044 -88.77777 -19.08421 -19.08131 -18.99672
 Alpha  occ. eigenvalues --  -18.99613 -18.99049 -18.98932 -14.26599 -14.26050
 Alpha  occ. eigenvalues --  -10.18161 -10.17950 -10.17490 -10.17489 -10.16126
 Alpha  occ. eigenvalues --  -10.15869 -10.15652 -10.14826 -10.13261 -10.12610
 Alpha  occ. eigenvalues --  -10.12027 -10.11753 -10.10945 -10.10754 -10.10662
 Alpha  occ. eigenvalues --  -10.10224 -10.10186 -10.09847 -10.09094 -10.08697
 Alpha  occ. eigenvalues --  -10.08606 -10.08604 -10.08488 -10.08432 -10.07934
 Alpha  occ. eigenvalues --  -10.07872  -7.88599  -7.86289  -5.84907  -5.84525
 Alpha  occ. eigenvalues --   -5.84171  -5.82615  -5.82205  -5.81839  -1.00064
 Alpha  occ. eigenvalues --   -0.99506  -0.95744  -0.95332  -0.93687  -0.93199
 Alpha  occ. eigenvalues --   -0.83836  -0.83330  -0.81180  -0.79624  -0.78560
 Alpha  occ. eigenvalues --   -0.74079  -0.71645  -0.69794  -0.68208  -0.66675
 Alpha  occ. eigenvalues --   -0.66196  -0.65492  -0.63829  -0.63438  -0.61882
 Alpha  occ. eigenvalues --   -0.61067  -0.60328  -0.58563  -0.55006  -0.54109
 Alpha  occ. eigenvalues --   -0.53434  -0.52525  -0.51337  -0.49744  -0.47988
 Alpha  occ. eigenvalues --   -0.47523  -0.46178  -0.45759  -0.45209  -0.43136
 Alpha  occ. eigenvalues --   -0.42199  -0.40677  -0.40252  -0.40060  -0.39746
 Alpha  occ. eigenvalues --   -0.39116  -0.38405  -0.38001  -0.37939  -0.37419
 Alpha  occ. eigenvalues --   -0.37002  -0.36683  -0.36571  -0.35419  -0.34368
 Alpha  occ. eigenvalues --   -0.33871  -0.33764  -0.33258  -0.33050  -0.32592
 Alpha  occ. eigenvalues --   -0.32503  -0.32349  -0.31534  -0.30632  -0.30474
 Alpha  occ. eigenvalues --   -0.30351  -0.29977  -0.29869  -0.29730  -0.29394
 Alpha  occ. eigenvalues --   -0.28842  -0.28406  -0.27739  -0.27508  -0.26946
 Alpha  occ. eigenvalues --   -0.25947  -0.25462  -0.25136  -0.24558  -0.23515
 Alpha  occ. eigenvalues --   -0.22666  -0.20245  -0.19362  -0.18706  -0.17941
 Alpha  occ. eigenvalues --   -0.17788  -0.17259  -0.16798  -0.16510  -0.15982
 Alpha  occ. eigenvalues --   -0.15798  -0.14429  -0.13839  -0.10120  -0.05030
 Alpha virt. eigenvalues --    0.02614   0.04824   0.05868   0.06050   0.06849
 Alpha virt. eigenvalues --    0.07415   0.07463   0.08611   0.08879   0.09093
 Alpha virt. eigenvalues --    0.09463   0.09987   0.10316   0.10458   0.10581

  Beta  occ. eigenvalues --  -88.80041 -88.77772 -19.08405 -19.08142 -18.99502
  Beta  occ. eigenvalues --  -18.99426 -18.98868 -18.98722 -14.26645 -14.26101
  Beta  occ. eigenvalues --  -10.18115 -10.17906 -10.17447 -10.17438 -10.16126
  Beta  occ. eigenvalues --  -10.15825 -10.15651 -10.14868 -10.13292 -10.12566
  Beta  occ. eigenvalues --  -10.12087 -10.11660 -10.10962 -10.10662 -10.10620
  Beta  occ. eigenvalues --  -10.10238 -10.10223 -10.09901 -10.08918 -10.08561
  Beta  occ. eigenvalues --  -10.08523 -10.08452 -10.08390 -10.08331 -10.07860
  Beta  occ. eigenvalues --  -10.07790  -7.88596  -7.86284  -5.84905  -5.84524
  Beta  occ. eigenvalues --   -5.84160  -5.82612  -5.82202  -5.81823  -1.00027
  Beta  occ. eigenvalues --   -0.99530  -0.95522  -0.95090  -0.93383  -0.92868
  Beta  occ. eigenvalues --   -0.83731  -0.83215  -0.81140  -0.79504  -0.78472
  Beta  occ. eigenvalues --   -0.73775  -0.71357  -0.69685  -0.68162  -0.66586
  Beta  occ. eigenvalues --   -0.66082  -0.65111  -0.63747  -0.63367  -0.61841
  Beta  occ. eigenvalues --   -0.61018  -0.60088  -0.58287  -0.54857  -0.53942
  Beta  occ. eigenvalues --   -0.53303  -0.52426  -0.51255  -0.49675  -0.47956
  Beta  occ. eigenvalues --   -0.47473  -0.46105  -0.45685  -0.45092  -0.42997
  Beta  occ. eigenvalues --   -0.42108  -0.40631  -0.40206  -0.40075  -0.39675
  Beta  occ. eigenvalues --   -0.38997  -0.38189  -0.37913  -0.37774  -0.37385
  Beta  occ. eigenvalues --   -0.36923  -0.36576  -0.36504  -0.35328  -0.34221
  Beta  occ. eigenvalues --   -0.33823  -0.33652  -0.33167  -0.32918  -0.32433
  Beta  occ. eigenvalues --   -0.32327  -0.32106  -0.31391  -0.30392  -0.30264
  Beta  occ. eigenvalues --   -0.30142  -0.29885  -0.29578  -0.29156  -0.29075
  Beta  occ. eigenvalues --   -0.28430  -0.28280  -0.27521  -0.27404  -0.26698
  Beta  occ. eigenvalues --   -0.25829  -0.25392  -0.25009  -0.24466  -0.23377
  Beta  occ. eigenvalues --   -0.22124  -0.19807  -0.18523  -0.18472  -0.17598
  Beta  occ. eigenvalues --   -0.17417  -0.16968  -0.16513  -0.16308  -0.15762
  Beta  occ. eigenvalues --   -0.15347  -0.14172  -0.12593  -0.09639
  Beta virt. eigenvalues --   -0.00814   0.03091   0.05794   0.05869   0.06427
  Beta virt. eigenvalues --    0.06851   0.07464   0.08154   0.08612   0.08884
  Beta virt. eigenvalues --    0.09101   0.09487   0.10199   0.10338   0.10469

 Mulliken charges and spin densities:
               1          2
     1  C    0.295767   0.018178
     2  C   -0.080332   0.122293
     3  C    0.154521  -0.036970
     4  C    0.219905   0.093596
     5  C    0.163768   0.019494
     6  C    0.180488   0.018216
     7  C    0.072203  -0.032625
     8  C    0.304439   0.130160
     9  C    0.308450   0.089702
    10  C   -0.646156   0.013440
    11  C    0.232058   0.018515
    12  C    0.096171   0.103457
    13  C   -0.464484   0.047812
    14  C   -0.571483   0.068845
    15  H    0.129537  -0.004636
    16  H    0.132424  -0.003635
    17  H    0.135092  -0.000821
    18  N   -0.035024  -0.019885
    19  N   -0.146778  -0.019229
    20  O   -0.359835   0.069803
    21  O   -0.340716   0.063598
    22  O   -0.351787   0.068321
    23  O   -0.282752   0.079072
    24  C   -0.167037   0.001664
    25  H    0.155533  -0.001109
    26  H    0.155563  -0.000746
    27  H    0.168418  -0.000386
    28  C   -0.187281   0.001220
    29  H    0.153197  -0.000881
    30  H    0.152879  -0.000834
    31  H    0.168586  -0.000321
    32  C   -0.009398  -0.029983
    33  C   -0.406802   0.067701
    34  S   -0.733717   0.011075
    35  C   -0.518370  -0.031005
    36  H    0.117845  -0.003076
    37  C    0.622551   0.052056
    38  O   -0.136602  -0.001392
    39  C    0.875582  -0.021225
    40  C   -0.226393   0.000256
    41  C   -0.042083   0.028878
    42  S   -0.279090   0.002043
    43  H    0.149474  -0.000004
    44  H    0.141852  -0.000335
    45  H    0.146521  -0.000259
    46  C   -0.446674  -0.013419
    47  O   -0.111716   0.002925
    48  C   -0.313272   0.031267
    49  H    0.114308   0.000611
    50  C   -0.256511  -0.000315
    51  H    0.140803  -0.001942
    52  H    0.123765   0.000292
    53  H    0.162678   0.000032
    54  H    0.139914   0.000509
 Sum of Mulliken charges =  -1.00000   1.00000

 Dipole moment (field-independent basis, Debye):
    X=             10.9715    Y=             -1.5203    Z=             -0.2778  Tot=             11.0798
 Quadrupole moment (field-independent basis, Debye-Ang):
   XX=           -311.5229   YY=           -256.4322   ZZ=           -232.4625
   XY=             11.5647   XZ=            -11.5805   YZ=             -7.0164

 Normal termination of Gaussian 16 at Wed Oct  6 04:02:50 2021.
