 Gaussian 16, Revision C.01,
 Gaussian 16:  ES64L-G16RevC.01  3-Jul-2019

 -------------------------------------
 # opt=modredundant b3lyp/6-311+g(d,p)
 -------------------------------------

 -----------
 NDI_130.pdb
 -----------
 Symbolic Z-matrix:
 Charge = -1 Multiplicity = 2

 SCF Done:  E(UB3LYP) =  -2359.41613061     A.U. after   23 cycles
 SCF Done:  E(UB3LYP) =  -2359.42122186     A.U. after   22 cycles
 SCF Done:  E(UB3LYP) =  -2359.42599794     A.U. after   20 cycles
 SCF Done:  E(UB3LYP) =  -2359.42675697     A.U. after   19 cycles
 SCF Done:  E(UB3LYP) =  -2359.42748505     A.U. after   20 cycles
 SCF Done:  E(UB3LYP) =  -2359.42766857     A.U. after   14 cycles
 SCF Done:  E(UB3LYP) =  -2359.42770077     A.U. after   17 cycles
 SCF Done:  E(UB3LYP) =  -2359.42772989     A.U. after   14 cycles
 SCF Done:  E(UB3LYP) =  -2359.42774135     A.U. after   13 cycles
 SCF Done:  E(UB3LYP) =  -2359.42775291     A.U. after   15 cycles
 SCF Done:  E(UB3LYP) =  -2359.42782702     A.U. after   12 cycles
 SCF Done:  E(UB3LYP) =  -2359.42782808     A.U. after   11 cycles
 SCF Done:  E(UB3LYP) =  -2359.42782864     A.U. after   12 cycles
 SCF Done:  E(UB3LYP) =  -2359.42782877     A.U. after   11 cycles
 SCF Done:  E(UB3LYP) =  -2359.42782880     A.U. after    9 cycles
 SCF Done:  E(UB3LYP) =  -2359.42782883     A.U. after    8 cycles
 SCF Done:  E(UB3LYP) =  -2359.42782886     A.U. after   10 cycles
 SCF Done:  E(UB3LYP) =  -2359.42782889     A.U. after    8 cycles
 SCF Done:  E(UB3LYP) =  -2359.42782893     A.U. after    8 cycles
 SCF Done:  E(UB3LYP) =  -2359.42782897     A.U. after    9 cycles
 Optimization completed.
    -- Stationary point found.

                         Standard orientation:
 ---------------------------------------------------------------------
 Center     Atomic      Atomic             Coordinates (Angstroms)
 Number     Number       Type             X           Y           Z
 ---------------------------------------------------------------------
      1          6           0        3.466097   -2.705499    0.432471
      2          6           0        2.752056   -1.469461    0.132848
      3          6           0        3.437376   -0.231616    0.131702
      4          6           0        4.818639   -0.162789    0.427191
      5          6           0        5.567425   -1.377108    0.742461
      6          6           0        1.373380   -1.504788   -0.113079
      7          6           0        2.711052    0.963967   -0.187691
      8          6           0        1.321493    0.896535   -0.491481
      9          6           0        0.640626   -0.356864   -0.402720
     10          6           0        0.662747    2.098170   -1.002890
     11          6           0        2.733955    3.436346   -0.551103
     12          6           0        3.416092    2.194265   -0.204134
     13          6           0        4.789923    2.233475    0.104264
     14          6           0        5.480860    1.079654    0.414717
     15          1           0        6.537904    1.100207    0.647819
     16          1           0        5.284128    3.196654    0.084537
     17          1           0        0.868096   -2.458164   -0.027510
     18          7           0        1.388857    3.306142   -0.928244
     19          7           0        4.836566   -2.582580    0.721897
     20          8           0        2.943567   -3.822122    0.444491
     21          8           0        6.770109   -1.382467    1.012193
     22          8           0        3.281435    4.541605   -0.543134
     23          8           0       -0.462666    2.124120   -1.499693
     24          6           0        0.678823    4.505027   -1.375932
     25          1           0        0.494994    4.460301   -2.452245
     26          1           0       -0.287251    4.565716   -0.874613
     27          1           0        1.299560    5.364145   -1.138414
     28          6           0        5.543049   -3.827584    1.025142
     29          1           0        5.088522   -4.313170    1.890721
     30          1           0        5.468944   -4.514108    0.179647
     31          1           0        6.580739   -3.578210    1.226641
     32          6           0       -0.820964   -0.528594   -0.518247
     33          6           0       -1.477804   -1.424582   -1.325751
     34         16           0       -1.931600    0.257226    0.569294
     35          6           0       -2.877828   -1.454163   -1.099315
     36          1           0       -0.961903   -2.016239   -2.067801
     37          6           0       -3.315952   -0.601602   -0.098961
     38          8           0       -3.785290   -2.226238   -1.773058
     39          6           0       -4.667930   -0.385868    0.352634
     40          6           0       -3.296576   -3.060617   -2.812264
     41          6           0       -5.114288    0.455120    1.361656
     42         16           0       -6.053553   -1.205512   -0.362681
     43          1           0       -4.166710   -3.575123   -3.219388
     44          1           0       -2.818522   -2.472045   -3.602891
     45          1           0       -2.584444   -3.799470   -2.428717
     46          6           0       -6.525300    0.454985    1.550213
     47          8           0       -4.208043    1.169813    2.094946
     48          6           0       -7.162826   -0.392434    0.688122
     49          1           0       -7.040123    1.051496    2.290322
     50          6           0       -4.685127    2.284841    2.829681
     51          1           0       -8.220771   -0.590273    0.611290
     52          1           0       -5.327053    1.972954    3.662469
     53          1           0       -3.802391    2.783342    3.228582
     54          1           0       -5.236106    2.979053    2.185019
 ---------------------------------------------------------------------

 The electronic state is 2-A.
 Alpha  occ. eigenvalues --  -88.80138 -88.78004 -19.08496 -19.08313 -18.99369
 Alpha  occ. eigenvalues --  -18.99280 -18.99077 -18.98930 -14.26340 -14.26027
 Alpha  occ. eigenvalues --  -10.17867 -10.17635 -10.17542 -10.17512 -10.16250
 Alpha  occ. eigenvalues --  -10.15868 -10.15824 -10.15107 -10.13397 -10.12659
 Alpha  occ. eigenvalues --  -10.11944 -10.11906 -10.11020 -10.10434 -10.10241
 Alpha  occ. eigenvalues --  -10.10161 -10.10117 -10.09915 -10.09129 -10.08669
 Alpha  occ. eigenvalues --  -10.08541 -10.08515 -10.08471 -10.08272 -10.07910
 Alpha  occ. eigenvalues --  -10.07848  -7.88693  -7.86563  -5.85002  -5.84620
 Alpha  occ. eigenvalues --   -5.84262  -5.82892  -5.82498  -5.82100  -1.00080
 Alpha  occ. eigenvalues --   -0.99698  -0.95432  -0.95269  -0.93362  -0.93178
 Alpha  occ. eigenvalues --   -0.83563  -0.83271  -0.81292  -0.79714  -0.78624
 Alpha  occ. eigenvalues --   -0.74055  -0.71591  -0.69840  -0.68282  -0.66746
 Alpha  occ. eigenvalues --   -0.66166  -0.65442  -0.63876  -0.63394  -0.61964
 Alpha  occ. eigenvalues --   -0.60972  -0.60283  -0.58608  -0.54858  -0.53959
 Alpha  occ. eigenvalues --   -0.53380  -0.52326  -0.51546  -0.49832  -0.48038
 Alpha  occ. eigenvalues --   -0.47604  -0.45977  -0.45807  -0.45136  -0.42981
 Alpha  occ. eigenvalues --   -0.41908  -0.40795  -0.40522  -0.40214  -0.40004
 Alpha  occ. eigenvalues --   -0.39238  -0.38186  -0.38033  -0.37821  -0.37503
 Alpha  occ. eigenvalues --   -0.36933  -0.36582  -0.36456  -0.35192  -0.34356
 Alpha  occ. eigenvalues --   -0.34118  -0.33679  -0.33474  -0.32889  -0.32572
 Alpha  occ. eigenvalues --   -0.32416  -0.32203  -0.31612  -0.30457  -0.30343
 Alpha  occ. eigenvalues --   -0.30178  -0.29945  -0.29847  -0.29551  -0.29181
 Alpha  occ. eigenvalues --   -0.28946  -0.28733  -0.27819  -0.27346  -0.26953
 Alpha  occ. eigenvalues --   -0.25985  -0.25549  -0.24841  -0.24305  -0.24253
 Alpha  occ. eigenvalues --   -0.22654  -0.20016  -0.19442  -0.18458  -0.17835
 Alpha  occ. eigenvalues --   -0.17615  -0.17080  -0.16812  -0.16196  -0.16084
 Alpha  occ. eigenvalues --   -0.15654  -0.14763  -0.13836  -0.10301  -0.05078
 Alpha virt. eigenvalues --    0.03311   0.04686   0.05823   0.06540   0.06787
 Alpha virt. eigenvalues --    0.07353   0.07458   0.08574   0.08790   0.09028
 Alpha virt. eigenvalues --    0.09155   0.09402   0.09987   0.10408   0.10593

  Beta  occ. eigenvalues --  -88.80137 -88.77996 -19.08491 -19.08316 -18.99180
  Beta  occ. eigenvalues --  -18.99076 -18.98889 -18.98714 -14.26391 -14.26078
  Beta  occ. eigenvalues --  -10.17818 -10.17589 -10.17497 -10.17469 -10.16250
  Beta  occ. eigenvalues --  -10.15857 -10.15824 -10.15117 -10.13404 -10.12648
  Beta  occ. eigenvalues --  -10.11928 -10.11921 -10.11024 -10.10433 -10.10175
  Beta  occ. eigenvalues --  -10.10160 -10.10135 -10.09970 -10.08937 -10.08643
  Beta  occ. eigenvalues --  -10.08387 -10.08338 -10.08304 -10.08216 -10.07825
  Beta  occ. eigenvalues --  -10.07765  -7.88693  -7.86557  -5.85001  -5.84619
  Beta  occ. eigenvalues --   -5.84260  -5.82882  -5.82491  -5.82087  -1.00070
  Beta  occ. eigenvalues --   -0.99704  -0.95190  -0.95020  -0.93028  -0.92837
  Beta  occ. eigenvalues --   -0.83445  -0.83154  -0.81277  -0.79609  -0.78529
  Beta  occ. eigenvalues --   -0.73738  -0.71281  -0.69755  -0.68254  -0.66677
  Beta  occ. eigenvalues --   -0.66026  -0.65017  -0.63817  -0.63338  -0.61942
  Beta  occ. eigenvalues --   -0.60919  -0.60056  -0.58303  -0.54712  -0.53772
  Beta  occ. eigenvalues --   -0.53266  -0.52200  -0.51486  -0.49773  -0.48021
  Beta  occ. eigenvalues --   -0.47545  -0.45966  -0.45678  -0.45011  -0.42824
  Beta  occ. eigenvalues --   -0.41810  -0.40777  -0.40481  -0.40218  -0.39978
  Beta  occ. eigenvalues --   -0.39084  -0.37992  -0.37942  -0.37633  -0.37478
  Beta  occ. eigenvalues --   -0.36847  -0.36458  -0.36402  -0.35109  -0.34211
  Beta  occ. eigenvalues --   -0.34038  -0.33572  -0.33412  -0.32844  -0.32408
  Beta  occ. eigenvalues --   -0.32175  -0.31945  -0.31485  -0.30232  -0.30119
  Beta  occ. eigenvalues --   -0.30043  -0.29752  -0.29626  -0.29025  -0.28941
  Beta  occ. eigenvalues --   -0.28654  -0.28133  -0.27773  -0.27096  -0.26700
  Beta  occ. eigenvalues --   -0.25931  -0.25527  -0.24733  -0.24233  -0.24166
  Beta  occ. eigenvalues --   -0.21876  -0.19813  -0.18474  -0.18265  -0.17494
  Beta  occ. eigenvalues --   -0.17128  -0.16747  -0.16660  -0.15972  -0.15581
  Beta  occ. eigenvalues --   -0.15420  -0.14656  -0.12327  -0.10126
  Beta virt. eigenvalues --   -0.00575   0.03484   0.05780   0.05826   0.06757
  Beta virt. eigenvalues --    0.06983   0.07381   0.08254   0.08591   0.08882
  Beta virt. eigenvalues --    0.09062   0.09209   0.09408   0.09998   0.10413

 Mulliken charges and spin densities:
               1          2
     1  C    0.323842   0.017638
     2  C   -0.112089   0.130587
     3  C    0.126209  -0.039571
     4  C    0.201662   0.105861
     5  C    0.185958   0.018460
     6  C   -0.367807   0.044280
     7  C    0.196726  -0.036574
     8  C    0.021986   0.144773
     9  C    0.290642   0.067804
    10  C   -0.419324   0.015965
    11  C    0.240012   0.018527
    12  C    0.107323   0.113783
    13  C   -0.460958   0.058297
    14  C   -0.595209   0.068019
    15  H    0.129860  -0.004811
    16  H    0.131240  -0.004153
    17  H    0.140138  -0.002642
    18  N   -0.081515  -0.020288
    19  N   -0.142366  -0.020670
    20  O   -0.357901   0.076228
    21  O   -0.348968   0.070365
    22  O   -0.352366   0.070647
    23  O   -0.265484   0.081430
    24  C   -0.172141   0.001419
    25  H    0.154495  -0.001116
    26  H    0.159647  -0.000709
    27  H    0.169271  -0.000385
    28  C   -0.189361   0.001293
    29  H    0.153736  -0.000945
    30  H    0.151919  -0.000927
    31  H    0.169224  -0.000354
    32  C    0.322369  -0.014874
    33  C   -0.582777   0.019792
    34  S   -0.517108   0.013540
    35  C   -0.054671  -0.004185
    36  H    0.117134  -0.000796
    37  C    0.495451   0.007786
    38  O   -0.135691  -0.000458
    39  C    0.810246  -0.006269
    40  C   -0.223611  -0.000169
    41  C   -0.072069   0.008589
    42  S   -0.283519   0.000644
    43  H    0.148688  -0.000001
    44  H    0.146578  -0.000086
    45  H    0.144979  -0.000058
    46  C   -0.453546  -0.003364
    47  O   -0.129773   0.000235
    48  C   -0.334683   0.007564
    49  H    0.113171   0.000148
    50  C   -0.264006  -0.000027
    51  H    0.141035  -0.000459
    52  H    0.123002   0.000084
    53  H    0.158937   0.000019
    54  H    0.141463   0.000114
 Sum of Mulliken charges =  -1.00000   1.00000

 Dipole moment (field-independent basis, Debye):
    X=            -11.3342    Y=             -0.9184    Z=             -0.0374  Tot=             11.3714
 Quadrupole moment (field-independent basis, Debye-Ang):
   XX=           -314.7734   YY=           -264.8890   ZZ=           -222.1987
   XY=             -8.3114   XZ=            -12.1581   YZ=             18.8526

 Normal termination of Gaussian 16 at Tue Oct  5 21:57:49 2021.
