 Gaussian 16, Revision C.01,
 Gaussian 16:  ES64L-G16RevC.01  3-Jul-2019

 -------------------------------------
 # opt=modredundant b3lyp/6-311+g(d,p)
 -------------------------------------

 ---------
 NDI_0.pdb
 ---------
 Symbolic Z-matrix:
 Charge = -1 Multiplicity = 2

 SCF Done:  E(UB3LYP) =  -2359.40539711     A.U. after   22 cycles
 SCF Done:  E(UB3LYP) =  -2359.40194825     A.U. after   23 cycles
 SCF Done:  E(UB3LYP) =  -2359.41984764     A.U. after   19 cycles
 SCF Done:  E(UB3LYP) =  -2359.42252887     A.U. after   22 cycles
 SCF Done:  E(UB3LYP) =  -2359.42313965     A.U. after   20 cycles
 SCF Done:  E(UB3LYP) =  -2359.42416979     A.U. after   21 cycles
 SCF Done:  E(UB3LYP) =  -2359.42459051     A.U. after   18 cycles
 SCF Done:  E(UB3LYP) =  -2359.42457880     A.U. after   19 cycles
 SCF Done:  E(UB3LYP) =  -2359.42468164     A.U. after   16 cycles
 SCF Done:  E(UB3LYP) =  -2359.42469309     A.U. after   14 cycles
 SCF Done:  E(UB3LYP) =  -2359.42470007     A.U. after   14 cycles
 SCF Done:  E(UB3LYP) =  -2359.42470407     A.U. after   12 cycles
 SCF Done:  E(UB3LYP) =  -2359.42470884     A.U. after   12 cycles
 SCF Done:  E(UB3LYP) =  -2359.42471373     A.U. after   12 cycles
 SCF Done:  E(UB3LYP) =  -2359.42471560     A.U. after   11 cycles
 SCF Done:  E(UB3LYP) =  -2359.42471629     A.U. after   11 cycles
 SCF Done:  E(UB3LYP) =  -2359.42471646     A.U. after   11 cycles
 SCF Done:  E(UB3LYP) =  -2359.42471651     A.U. after    9 cycles
 SCF Done:  E(UB3LYP) =  -2359.42471654     A.U. after    9 cycles
 Optimization completed.
    -- Stationary point found.

                         Standard orientation:
 ---------------------------------------------------------------------
 Center     Atomic      Atomic             Coordinates (Angstroms)
 Number     Number       Type             X           Y           Z
 ---------------------------------------------------------------------
      1          6           0       -2.470455   -3.024258    0.186675
      2          6           0       -2.218093   -1.585189    0.171079
      3          6           0       -3.277936   -0.671766   -0.035554
      4          6           0       -4.594382   -1.130305   -0.254017
      5          6           0       -4.888327   -2.564280   -0.260691
      6          6           0       -0.914850   -1.117002    0.292283
      7          6           0       -2.984122    0.731775   -0.002362
      8          6           0       -1.649882    1.198088    0.230512
      9          6           0       -0.561035    0.239158    0.282672
     10          6           0       -1.503118    2.618705    0.535840
     11          6           0       -3.871954    3.066073   -0.142864
     12          6           0       -4.071661    1.624787   -0.196459
     13          6           0       -5.372940    1.142119   -0.434989
     14          6           0       -5.638102   -0.210596   -0.462047
     15          1           0       -6.636903   -0.590782   -0.633600
     16          1           0       -6.157111    1.873043   -0.586859
     17          1           0       -0.151648   -1.882065    0.356268
     18          7           0       -2.588318    3.471648    0.235881
     19          7           0       -3.798986   -3.427333   -0.030624
     20          8           0       -1.602469   -3.877953    0.371412
     21          8           0       -6.015851   -3.021849   -0.449007
     22          8           0       -4.757182    3.893693   -0.374812
     23          8           0       -0.513634    3.143034    1.058767
     24          6           0       -2.359755    4.899769    0.460961
     25          1           0       -2.202308    5.097580    1.523485
     26          1           0       -1.465450    5.220159   -0.074725
     27          1           0       -3.237030    5.431176    0.103458
     28          6           0       -4.044419   -4.869949   -0.018391
     29          1           0       -3.445571   -5.356684   -0.790379
     30          1           0       -3.752360   -5.289408    0.946092
     31          1           0       -5.103670   -5.026906   -0.199637
     32          6           0        0.876782    0.521516    0.150800
     33          6           0        1.573345    1.697425   -0.047808
     34         16           0        2.022290   -0.827489    0.202977
     35          6           0        2.968976    1.526055   -0.164382
     36          1           0        1.085903    2.654549   -0.061275
     37          6           0        3.411948    0.217370   -0.048612
     38          8           0        3.878699    2.527273   -0.364090
     39          6           0        4.762526   -0.272763   -0.110069
     40          6           0        3.387523    3.861329   -0.415748
     41          6           0        5.212648   -1.582664    0.006894
     42         16           0        6.148101    0.787551   -0.359519
     43          1           0        4.263726    4.497342   -0.539992
     44          1           0        2.711015    4.001315   -1.265460
     45          1           0        2.864543    4.128171    0.507732
     46          6           0        6.623200   -1.732888   -0.100822
     47          8           0        4.308812   -2.585395    0.210199
     48          6           0        7.258282   -0.537966   -0.300447
     49          1           0        7.142020   -2.678663   -0.033895
     50          6           0        4.791808   -3.914949    0.289881
     51          1           0        8.316204   -0.360280   -0.416516
     52          1           0        5.476419   -4.042003    1.137095
     53          1           0        3.914919   -4.543646    0.438022
     54          1           0        5.299126   -4.212091   -0.635716
 ---------------------------------------------------------------------

 The electronic state is 2-A.
 Alpha  occ. eigenvalues --  -88.80186 -88.77925 -19.08662 -19.07978 -18.99733
 Alpha  occ. eigenvalues --  -18.99594 -18.99120 -18.99107 -14.26607 -14.26201
 Alpha  occ. eigenvalues --  -10.18226 -10.17952 -10.17822 -10.17529 -10.16282
 Alpha  occ. eigenvalues --  -10.16075 -10.15202 -10.14836 -10.13415 -10.12731
 Alpha  occ. eigenvalues --  -10.12080 -10.11997 -10.11090 -10.10894 -10.10660
 Alpha  occ. eigenvalues --  -10.10431 -10.10342 -10.09909 -10.09408 -10.08778
 Alpha  occ. eigenvalues --  -10.08643 -10.08540 -10.08449 -10.07967 -10.07899
 Alpha  occ. eigenvalues --  -10.07765  -7.88738  -7.86502  -5.85046  -5.84664
 Alpha  occ. eigenvalues --   -5.84310  -5.82829  -5.82435  -5.82044  -1.00294
 Alpha  occ. eigenvalues --   -0.99341  -0.95801  -0.95478  -0.93744  -0.93298
 Alpha  occ. eigenvalues --   -0.83876  -0.83428  -0.81321  -0.79635  -0.78567
 Alpha  occ. eigenvalues --   -0.74105  -0.71698  -0.69822  -0.68369  -0.66931
 Alpha  occ. eigenvalues --   -0.65709  -0.65670  -0.63894  -0.63580  -0.61855
 Alpha  occ. eigenvalues --   -0.61156  -0.60446  -0.58422  -0.55201  -0.54080
 Alpha  occ. eigenvalues --   -0.53606  -0.52455  -0.51487  -0.49903  -0.48148
 Alpha  occ. eigenvalues --   -0.47392  -0.46056  -0.45724  -0.45280  -0.43223
 Alpha  occ. eigenvalues --   -0.42019  -0.40841  -0.40722  -0.39713  -0.39622
 Alpha  occ. eigenvalues --   -0.39393  -0.38413  -0.38039  -0.37943  -0.37492
 Alpha  occ. eigenvalues --   -0.37074  -0.36749  -0.36526  -0.35157  -0.34359
 Alpha  occ. eigenvalues --   -0.34220  -0.33747  -0.33290  -0.33167  -0.32768
 Alpha  occ. eigenvalues --   -0.32503  -0.32222  -0.31274  -0.30712  -0.30568
 Alpha  occ. eigenvalues --   -0.30418  -0.30291  -0.29878  -0.29683  -0.29461
 Alpha  occ. eigenvalues --   -0.28886  -0.28352  -0.27760  -0.27389  -0.27030
 Alpha  occ. eigenvalues --   -0.26125  -0.25484  -0.25399  -0.25085  -0.23151
 Alpha  occ. eigenvalues --   -0.22766  -0.20408  -0.19443  -0.18734  -0.17968
 Alpha  occ. eigenvalues --   -0.17858  -0.17320  -0.16968  -0.16503  -0.15973
 Alpha  occ. eigenvalues --   -0.15785  -0.14966  -0.13854  -0.10228  -0.05094
 Alpha virt. eigenvalues --    0.02386   0.04609   0.05802   0.06240   0.06913
 Alpha virt. eigenvalues --    0.07326   0.07588   0.08577   0.08929   0.09112
 Alpha virt. eigenvalues --    0.09625   0.10171   0.10314   0.10383   0.10691

  Beta  occ. eigenvalues --  -88.80183 -88.77908 -19.08645 -19.07989 -18.99568
  Beta  occ. eigenvalues --  -18.99405 -18.98929 -18.98907 -14.26652 -14.26252
  Beta  occ. eigenvalues --  -10.18183 -10.17912 -10.17765 -10.17486 -10.16282
  Beta  occ. eigenvalues --  -10.16034 -10.15201 -10.14874 -10.13445 -10.12690
  Beta  occ. eigenvalues --  -10.12058 -10.11994 -10.11105 -10.10740 -10.10659
  Beta  occ. eigenvalues --  -10.10430 -10.10390 -10.09966 -10.09237 -10.08640
  Beta  occ. eigenvalues --  -10.08483 -10.08419 -10.08393 -10.07894 -10.07820
  Beta  occ. eigenvalues --  -10.07694  -7.88735  -7.86486  -5.85045  -5.84662
  Beta  occ. eigenvalues --   -5.84300  -5.82820  -5.82425  -5.81990  -1.00259
  Beta  occ. eigenvalues --   -0.99363  -0.95582  -0.95233  -0.93443  -0.92967
  Beta  occ. eigenvalues --   -0.83771  -0.83311  -0.81282  -0.79510  -0.78478
  Beta  occ. eigenvalues --   -0.73797  -0.71412  -0.69723  -0.68312  -0.66830
  Beta  occ. eigenvalues --   -0.65608  -0.65297  -0.63804  -0.63514  -0.61801
  Beta  occ. eigenvalues --   -0.61106  -0.60188  -0.58178  -0.55052  -0.53896
  Beta  occ. eigenvalues --   -0.53509  -0.52293  -0.51435  -0.49856  -0.48120
  Beta  occ. eigenvalues --   -0.47329  -0.45965  -0.45661  -0.45167  -0.43074
  Beta  occ. eigenvalues --   -0.41928  -0.40796  -0.40674  -0.39729  -0.39579
  Beta  occ. eigenvalues --   -0.39237  -0.38205  -0.37926  -0.37830  -0.37457
  Beta  occ. eigenvalues --   -0.36954  -0.36689  -0.36441  -0.35052  -0.34253
  Beta  occ. eigenvalues --   -0.34113  -0.33677  -0.33172  -0.33067  -0.32592
  Beta  occ. eigenvalues --   -0.32235  -0.32069  -0.31100  -0.30463  -0.30336
  Beta  occ. eigenvalues --   -0.30215  -0.30192  -0.29577  -0.29294  -0.29114
  Beta  occ. eigenvalues --   -0.28456  -0.28148  -0.27663  -0.27168  -0.26802
  Beta  occ. eigenvalues --   -0.26011  -0.25416  -0.25193  -0.25028  -0.22997
  Beta  occ. eigenvalues --   -0.22253  -0.19964  -0.18593  -0.18527  -0.17700
  Beta  occ. eigenvalues --   -0.17420  -0.17035  -0.16652  -0.16307  -0.15714
  Beta  occ. eigenvalues --   -0.15391  -0.14689  -0.12638  -0.09689
  Beta virt. eigenvalues --   -0.00883   0.02812   0.05579   0.05802   0.06654
  Beta virt. eigenvalues --    0.06916   0.07590   0.08075   0.08579   0.08930
  Beta virt. eigenvalues --    0.09119   0.09628   0.10273   0.10345   0.10491

 Mulliken charges and spin densities:
               1          2
     1  C    0.259118   0.013179
     2  C    0.000743   0.129289
     3  C    0.139262  -0.039560
     4  C    0.214802   0.093560
     5  C    0.199813   0.017763
     6  C    0.024520   0.009940
     7  C    0.144233  -0.024360
     8  C    0.398966   0.127972
     9  C    0.143923   0.093185
    10  C   -0.772021   0.011159
    11  C    0.211910   0.021441
    12  C    0.166042   0.092891
    13  C   -0.489014   0.054246
    14  C   -0.598133   0.064306
    15  H    0.130079  -0.004277
    16  H    0.133553  -0.003823
    17  H    0.149501  -0.000256
    18  N   -0.053357  -0.020269
    19  N   -0.139515  -0.018213
    20  O   -0.355541   0.070180
    21  O   -0.341840   0.061677
    22  O   -0.352103   0.067031
    23  O   -0.334742   0.078594
    24  C   -0.149468   0.001889
    25  H    0.156988  -0.001108
    26  H    0.147271  -0.000806
    27  H    0.170103  -0.000380
    28  C   -0.187696   0.000999
    29  H    0.154767  -0.000840
    30  H    0.153484  -0.000820
    31  H    0.168469  -0.000307
    32  C   -0.080310  -0.048213
    33  C    0.089450   0.077499
    34  S   -0.706723   0.020117
    35  C   -0.672949  -0.020414
    36  H    0.168569  -0.002871
    37  C    0.528132   0.051300
    38  O   -0.136017  -0.001496
    39  C    0.966373  -0.018912
    40  C   -0.242887   0.000264
    41  C   -0.001232   0.027323
    42  S   -0.257722   0.002223
    43  H    0.146986   0.000004
    44  H    0.140657  -0.000320
    45  H    0.161093  -0.000304
    46  C   -0.581807  -0.011713
    47  O   -0.119475   0.002767
    48  C   -0.339765   0.029175
    49  H    0.116434   0.000566
    50  C   -0.244310  -0.000287
    51  H    0.141592  -0.001819
    52  H    0.129025   0.000390
    53  H    0.169114  -0.000024
    54  H    0.131656   0.000464
 Sum of Mulliken charges =  -1.00000   1.00000

 Dipole moment (field-independent basis, Debye):
    X=             11.2326    Y=             -0.4495    Z=             -0.4880  Tot=             11.2522
 Quadrupole moment (field-independent basis, Debye-Ang):
   XX=           -313.7163   YY=           -254.3661   ZZ=           -232.3096
   XY=             -5.5235   XZ=             -6.4047   YZ=             -2.7613

 Normal termination of Gaussian 16 at Tue Oct  5 15:41:41 2021.
