 Gaussian 16, Revision C.01,
 Gaussian 16:  ES64L-G16RevC.01  3-Jul-2019

 -------------------------------------
 # opt=modredundant b3lyp/6-311+g(d,p)
 -------------------------------------

 -----------
 NDI_145.pdb
 -----------
 Symbolic Z-matrix:
 Charge = -1 Multiplicity = 2

 SCF Done:  E(UB3LYP) =  -2359.40567018     A.U. after   23 cycles
 SCF Done:  E(UB3LYP) =  -2359.41236901     A.U. after   25 cycles
 SCF Done:  E(UB3LYP) =  -2359.41858438     A.U. after   22 cycles
 SCF Done:  E(UB3LYP) =  -2359.42289056     A.U. after   23 cycles
 SCF Done:  E(UB3LYP) =  -2359.42552412     A.U. after   22 cycles
 SCF Done:  E(UB3LYP) =  -2359.42607625     A.U. after   21 cycles
 SCF Done:  E(UB3LYP) =  -2359.42644800     A.U. after   18 cycles
 SCF Done:  E(UB3LYP) =  -2359.42656951     A.U. after   22 cycles
 SCF Done:  E(UB3LYP) =  -2359.42684274     A.U. after   20 cycles
 SCF Done:  E(UB3LYP) =  -2359.42695784     A.U. after   17 cycles
 SCF Done:  E(UB3LYP) =  -2359.42716133     A.U. after   10 cycles
 SCF Done:  E(UB3LYP) =  -2359.42716160     A.U. after   12 cycles
 SCF Done:  E(UB3LYP) =  -2359.42716169     A.U. after   10 cycles
 SCF Done:  E(UB3LYP) =  -2359.42716175     A.U. after    9 cycles
 SCF Done:  E(UB3LYP) =  -2359.42716181     A.U. after    9 cycles
 SCF Done:  E(UB3LYP) =  -2359.42716186     A.U. after    9 cycles
 SCF Done:  E(UB3LYP) =  -2359.42716191     A.U. after    9 cycles
 SCF Done:  E(UB3LYP) =  -2359.42716197     A.U. after    9 cycles
 SCF Done:  E(UB3LYP) =  -2359.42716199     A.U. after    9 cycles
 SCF Done:  E(UB3LYP) =  -2359.42716199     A.U. after    9 cycles
 Optimization completed.
    -- Stationary point found.

                         Standard orientation:
 ---------------------------------------------------------------------
 Center     Atomic      Atomic             Coordinates (Angstroms)
 Number     Number       Type             X           Y           Z
 ---------------------------------------------------------------------
      1          6           0        3.480343   -2.694654    0.370930
      2          6           0        2.759697   -1.459428    0.082371
      3          6           0        3.430569   -0.214205    0.125832
      4          6           0        4.802913   -0.137141    0.454598
      5          6           0        5.558672   -1.350994    0.757553
      6          6           0        1.387184   -1.503672   -0.183364
      7          6           0        2.695134    0.978488   -0.181805
      8          6           0        1.313121    0.902171   -0.519237
      9          6           0        0.639430   -0.360220   -0.464292
     10          6           0        0.669563    2.101980   -1.053228
     11          6           0        2.700828    3.458450   -0.493446
     12          6           0        3.387102    2.216297   -0.154261
     13          6           0        4.752234    2.264528    0.188363
     14          6           0        5.450633    1.112360    0.488197
     15          1           0        6.501587    1.139893    0.746550
     16          1           0        5.234373    3.233918    0.202353
     17          1           0        0.894760   -2.464133   -0.107640
     18          7           0        1.373410    3.319063   -0.922705
     19          7           0        4.842859   -2.563931    0.691631
     20          8           0        2.969620   -3.816537    0.347747
     21          8           0        6.754703   -1.349392    1.054075
     22          8           0        3.232873    4.569955   -0.440333
     23          8           0       -0.424509    2.120636   -1.616054
     24          6           0        0.668746    4.516219   -1.383157
     25          1           0        0.553786    4.498616   -2.469899
     26          1           0       -0.327669    4.544328   -0.942400
     27          1           0        1.255915    5.380084   -1.084994
     28          6           0        5.557098   -3.807864    0.980983
     29          1           0        5.094555   -4.315374    1.829635
     30          1           0        5.502706   -4.477600    0.120746
     31          1           0        6.588935   -3.552512    1.203869
     32          6           0       -0.818205   -0.553455   -0.552674
     33          6           0       -1.456908   -1.615493   -1.155438
     34         16           0       -1.949216    0.391920    0.377473
     35          6           0       -2.848489   -1.650273   -0.899664
     36          1           0       -0.931187   -2.326690   -1.775545
     37          6           0       -3.305553   -0.634711   -0.073361
     38          8           0       -3.736077   -2.566669   -1.396071
     39          6           0       -4.659011   -0.379257    0.349927
     40          6           0       -3.223508   -3.592670   -2.232446
     41          6           0       -5.124234    0.625967    1.186166
     42         16           0       -6.022556   -1.367651   -0.168269
     43          1           0       -4.078174   -4.208410   -2.511707
     44          1           0       -2.764007   -3.176906   -3.135895
     45          1           0       -2.488895   -4.208948   -1.702741
     46          6           0       -6.531775    0.614739    1.397282
     47          8           0       -4.236038    1.499080    1.749342
     48          6           0       -7.148052   -0.404691    0.727040
     49          1           0       -7.059445    1.325348    2.017914
     50          6           0       -4.746386    2.708165    2.286045
     51          1           0       -8.198794   -0.649534    0.710416
     52          1           0       -5.357772    2.525682    3.178127
     53          1           0       -3.878246    3.304063    2.565254
     54          1           0       -5.339430    3.253545    1.543069
 ---------------------------------------------------------------------

 The electronic state is 2-A.
 Alpha  occ. eigenvalues --  -88.80137 -88.77962 -19.08498 -19.08295 -18.99456
 Alpha  occ. eigenvalues --  -18.99370 -18.99072 -18.98888 -14.26411 -14.26004
 Alpha  occ. eigenvalues --  -10.17953 -10.17721 -10.17530 -10.17491 -10.16230
 Alpha  occ. eigenvalues --  -10.15889 -10.15800 -10.15075 -10.13387 -10.12665
 Alpha  occ. eigenvalues --  -10.11972 -10.11917 -10.11019 -10.10497 -10.10331
 Alpha  occ. eigenvalues --  -10.10169 -10.10127 -10.09901 -10.09075 -10.08679
 Alpha  occ. eigenvalues --  -10.08589 -10.08542 -10.08475 -10.08332 -10.07921
 Alpha  occ. eigenvalues --  -10.07860  -7.88692  -7.86518  -5.85000  -5.84618
 Alpha  occ. eigenvalues --   -5.84261  -5.82845  -5.82450  -5.82056  -1.00095
 Alpha  occ. eigenvalues --   -0.99680  -0.95518  -0.95263  -0.93453  -0.93168
 Alpha  occ. eigenvalues --   -0.83637  -0.83266  -0.81293  -0.79716  -0.78625
 Alpha  occ. eigenvalues --   -0.74072  -0.71604  -0.69856  -0.68284  -0.66743
 Alpha  occ. eigenvalues --   -0.66202  -0.65452  -0.63875  -0.63411  -0.61965
 Alpha  occ. eigenvalues --   -0.60994  -0.60295  -0.58603  -0.54893  -0.53993
 Alpha  occ. eigenvalues --   -0.53391  -0.52394  -0.51496  -0.49818  -0.48040
 Alpha  occ. eigenvalues --   -0.47604  -0.46012  -0.45813  -0.45153  -0.43028
 Alpha  occ. eigenvalues --   -0.42023  -0.40772  -0.40425  -0.40195  -0.39954
 Alpha  occ. eigenvalues --   -0.39228  -0.38241  -0.38031  -0.37846  -0.37493
 Alpha  occ. eigenvalues --   -0.36951  -0.36602  -0.36471  -0.35271  -0.34327
 Alpha  occ. eigenvalues --   -0.34067  -0.33687  -0.33464  -0.32910  -0.32586
 Alpha  occ. eigenvalues --   -0.32460  -0.32224  -0.31588  -0.30500  -0.30404
 Alpha  occ. eigenvalues --   -0.30231  -0.29949  -0.29817  -0.29632  -0.29232
 Alpha  occ. eigenvalues --   -0.28923  -0.28664  -0.27788  -0.27461  -0.26934
 Alpha  occ. eigenvalues --   -0.25994  -0.25518  -0.25040  -0.24384  -0.24125
 Alpha  occ. eigenvalues --   -0.22662  -0.20110  -0.19407  -0.18527  -0.17873
 Alpha  occ. eigenvalues --   -0.17656  -0.17121  -0.16848  -0.16276  -0.15999
 Alpha  occ. eigenvalues --   -0.15759  -0.14630  -0.13836  -0.10254  -0.05069
 Alpha virt. eigenvalues --    0.03077   0.04728   0.05831   0.06379   0.06788
 Alpha virt. eigenvalues --    0.07372   0.07447   0.08596   0.08897   0.09055
 Alpha virt. eigenvalues --    0.09300   0.09429   0.10072   0.10399   0.10636

  Beta  occ. eigenvalues --  -88.80135 -88.77955 -19.08490 -19.08301 -18.99274
  Beta  occ. eigenvalues --  -18.99170 -18.98887 -18.98678 -14.26461 -14.26055
  Beta  occ. eigenvalues --  -10.17905 -10.17674 -10.17487 -10.17446 -10.16230
  Beta  occ. eigenvalues --  -10.15868 -10.15800 -10.15096 -10.13401 -10.12645
  Beta  occ. eigenvalues --  -10.11950 -10.11929 -10.11027 -10.10496 -10.10221
  Beta  occ. eigenvalues --  -10.10184 -10.10168 -10.09956 -10.08884 -10.08635
  Beta  occ. eigenvalues --  -10.08441 -10.08370 -10.08311 -10.08282 -10.07838
  Beta  occ. eigenvalues --  -10.07777  -7.88691  -7.86511  -5.85000  -5.84617
  Beta  occ. eigenvalues --   -5.84256  -5.82837  -5.82444  -5.82041  -1.00077
  Beta  occ. eigenvalues --   -0.99693  -0.95282  -0.95019  -0.93127  -0.92834
  Beta  occ. eigenvalues --   -0.83523  -0.83150  -0.81270  -0.79610  -0.78530
  Beta  occ. eigenvalues --   -0.73760  -0.71300  -0.69763  -0.68251  -0.66673
  Beta  occ. eigenvalues --   -0.66066  -0.65040  -0.63806  -0.63354  -0.61937
  Beta  occ. eigenvalues --   -0.60942  -0.60067  -0.58305  -0.54747  -0.53812
  Beta  occ. eigenvalues --   -0.53271  -0.52280  -0.51426  -0.49755  -0.48019
  Beta  occ. eigenvalues --   -0.47547  -0.45987  -0.45695  -0.45030  -0.42877
  Beta  occ. eigenvalues --   -0.41929  -0.40748  -0.40381  -0.40202  -0.39918
  Beta  occ. eigenvalues --   -0.39079  -0.38020  -0.37970  -0.37659  -0.37465
  Beta  occ. eigenvalues --   -0.36868  -0.36481  -0.36414  -0.35184  -0.34171
  Beta  occ. eigenvalues --   -0.34010  -0.33566  -0.33408  -0.32846  -0.32425
  Beta  occ. eigenvalues --   -0.32222  -0.31975  -0.31456  -0.30298  -0.30170
  Beta  occ. eigenvalues --   -0.30075  -0.29786  -0.29607  -0.29049  -0.28973
  Beta  occ. eigenvalues --   -0.28646  -0.28161  -0.27722  -0.27207  -0.26695
  Beta  occ. eigenvalues --   -0.25914  -0.25493  -0.24909  -0.24290  -0.24058
  Beta  occ. eigenvalues --   -0.21967  -0.19815  -0.18470  -0.18335  -0.17521
  Beta  occ. eigenvalues --   -0.17220  -0.16816  -0.16640  -0.16065  -0.15582
  Beta  occ. eigenvalues --   -0.15456  -0.14484  -0.12407  -0.09969
  Beta virt. eigenvalues --   -0.00669   0.03358   0.05768   0.05832   0.06736
  Beta virt. eigenvalues --    0.06825   0.07388   0.08220   0.08602   0.08915
  Beta virt. eigenvalues --    0.09105   0.09369   0.09527   0.10083   0.10405

 Mulliken charges and spin densities:
               1          2
     1  C    0.310407   0.018444
     2  C   -0.103092   0.126857
     3  C    0.110795  -0.039256
     4  C    0.228324   0.101289
     5  C    0.169730   0.018929
     6  C   -0.209908   0.037042
     7  C    0.171697  -0.036392
     8  C    0.106708   0.145348
     9  C    0.275564   0.073728
    10  C   -0.480375   0.013949
    11  C    0.261332   0.018738
    12  C    0.083689   0.110421
    13  C   -0.475082   0.054837
    14  C   -0.569127   0.068541
    15  H    0.129858  -0.004801
    16  H    0.131482  -0.003978
    17  H    0.141142  -0.002112
    18  N   -0.053027  -0.020040
    19  N   -0.143100  -0.020274
    20  O   -0.359420   0.074602
    21  O   -0.346870   0.068093
    22  O   -0.352835   0.069450
    23  O   -0.279154   0.079850
    24  C   -0.173223   0.001498
    25  H    0.154969  -0.001119
    26  H    0.159384  -0.000662
    27  H    0.168707  -0.000388
    28  C   -0.187120   0.001283
    29  H    0.153761  -0.000928
    30  H    0.152016  -0.000901
    31  H    0.169055  -0.000343
    32  C    0.203419  -0.014818
    33  C   -0.682503   0.031689
    34  S   -0.632910   0.013870
    35  C   -0.035206  -0.014028
    36  H    0.124918  -0.001453
    37  C    0.632382   0.019171
    38  O   -0.139484  -0.000817
    39  C    0.836642  -0.009596
    40  C   -0.222866   0.000099
    41  C   -0.081838   0.015011
    42  S   -0.274461   0.001106
    43  H    0.148971   0.000000
    44  H    0.143516  -0.000165
    45  H    0.147314  -0.000105
    46  C   -0.482704  -0.006470
    47  O   -0.124617   0.000958
    48  C   -0.323862   0.014256
    49  H    0.113565   0.000282
    50  C   -0.262076  -0.000214
    51  H    0.141273  -0.000883
    52  H    0.123258   0.000146
    53  H    0.159917   0.000032
    54  H    0.141063   0.000224
 Sum of Mulliken charges =  -1.00000   1.00000

 Dipole moment (field-independent basis, Debye):
    X=            -11.2466    Y=             -1.1282    Z=              0.1245  Tot=             11.3037
 Quadrupole moment (field-independent basis, Debye-Ang):
   XX=           -313.1267   YY=           -260.7863   ZZ=           -227.0941
   XY=             -9.2900   XZ=            -12.4699   YZ=             17.0478

 Normal termination of Gaussian 16 at Wed Oct  6 05:51:12 2021.
