 Gaussian 16, Revision C.01,
 Gaussian 16:  ES64L-G16RevC.01  3-Jul-2019

 -------------------------------------
 # opt=modredundant b3lyp/6-311+g(d,p)
 -------------------------------------

 -----------
 NDI_165.pdb
 -----------
 Symbolic Z-matrix:
 Charge = -1 Multiplicity = 2

 SCF Done:  E(UB3LYP) =  -2359.38355137     A.U. after   25 cycles
 SCF Done:  E(UB3LYP) =  -2359.40875411     A.U. after   25 cycles
 SCF Done:  E(UB3LYP) =  -2359.41858397     A.U. after   21 cycles
 SCF Done:  E(UB3LYP) =  -2359.42200659     A.U. after   19 cycles
 SCF Done:  E(UB3LYP) =  -2359.42299250     A.U. after   20 cycles
 SCF Done:  E(UB3LYP) =  -2359.42321182     A.U. after   20 cycles
 SCF Done:  E(UB3LYP) =  -2359.42363481     A.U. after   16 cycles
 SCF Done:  E(UB3LYP) =  -2359.42389082     A.U. after   20 cycles
 SCF Done:  E(UB3LYP) =  -2359.42375872     A.U. after   21 cycles
 SCF Done:  E(UB3LYP) =  -2359.42425937     A.U. after   17 cycles
 SCF Done:  E(UB3LYP) =  -2359.42479978     A.U. after   10 cycles
 SCF Done:  E(UB3LYP) =  -2359.42480024     A.U. after   10 cycles
 SCF Done:  E(UB3LYP) =  -2359.42480064     A.U. after   11 cycles
 SCF Done:  E(UB3LYP) =  -2359.42480083     A.U. after   12 cycles
 SCF Done:  E(UB3LYP) =  -2359.42480092     A.U. after   10 cycles
 SCF Done:  E(UB3LYP) =  -2359.42480095     A.U. after    8 cycles
 SCF Done:  E(UB3LYP) =  -2359.42480097     A.U. after    9 cycles
 SCF Done:  E(UB3LYP) =  -2359.42480099     A.U. after    8 cycles
 SCF Done:  E(UB3LYP) =  -2359.42480101     A.U. after    9 cycles
 SCF Done:  E(UB3LYP) =  -2359.42480103     A.U. after    8 cycles
 Optimization completed.
    -- Stationary point found.

                         Standard orientation:
 ---------------------------------------------------------------------
 Center     Atomic      Atomic             Coordinates (Angstroms)
 Number     Number       Type             X           Y           Z
 ---------------------------------------------------------------------
      1          6           0       -3.520946   -2.674231   -0.195581
      2          6           0       -2.785634   -1.433666    0.030473
      3          6           0       -3.434008   -0.183320   -0.102743
      4          6           0       -4.797586   -0.105334   -0.460479
      5          6           0       -5.569610   -1.324570   -0.697162
      6          6           0       -1.420555   -1.484573    0.312090
      7          6           0       -2.676897    1.009637    0.140461
      8          6           0       -1.300552    0.930664    0.506773
      9          6           0       -0.639911   -0.346292    0.539069
     10          6           0       -0.663001    2.152292    0.991622
     11          6           0       -2.649574    3.505740    0.291699
     12          6           0       -3.347831    2.254390    0.019215
     13          6           0       -4.705123    2.304710   -0.352236
     14          6           0       -5.422025    1.149493   -0.588974
     15          1           0       -6.467483    1.179317   -0.868228
     16          1           0       -5.166594    3.280419   -0.438402
     17          1           0       -0.960531   -2.462058    0.284206
     18          7           0       -1.338954    3.371128    0.766408
     19          7           0       -4.876285   -2.542816   -0.542657
     20          8           0       -3.027667   -3.799922   -0.098812
     21          8           0       -6.760318   -1.322533   -1.012449
     22          8           0       -3.159762    4.619925    0.150878
     23          8           0        0.410121    2.191323    1.594810
     24          6           0       -0.626872    4.581895    1.177179
     25          1           0       -0.544313    4.626688    2.266016
     26          1           0        0.382430    4.568242    0.766122
     27          1           0       -1.189841    5.435562    0.810696
     28          6           0       -5.607533   -3.790753   -0.764738
     29          1           0       -5.148936   -4.352931   -1.580543
     30          1           0       -5.567035   -4.410422    0.132834
     31          1           0       -6.634230   -3.533579   -1.008240
     32          6           0        0.813233   -0.581879    0.603800
     33          6           0        1.410526   -1.790098    0.927127
     34         16           0        2.000134    0.499562   -0.081702
     35          6           0        2.789934   -1.837751    0.640697
     36          1           0        0.863326   -2.607025    1.372543
     37          6           0        3.294449   -0.681993    0.060011
     38          8           0        3.631390   -2.887778    0.895506
     39          6           0        4.656498   -0.403655   -0.314879
     40          6           0        3.065383   -4.064006    1.452991
     41          6           0        5.169884    0.741135   -0.910706
     42         16           0        5.969868   -1.550881   -0.057954
     43          1           0        3.887154   -4.771498    1.561403
     44          1           0        2.624076   -3.866321    2.436160
     45          1           0        2.302201   -4.490624    0.793009
     46          6           0        6.573014    0.706534   -1.145015
     47          8           0        4.326101    1.763587   -1.240136
     48          6           0        7.138534   -0.468593   -0.734436
     49          1           0        7.134114    1.511247   -1.598948
     50          6           0        4.898914    3.018715   -1.564898
     51          1           0        8.174487   -0.764138   -0.795580
     52          1           0        5.468010    2.970679   -2.501289
     53          1           0        4.063956    3.707019   -1.689618
     54          1           0        5.550647    3.378604   -0.760434
 ---------------------------------------------------------------------

 The electronic state is 2-A.
 Alpha  occ. eigenvalues --  -88.80094 -88.77858 -19.08477 -19.08202 -18.99598
 Alpha  occ. eigenvalues --  -18.99524 -18.99054 -18.98870 -14.26531 -14.26009
 Alpha  occ. eigenvalues --  -10.18091 -10.17868 -10.17500 -10.17469 -10.16184
 Alpha  occ. eigenvalues --  -10.15898 -10.15713 -10.14936 -10.13323 -10.12643
 Alpha  occ. eigenvalues --  -10.11959 -10.11896 -10.10987 -10.10603 -10.10565
 Alpha  occ. eigenvalues --  -10.10191 -10.10156 -10.09866 -10.09053 -10.08660
 Alpha  occ. eigenvalues --  -10.08645 -10.08579 -10.08481 -10.08404 -10.07929
 Alpha  occ. eigenvalues --  -10.07867  -7.88649  -7.86394  -5.84957  -5.84575
 Alpha  occ. eigenvalues --   -5.84220  -5.82720  -5.82317  -5.81940  -1.00102
 Alpha  occ. eigenvalues --   -0.99582  -0.95664  -0.95282  -0.93605  -0.93168
 Alpha  occ. eigenvalues --   -0.83764  -0.83284  -0.81244  -0.79670  -0.78598
 Alpha  occ. eigenvalues --   -0.74077  -0.71625  -0.69833  -0.68254  -0.66708
 Alpha  occ. eigenvalues --   -0.66212  -0.65472  -0.63849  -0.63435  -0.61928
 Alpha  occ. eigenvalues --   -0.61035  -0.60311  -0.58580  -0.54961  -0.54056
 Alpha  occ. eigenvalues --   -0.53408  -0.52482  -0.51401  -0.49776  -0.48024
 Alpha  occ. eigenvalues --   -0.47564  -0.46107  -0.45783  -0.45184  -0.43094
 Alpha  occ. eigenvalues --   -0.42152  -0.40731  -0.40316  -0.40119  -0.39815
 Alpha  occ. eigenvalues --   -0.39172  -0.38343  -0.38004  -0.37906  -0.37453
 Alpha  occ. eigenvalues --   -0.36983  -0.36641  -0.36520  -0.35366  -0.34345
 Alpha  occ. eigenvalues --   -0.33939  -0.33727  -0.33357  -0.32976  -0.32584
 Alpha  occ. eigenvalues --   -0.32512  -0.32292  -0.31541  -0.30583  -0.30453
 Alpha  occ. eigenvalues --   -0.30307  -0.29964  -0.29823  -0.29708  -0.29341
 Alpha  occ. eigenvalues --   -0.28872  -0.28505  -0.27658  -0.27623  -0.26926
 Alpha  occ. eigenvalues --   -0.25984  -0.25491  -0.25156  -0.24510  -0.23784
 Alpha  occ. eigenvalues --   -0.22674  -0.20211  -0.19376  -0.18640  -0.17923
 Alpha  occ. eigenvalues --   -0.17733  -0.17219  -0.16831  -0.16425  -0.15907
 Alpha  occ. eigenvalues --   -0.15861  -0.14464  -0.13822  -0.10155  -0.05049
 Alpha virt. eigenvalues --    0.02756   0.04800   0.05846   0.06143   0.06818
 Alpha virt. eigenvalues --    0.07413   0.07445   0.08605   0.08880   0.09107
 Alpha virt. eigenvalues --    0.09383   0.09808   0.10213   0.10432   0.10594

  Beta  occ. eigenvalues --  -88.80091 -88.77852 -19.08464 -19.08212 -18.99424
  Beta  occ. eigenvalues --  -18.99333 -18.98872 -18.98662 -14.26579 -14.26060
  Beta  occ. eigenvalues --  -10.18045 -10.17823 -10.17458 -10.17421 -10.16185
  Beta  occ. eigenvalues --  -10.15861 -10.15713 -10.14971 -10.13348 -10.12607
  Beta  occ. eigenvalues --  -10.12010 -10.11820 -10.11001 -10.10602 -10.10441
  Beta  occ. eigenvalues --  -10.10209 -10.10190 -10.09920 -10.08870 -10.08574
  Beta  occ. eigenvalues --  -10.08521 -10.08420 -10.08359 -10.08321 -10.07852
  Beta  occ. eigenvalues --  -10.07785  -7.88646  -7.86389  -5.84956  -5.84574
  Beta  occ. eigenvalues --   -5.84211  -5.82716  -5.82313  -5.81924  -1.00071
  Beta  occ. eigenvalues --   -0.99602  -0.95438  -0.95041  -0.93294  -0.92838
  Beta  occ. eigenvalues --   -0.83656  -0.83169  -0.81210  -0.79557  -0.78506
  Beta  occ. eigenvalues --   -0.73771  -0.71331  -0.69729  -0.68212  -0.66628
  Beta  occ. eigenvalues --   -0.66089  -0.65080  -0.63767  -0.63373  -0.61892
  Beta  occ. eigenvalues --   -0.60985  -0.60077  -0.58296  -0.54813  -0.53884
  Beta  occ. eigenvalues --   -0.53281  -0.52379  -0.51322  -0.49709  -0.47996
  Beta  occ. eigenvalues --   -0.47511  -0.46049  -0.45695  -0.45064  -0.42952
  Beta  occ. eigenvalues --   -0.42060  -0.40692  -0.40272  -0.40131  -0.39759
  Beta  occ. eigenvalues --   -0.39038  -0.38124  -0.37941  -0.37720  -0.37422
  Beta  occ. eigenvalues --   -0.36903  -0.36526  -0.36458  -0.35276  -0.34194
  Beta  occ. eigenvalues --   -0.33891  -0.33611  -0.33278  -0.32872  -0.32432
  Beta  occ. eigenvalues --   -0.32297  -0.32050  -0.31401  -0.30363  -0.30232
  Beta  occ. eigenvalues --   -0.30127  -0.29842  -0.29576  -0.29098  -0.29063
  Beta  occ. eigenvalues --   -0.28527  -0.28228  -0.27567  -0.27378  -0.26689
  Beta  occ. eigenvalues --   -0.25874  -0.25442  -0.25024  -0.24417  -0.23691
  Beta  occ. eigenvalues --   -0.22078  -0.19812  -0.18483  -0.18441  -0.17556
  Beta  occ. eigenvalues --   -0.17364  -0.16926  -0.16577  -0.16218  -0.15682
  Beta  occ. eigenvalues --   -0.15391  -0.14241  -0.12523  -0.09731
  Beta virt. eigenvalues --   -0.00781   0.03176   0.05783   0.05847   0.06527
  Beta virt. eigenvalues --    0.06819   0.07424   0.08180   0.08608   0.08885
  Beta virt. eigenvalues --    0.09122   0.09415   0.10022   0.10219   0.10443

 Mulliken charges and spin densities:
               1          2
     1  C    0.293807   0.018420
     2  C   -0.066731   0.123164
     3  C    0.137665  -0.037861
     4  C    0.237939   0.095920
     5  C    0.156797   0.019265
     6  C    0.105039   0.023321
     7  C    0.107943  -0.034660
     8  C    0.273910   0.137578
     9  C    0.247980   0.084891
    10  C   -0.619169   0.013595
    11  C    0.276305   0.018892
    12  C    0.087103   0.106014
    13  C   -0.479857   0.049475
    14  C   -0.577569   0.068731
    15  H    0.129710  -0.004724
    16  H    0.132081  -0.003727
    17  H    0.135483  -0.001255
    18  N   -0.027210  -0.019917
    19  N   -0.144733  -0.019556
    20  O   -0.360788   0.071501
    21  O   -0.343020   0.064751
    22  O   -0.351950   0.068482
    23  O   -0.283798   0.079152
    24  C   -0.174267   0.001621
    25  H    0.155457  -0.001114
    26  H    0.157664  -0.000700
    27  H    0.168337  -0.000388
    28  C   -0.185493   0.001256
    29  H    0.153399  -0.000897
    30  H    0.152463  -0.000856
    31  H    0.168750  -0.000327
    32  C    0.032978  -0.022333
    33  C   -0.620829   0.054083
    34  S   -0.714764   0.011712
    35  C   -0.330790  -0.025345
    36  H    0.122504  -0.002461
    37  C    0.715550   0.040720
    38  O   -0.137243  -0.001235
    39  C    0.872245  -0.016817
    40  C   -0.224918   0.000205
    41  C   -0.064708   0.024373
    42  S   -0.269284   0.001729
    43  H    0.149365  -0.000001
    44  H    0.141384  -0.000275
    45  H    0.147554  -0.000206
    46  C   -0.478063  -0.011317
    47  O   -0.116558   0.002291
    48  C   -0.310974   0.025546
    49  H    0.114278   0.000503
    50  C   -0.257946  -0.000316
    51  H    0.141086  -0.001588
    52  H    0.123959   0.000252
    53  H    0.161650   0.000032
    54  H    0.140275   0.000403
 Sum of Mulliken charges =  -1.00000   1.00000

 Dipole moment (field-independent basis, Debye):
    X=             11.0729    Y=             -1.4004    Z=             -0.2870  Tot=             11.1648
 Quadrupole moment (field-independent basis, Debye-Ang):
   XX=           -311.5322   YY=           -257.5179   ZZ=           -231.1940
   XY=             10.6524   XZ=            -12.5115   YZ=            -11.3690

 Normal termination of Gaussian 16 at Wed Oct  6 04:49:58 2021.
