 Gaussian 16, Revision C.01,
 Gaussian 16:  ES64L-G16RevC.01  3-Jul-2019

 -------------------------------------
 # opt=modredundant b3lyp/6-311+g(d,p)
 -------------------------------------

 -----------
 NDI_-95.pdb
 -----------
 Symbolic Z-matrix:
 Charge = -1 Multiplicity = 2

 SCF Done:  E(UB3LYP) =  -2359.41939930     A.U. after   23 cycles
 SCF Done:  E(UB3LYP) =  -2359.42647202     A.U. after   19 cycles
 SCF Done:  E(UB3LYP) =  -2359.42741880     A.U. after   17 cycles
 SCF Done:  E(UB3LYP) =  -2359.42737662     A.U. after   16 cycles
 SCF Done:  E(UB3LYP) =  -2359.42764871     A.U. after   15 cycles
 SCF Done:  E(UB3LYP) =  -2359.42765523     A.U. after   14 cycles
 SCF Done:  E(UB3LYP) =  -2359.42766632     A.U. after   12 cycles
 SCF Done:  E(UB3LYP) =  -2359.42766784     A.U. after   11 cycles
 SCF Done:  E(UB3LYP) =  -2359.42766939     A.U. after   11 cycles
 SCF Done:  E(UB3LYP) =  -2359.42772759     A.U. after   14 cycles
 SCF Done:  E(UB3LYP) =  -2359.42774137     A.U. after   13 cycles
 SCF Done:  E(UB3LYP) =  -2359.42774212     A.U. after   12 cycles
 SCF Done:  E(UB3LYP) =  -2359.42774282     A.U. after   10 cycles
 SCF Done:  E(UB3LYP) =  -2359.42774369     A.U. after   11 cycles
 SCF Done:  E(UB3LYP) =  -2359.42774480     A.U. after   12 cycles
 SCF Done:  E(UB3LYP) =  -2359.42774557     A.U. after   12 cycles
 SCF Done:  E(UB3LYP) =  -2359.42774621     A.U. after   11 cycles
 SCF Done:  E(UB3LYP) =  -2359.42774715     A.U. after   11 cycles
 SCF Done:  E(UB3LYP) =  -2359.42774761     A.U. after   12 cycles
 SCF Done:  E(UB3LYP) =  -2359.42774773     A.U. after   10 cycles
 Optimization completed.
    -- Stationary point found.

                         Standard orientation:
 ---------------------------------------------------------------------
 Center     Atomic      Atomic             Coordinates (Angstroms)
 Number     Number       Type             X           Y           Z
 ---------------------------------------------------------------------
      1          6           0        3.298006   -2.822468    0.128270
      2          6           0        2.663211   -1.509370    0.138229
      3          6           0        3.436397   -0.341430   -0.056112
      4          6           0        4.833641   -0.419483   -0.268453
      5          6           0        5.506010   -1.715560   -0.291213
      6          6           0        1.278592   -1.405886    0.338480
      7          6           0        2.785486    0.937661   -0.032816
      8          6           0        1.380471    1.019304    0.183397
      9          6           0        0.627357   -0.179223    0.365060
     10          6           0        0.749527    2.338094    0.234532
     11          6           0        2.967340    3.424086   -0.209081
     12          6           0        3.575864    2.099228   -0.226544
     13          6           0        4.964652    1.989692   -0.437618
     14          6           0        5.583899    0.756676   -0.458631
     15          1           0        6.650542    0.663800   -0.619434
     16          1           0        5.526780    2.903757   -0.581676
     17          1           0        0.713045   -2.319325    0.472253
     18          7           0        1.582399    3.455717    0.019124
     19          7           0        4.686875   -2.845195   -0.090698
     20          8           0        2.695531   -3.884506    0.297756
     21          8           0        6.718335   -1.849145   -0.471883
     22          8           0        3.601389    4.468900   -0.377202
     23          8           0       -0.445701    2.536567    0.452545
     24          6           0        0.917710    4.759083    0.060273
     25          1           0        0.113288    4.789058   -0.676295
     26          1           0        0.474522    4.924043    1.044448
     27          1           0        1.666027    5.516780   -0.152907
     28          6           0        5.313095   -4.167559   -0.103509
     29          1           0        5.160089   -4.663350    0.857131
     30          1           0        4.855895   -4.788225   -0.876175
     31          1           0        6.372716   -4.029594   -0.297877
     32          6           0       -0.840898   -0.204215    0.585022
     33          6           0       -1.511833   -0.250647    1.776354
     34         16           0       -1.939039   -0.312585   -0.759170
     35          6           0       -2.920343   -0.338014    1.613750
     36          1           0       -1.003854   -0.193596    2.727811
     37          6           0       -3.346899   -0.381512    0.297223
     38          8           0       -3.842598   -0.391956    2.623796
     39          6           0       -4.700112   -0.462656   -0.195446
     40          6           0       -3.380153   -0.170943    3.947928
     41          6           0       -5.135034   -0.524276   -1.511191
     42         16           0       -6.101249   -0.480264    0.871046
     43          1           0       -4.265517   -0.189393    4.583188
     44          1           0       -2.690634   -0.960583    4.266632
     45          1           0       -2.885152    0.801853    4.037363
     46          6           0       -6.549611   -0.574522   -1.664107
     47          8           0       -4.215740   -0.550031   -2.523298
     48          6           0       -7.201046   -0.555899   -0.462494
     49          1           0       -7.058263   -0.623801   -2.616560
     50          6           0       -4.684772   -0.378337   -3.849151
     51          1           0       -8.264595   -0.585656   -0.282992
     52          1           0       -5.239783    0.560838   -3.957591
     53          1           0       -3.797694   -0.348990   -4.480798
     54          1           0       -5.320805   -1.215243   -4.162171
 ---------------------------------------------------------------------

 The electronic state is 2-A.
 Alpha  occ. eigenvalues --  -88.80116 -88.78142 -19.08602 -19.08220 -18.99265
 Alpha  occ. eigenvalues --  -18.99173 -18.99073 -18.98974 -14.26256 -14.26082
 Alpha  occ. eigenvalues --  -10.17764 -10.17553 -10.17544 -10.17536 -10.16372
 Alpha  occ. eigenvalues --  -10.15889 -10.15740 -10.15039 -10.13357 -10.12617
 Alpha  occ. eigenvalues --  -10.11858 -10.11841 -10.11022 -10.10357 -10.10186
 Alpha  occ. eigenvalues --  -10.10162 -10.10124 -10.09928 -10.09259 -10.08532
 Alpha  occ. eigenvalues --  -10.08480 -10.08478 -10.08464 -10.08182 -10.07890
 Alpha  occ. eigenvalues --  -10.07820  -7.88671  -7.86699  -5.84979  -5.84596
 Alpha  occ. eigenvalues --   -5.84240  -5.83024  -5.82631  -5.82240  -1.00183
 Alpha  occ. eigenvalues --   -0.99603  -0.95336  -0.95283  -0.93259  -0.93186
 Alpha  occ. eigenvalues --   -0.83483  -0.83280  -0.81275  -0.79686  -0.78612
 Alpha  occ. eigenvalues --   -0.74013  -0.71575  -0.69792  -0.68312  -0.66740
 Alpha  occ. eigenvalues --   -0.66044  -0.65442  -0.63875  -0.63378  -0.61963
 Alpha  occ. eigenvalues --   -0.60946  -0.60264  -0.58582  -0.54837  -0.53911
 Alpha  occ. eigenvalues --   -0.53357  -0.52214  -0.51603  -0.49834  -0.48105
 Alpha  occ. eigenvalues --   -0.47545  -0.45940  -0.45772  -0.45119  -0.42916
 Alpha  occ. eigenvalues --   -0.41682  -0.40903  -0.40769  -0.40143  -0.40004
 Alpha  occ. eigenvalues --   -0.39238  -0.38128  -0.37995  -0.37802  -0.37503
 Alpha  occ. eigenvalues --   -0.36920  -0.36533  -0.36462  -0.34990  -0.34496
 Alpha  occ. eigenvalues --   -0.34112  -0.33694  -0.33395  -0.32937  -0.32530
 Alpha  occ. eigenvalues --   -0.32302  -0.32258  -0.31604  -0.30431  -0.30178
 Alpha  occ. eigenvalues --   -0.30096  -0.30053  -0.29810  -0.29415  -0.29131
 Alpha  occ. eigenvalues --   -0.29031  -0.28771  -0.27800  -0.27131  -0.27047
 Alpha  occ. eigenvalues --   -0.25966  -0.25630  -0.24653  -0.24267  -0.24207
 Alpha  occ. eigenvalues --   -0.22738  -0.19840  -0.19554  -0.18359  -0.17760
 Alpha  occ. eigenvalues --   -0.17596  -0.17088  -0.16681  -0.16288  -0.16036
 Alpha  occ. eigenvalues --   -0.15468  -0.14920  -0.13838  -0.10275  -0.05090
 Alpha virt. eigenvalues --    0.03670   0.04632   0.05763   0.06666   0.06812
 Alpha virt. eigenvalues --    0.07277   0.07487   0.08355   0.08631   0.08981
 Alpha virt. eigenvalues --    0.09122   0.09476   0.09811   0.10334   0.10563

  Beta  occ. eigenvalues --  -88.80116 -88.78137 -19.08601 -19.08219 -18.99069
  Beta  occ. eigenvalues --  -18.98965 -18.98878 -18.98747 -14.26308 -14.26136
  Beta  occ. eigenvalues --  -10.17714 -10.17511 -10.17496 -10.17490 -10.16372
  Beta  occ. eigenvalues --  -10.15889 -10.15740 -10.15038 -10.13356 -10.12617
  Beta  occ. eigenvalues --  -10.11865 -10.11841 -10.11022 -10.10356 -10.10183
  Beta  occ. eigenvalues --  -10.10162 -10.10080 -10.09985 -10.09068 -10.08524
  Beta  occ. eigenvalues --  -10.08316 -10.08298 -10.08294 -10.08122 -10.07802
  Beta  occ. eigenvalues --  -10.07737  -7.88670  -7.86693  -5.84979  -5.84596
  Beta  occ. eigenvalues --   -5.84240  -5.83016  -5.82623  -5.82236  -1.00182
  Beta  occ. eigenvalues --   -0.99601  -0.95087  -0.95025  -0.92915  -0.92831
  Beta  occ. eigenvalues --   -0.83359  -0.83160  -0.81268  -0.79581  -0.78519
  Beta  occ. eigenvalues --   -0.73688  -0.71259  -0.69720  -0.68286  -0.66665
  Beta  occ. eigenvalues --   -0.65908  -0.65006  -0.63825  -0.63322  -0.61950
  Beta  occ. eigenvalues --   -0.60893  -0.60035  -0.58272  -0.54690  -0.53709
  Beta  occ. eigenvalues --   -0.53260  -0.52046  -0.51576  -0.49783  -0.48095
  Beta  occ. eigenvalues --   -0.47482  -0.45934  -0.45645  -0.44991  -0.42752
  Beta  occ. eigenvalues --   -0.41567  -0.40890  -0.40752  -0.40141  -0.39986
  Beta  occ. eigenvalues --   -0.39074  -0.37952  -0.37882  -0.37610  -0.37484
  Beta  occ. eigenvalues --   -0.36827  -0.36419  -0.36399  -0.34921  -0.34357
  Beta  occ. eigenvalues --   -0.34003  -0.33606  -0.33324  -0.32918  -0.32366
  Beta  occ. eigenvalues --   -0.32082  -0.31949  -0.31490  -0.30082  -0.30029
  Beta  occ. eigenvalues --   -0.30006  -0.29744  -0.29635  -0.29044  -0.28890
  Beta  occ. eigenvalues --   -0.28608  -0.28129  -0.27778  -0.26923  -0.26734
  Beta  occ. eigenvalues --   -0.25959  -0.25608  -0.24598  -0.24224  -0.24111
  Beta  occ. eigenvalues --   -0.21800  -0.19808  -0.18502  -0.18167  -0.17433
  Beta  occ. eigenvalues --   -0.17038  -0.16708  -0.16628  -0.15845  -0.15650
  Beta  occ. eigenvalues --   -0.15282  -0.14841  -0.12228  -0.10263
  Beta virt. eigenvalues --   -0.00439   0.03675   0.05762   0.05835   0.06747
  Beta virt. eigenvalues --    0.07223   0.07348   0.08330   0.08371   0.08650
  Beta virt. eigenvalues --    0.08984   0.09130   0.09479   0.09819   0.10338

 Mulliken charges and spin densities:
               1          2
     1  C    0.359236   0.016253
     2  C    0.036392   0.136583
     3  C    0.169836  -0.042186
     4  C    0.197371   0.115130
     5  C    0.207846   0.017763
     6  C   -0.774238   0.043853
     7  C    0.197372  -0.037222
     8  C   -0.066739   0.142739
     9  C    0.592429   0.079965
    10  C   -0.361674   0.017126
    11  C    0.185381   0.019701
    12  C    0.228180   0.117965
    13  C   -0.569263   0.058724
    14  C   -0.626340   0.067629
    15  H    0.129793  -0.004783
    16  H    0.131252  -0.004375
    17  H    0.134935  -0.003227
    18  N   -0.162671  -0.021049
    19  N   -0.147848  -0.020920
    20  O   -0.352539   0.077699
    21  O   -0.350017   0.073106
    22  O   -0.346970   0.072988
    23  O   -0.185052   0.085223
    24  C   -0.211942   0.001319
    25  H    0.157278  -0.000936
    26  H    0.152729  -0.001029
    27  H    0.170427  -0.000375
    28  C   -0.191602   0.001440
    29  H    0.152141  -0.000970
    30  H    0.153600  -0.000942
    31  H    0.169135  -0.000369
    32  C    0.340699  -0.033552
    33  C   -0.740841   0.021311
    34  S   -0.119691   0.009560
    35  C   -0.377545  -0.004507
    36  H    0.100797  -0.000113
    37  C    0.274689  -0.005303
    38  O   -0.129897  -0.000063
    39  C    0.968634   0.002808
    40  C   -0.245938   0.001014
    41  C    0.073406   0.001727
    42  S   -0.285763   0.000117
    43  H    0.148001  -0.000013
    44  H    0.138974  -0.000011
    45  H    0.154418   0.000062
    46  C   -0.439700   0.000217
    47  O   -0.135975  -0.000025
    48  C   -0.331413  -0.000196
    49  H    0.114727  -0.000004
    50  C   -0.250243   0.000133
    51  H    0.140517   0.000019
    52  H    0.139117  -0.000003
    53  H    0.159560   0.000005
    54  H    0.125027  -0.000000
 Sum of Mulliken charges =  -1.00000   1.00000

 Dipole moment (field-independent basis, Debye):
    X=            -11.4482    Y=             -0.4393    Z=              0.3047  Tot=             11.4606
 Quadrupole moment (field-independent basis, Debye-Ang):
   XX=           -317.7591   YY=           -277.9073   ZZ=           -207.4202
   XY=             -2.2066   XZ=             12.5834   YZ=              2.8291

 Normal termination of Gaussian 16 at Tue Oct  5 09:16:01 2021.
