 Gaussian 16, Revision C.01,
 Gaussian 16:  ES64L-G16RevC.01  3-Jul-2019

 -------------------------------------
 # opt=modredundant b3lyp/6-311+g(d,p)
 -------------------------------------

 ----------
 NDI_90.pdb
 ----------
 Symbolic Z-matrix:
 Charge = -1 Multiplicity = 2

 SCF Done:  E(UB3LYP) =  -2359.41936903     A.U. after   23 cycles
 SCF Done:  E(UB3LYP) =  -2359.42604931     A.U. after   19 cycles
 SCF Done:  E(UB3LYP) =  -2359.42727429     A.U. after   17 cycles
 SCF Done:  E(UB3LYP) =  -2359.42736294     A.U. after   16 cycles
 SCF Done:  E(UB3LYP) =  -2359.42755527     A.U. after   14 cycles
 SCF Done:  E(UB3LYP) =  -2359.42759217     A.U. after   16 cycles
 SCF Done:  E(UB3LYP) =  -2359.42762293     A.U. after   14 cycles
 SCF Done:  E(UB3LYP) =  -2359.42763977     A.U. after   13 cycles
 SCF Done:  E(UB3LYP) =  -2359.42765151     A.U. after   12 cycles
 SCF Done:  E(UB3LYP) =  -2359.42766784     A.U. after   12 cycles
 SCF Done:  E(UB3LYP) =  -2359.42775970     A.U. after   11 cycles
 SCF Done:  E(UB3LYP) =  -2359.42775993     A.U. after   11 cycles
 SCF Done:  E(UB3LYP) =  -2359.42776007     A.U. after   11 cycles
 SCF Done:  E(UB3LYP) =  -2359.42776039     A.U. after   11 cycles
 SCF Done:  E(UB3LYP) =  -2359.42776077     A.U. after   11 cycles
 SCF Done:  E(UB3LYP) =  -2359.42776120     A.U. after   12 cycles
 SCF Done:  E(UB3LYP) =  -2359.42776191     A.U. after   12 cycles
 SCF Done:  E(UB3LYP) =  -2359.42776212     A.U. after   11 cycles
 SCF Done:  E(UB3LYP) =  -2359.42776230     A.U. after   11 cycles
 SCF Done:  E(UB3LYP) =  -2359.42776234     A.U. after   11 cycles
 Optimization completed.
    -- Stationary point found.

                         Standard orientation:
 ---------------------------------------------------------------------
 Center     Atomic      Atomic             Coordinates (Angstroms)
 Number     Number       Type             X           Y           Z
 ---------------------------------------------------------------------
      1          6           0       -3.252021   -2.829806    0.276665
      2          6           0       -2.638270   -1.508167    0.212268
      3          6           0       -3.432196   -0.363683   -0.031518
      4          6           0       -4.830443   -0.473997   -0.221917
      5          6           0       -5.482319   -1.779703   -0.169539
      6          6           0       -1.254148   -1.372822    0.395605
      7          6           0       -2.801165    0.924480   -0.083886
      8          6           0       -1.394986    1.038606    0.109604
      9          6           0       -0.622616   -0.136254    0.354930
     10          6           0       -0.780524    2.365222    0.056335
     11          6           0       -3.024092    3.394396   -0.394332
     12          6           0       -3.612061    2.061783   -0.329919
     13          6           0       -5.001501    1.920422   -0.516234
     14          6           0       -5.601547    0.678897   -0.463788
     15          1           0       -6.668421    0.561446   -0.605830
     16          1           0       -5.579449    2.817023   -0.701495
     17          1           0       -0.674183   -2.268686    0.577871
     18          7           0       -1.635311    3.457763   -0.198584
     19          7           0       -4.642995   -2.884878    0.077986
     20          8           0       -2.630520   -3.872488    0.491149
     21          8           0       -6.694423   -1.940817   -0.327702
     22          8           0       -3.677314    4.419504   -0.604959
     23          8           0        0.418940    2.590883    0.217343
     24          6           0       -0.988231    4.769458   -0.253511
     25          1           0       -0.511396    4.993048    0.702886
     26          1           0       -0.212023    4.769482   -1.020458
     27          1           0       -1.754641    5.505064   -0.479403
     28          6           0       -5.248200   -4.215541    0.141090
     29          1           0       -4.797814   -4.865709   -0.611176
     30          1           0       -5.066923   -4.662451    1.120508
     31          1           0       -6.313651   -4.102824   -0.037011
     32          6           0        0.844958   -0.123792    0.580837
     33          6           0        1.514781   -0.003786    1.767590
     34         16           0        1.945098   -0.407648   -0.735524
     35          6           0        2.923473   -0.105652    1.619084
     36          1           0        1.005784    0.179736    2.702342
     37          6           0        3.352211   -0.326165    0.320924
     38          8           0        3.844478   -0.019146    2.628013
     39          6           0        4.706299   -0.467283   -0.155235
     40          6           0        3.383315    0.402766    3.903104
     41          6           0        5.143290   -0.704977   -1.450181
     42         16           0        6.106033   -0.334146    0.904892
     43          1           0        4.268960    0.479084    4.533660
     44          1           0        2.890661    1.378907    3.842650
     45          1           0        2.692127   -0.327275    4.338843
     46          6           0        6.558225   -0.770378   -1.593543
     47          8           0        4.225169   -0.867916   -2.450455
     48          6           0        7.207914   -0.586398   -0.404922
     49          1           0        7.068533   -0.946429   -2.529951
     50          6           0        4.699094   -0.914376   -3.784631
     51          1           0        8.271308   -0.587677   -0.222130
     52          1           0        5.327446   -1.796534   -3.957498
     53          1           0        3.813835   -0.977447   -4.416334
     54          1           0        5.263824   -0.009897   -4.039571
 ---------------------------------------------------------------------

 The electronic state is 2-A.
 Alpha  occ. eigenvalues --  -88.80114 -88.78174 -19.08621 -19.08197 -18.99268
 Alpha  occ. eigenvalues --  -18.99173 -18.99077 -18.98973 -14.26257 -14.26090
 Alpha  occ. eigenvalues --  -10.17767 -10.17562 -10.17548 -10.17537 -10.16389
 Alpha  occ. eigenvalues --  -10.15898 -10.15714 -10.15027 -10.13353 -10.12613
 Alpha  occ. eigenvalues --  -10.11849 -10.11838 -10.11024 -10.10357 -10.10194
 Alpha  occ. eigenvalues --  -10.10172 -10.10130 -10.09931 -10.09269 -10.08509
 Alpha  occ. eigenvalues --  -10.08482 -10.08481 -10.08466 -10.08183 -10.07892
 Alpha  occ. eigenvalues --  -10.07823  -7.88669  -7.86730  -5.84977  -5.84594
 Alpha  occ. eigenvalues --   -5.84238  -5.83055  -5.82661  -5.82273  -1.00203
 Alpha  occ. eigenvalues --   -0.99580  -0.95340  -0.95288  -0.93263  -0.93191
 Alpha  occ. eigenvalues --   -0.83486  -0.83284  -0.81277  -0.79689  -0.78616
 Alpha  occ. eigenvalues --   -0.74014  -0.71577  -0.69792  -0.68319  -0.66745
 Alpha  occ. eigenvalues --   -0.66028  -0.65449  -0.63879  -0.63382  -0.61965
 Alpha  occ. eigenvalues --   -0.60949  -0.60267  -0.58576  -0.54846  -0.53911
 Alpha  occ. eigenvalues --   -0.53363  -0.52212  -0.51604  -0.49835  -0.48118
 Alpha  occ. eigenvalues --   -0.47536  -0.45934  -0.45773  -0.45123  -0.42921
 Alpha  occ. eigenvalues --   -0.41672  -0.40911  -0.40798  -0.40125  -0.39992
 Alpha  occ. eigenvalues --   -0.39240  -0.38130  -0.37990  -0.37806  -0.37503
 Alpha  occ. eigenvalues --   -0.36924  -0.36531  -0.36470  -0.34971  -0.34507
 Alpha  occ. eigenvalues --   -0.34113  -0.33700  -0.33385  -0.32948  -0.32533
 Alpha  occ. eigenvalues --   -0.32297  -0.32270  -0.31599  -0.30436  -0.30175
 Alpha  occ. eigenvalues --   -0.30098  -0.30063  -0.29806  -0.29407  -0.29138
 Alpha  occ. eigenvalues --   -0.29050  -0.28770  -0.27797  -0.27124  -0.27056
 Alpha  occ. eigenvalues --   -0.25969  -0.25646  -0.24713  -0.24216  -0.24192
 Alpha  occ. eigenvalues --   -0.22762  -0.19847  -0.19555  -0.18360  -0.17761
 Alpha  occ. eigenvalues --   -0.17604  -0.17093  -0.16691  -0.16287  -0.16036
 Alpha  occ. eigenvalues --   -0.15484  -0.14900  -0.13842  -0.10268  -0.05092
 Alpha virt. eigenvalues --    0.03669   0.04638   0.05755   0.06663   0.06803
 Alpha virt. eigenvalues --    0.07282   0.07485   0.08365   0.08632   0.08977
 Alpha virt. eigenvalues --    0.09130   0.09477   0.09796   0.10312   0.10590

  Beta  occ. eigenvalues --  -88.80114 -88.78170 -19.08621 -19.08197 -18.99072
  Beta  occ. eigenvalues --  -18.98966 -18.98882 -18.98747 -14.26310 -14.26143
  Beta  occ. eigenvalues --  -10.17717 -10.17519 -10.17499 -10.17491 -10.16389
  Beta  occ. eigenvalues --  -10.15897 -10.15714 -10.15026 -10.13352 -10.12612
  Beta  occ. eigenvalues --  -10.11857 -10.11836 -10.11024 -10.10356 -10.10188
  Beta  occ. eigenvalues --  -10.10171 -10.10088 -10.09988 -10.09079 -10.08500
  Beta  occ. eigenvalues --  -10.08319 -10.08300 -10.08297 -10.08123 -10.07804
  Beta  occ. eigenvalues --  -10.07740  -7.88668  -7.86725  -5.84977  -5.84594
  Beta  occ. eigenvalues --   -5.84238  -5.83048  -5.82654  -5.82270  -1.00202
  Beta  occ. eigenvalues --   -0.99578  -0.95091  -0.95031  -0.92919  -0.92836
  Beta  occ. eigenvalues --   -0.83363  -0.83164  -0.81269  -0.79584  -0.78522
  Beta  occ. eigenvalues --   -0.73689  -0.71262  -0.69720  -0.68292  -0.66669
  Beta  occ. eigenvalues --   -0.65893  -0.65015  -0.63827  -0.63326  -0.61952
  Beta  occ. eigenvalues --   -0.60897  -0.60036  -0.58268  -0.54699  -0.53708
  Beta  occ. eigenvalues --   -0.53268  -0.52038  -0.51581  -0.49785  -0.48108
  Beta  occ. eigenvalues --   -0.47472  -0.45927  -0.45647  -0.44994  -0.42756
  Beta  occ. eigenvalues --   -0.41555  -0.40898  -0.40783  -0.40123  -0.39974
  Beta  occ. eigenvalues --   -0.39076  -0.37947  -0.37885  -0.37614  -0.37485
  Beta  occ. eigenvalues --   -0.36831  -0.36426  -0.36398  -0.34904  -0.34366
  Beta  occ. eigenvalues --   -0.34002  -0.33612  -0.33315  -0.32930  -0.32368
  Beta  occ. eigenvalues --   -0.32085  -0.31951  -0.31488  -0.30079  -0.30020
  Beta  occ. eigenvalues --   -0.30011  -0.29753  -0.29638  -0.29051  -0.28892
  Beta  occ. eigenvalues --   -0.28611  -0.28136  -0.27776  -0.26923  -0.26737
  Beta  occ. eigenvalues --   -0.25964  -0.25623  -0.24654  -0.24163  -0.24118
  Beta  occ. eigenvalues --   -0.21819  -0.19809  -0.18506  -0.18168  -0.17436
  Beta  occ. eigenvalues --   -0.17044  -0.16712  -0.16630  -0.15847  -0.15661
  Beta  occ. eigenvalues --   -0.15299  -0.14815  -0.12233  -0.10254
  Beta virt. eigenvalues --   -0.00444   0.03679   0.05754   0.05837   0.06753
  Beta virt. eigenvalues --    0.07226   0.07337   0.08302   0.08402   0.08655
  Beta virt. eigenvalues --    0.08980   0.09139   0.09480   0.09802   0.10317

 Mulliken charges and spin densities:
               1          2
     1  C    0.358392   0.016169
     2  C    0.027066   0.135738
     3  C    0.180512  -0.041580
     4  C    0.183654   0.115211
     5  C    0.213714   0.017535
     6  C   -0.764032   0.045234
     7  C    0.198336  -0.037192
     8  C   -0.028636   0.142353
     9  C    0.629615   0.078869
    10  C   -0.403250   0.017646
    11  C    0.178520   0.019607
    12  C    0.217190   0.117330
    13  C   -0.561054   0.059365
    14  C   -0.625216   0.067348
    15  H    0.129745  -0.004769
    16  H    0.131161  -0.004388
    17  H    0.135589  -0.003214
    18  N   -0.166639  -0.021099
    19  N   -0.148109  -0.020890
    20  O   -0.352567   0.077667
    21  O   -0.349896   0.073065
    22  O   -0.346835   0.073011
    23  O   -0.175723   0.085109
    24  C   -0.212253   0.001327
    25  H    0.152645  -0.001012
    26  H    0.156930  -0.000956
    27  H    0.170546  -0.000374
    28  C   -0.191224   0.001445
    29  H    0.153394  -0.000945
    30  H    0.152450  -0.000964
    31  H    0.169188  -0.000368
    32  C    0.297492  -0.029998
    33  C   -0.731472   0.016289
    34  S   -0.103715   0.007251
    35  C   -0.429062  -0.002937
    36  H    0.100010  -0.000275
    37  C    0.287569   0.000275
    38  O   -0.131569  -0.000079
    39  C    0.982347   0.001333
    40  C   -0.244524   0.000909
    41  C    0.091087   0.000787
    42  S   -0.288035   0.000176
    43  H    0.147708  -0.000013
    44  H    0.155662   0.000074
    45  H    0.138131  -0.000018
    46  C   -0.452139  -0.000353
    47  O   -0.135852   0.000186
    48  C   -0.329097  -0.000012
    49  H    0.115026   0.000001
    50  C   -0.247202   0.000114
    51  H    0.140475   0.000005
    52  H    0.125703  -0.000002
    53  H    0.159981   0.000008
    54  H    0.138261   0.000001
 Sum of Mulliken charges =  -1.00000   1.00000

 Dipole moment (field-independent basis, Debye):
    X=             11.4476    Y=             -0.3808    Z=              0.3229  Tot=             11.4585
 Quadrupole moment (field-independent basis, Debye-Ang):
   XX=           -317.9507   YY=           -276.9248   ZZ=           -208.2429
   XY=              0.9062   XZ=            -12.3446   YZ=              8.7057

 Normal termination of Gaussian 16 at Tue Oct  5 17:59:31 2021.
