 Gaussian 16, Revision C.01,
 Gaussian 16:  ES64L-G16RevC.01  3-Jul-2019

 -------------------------------------
 # opt=modredundant b3lyp/6-311+g(d,p)
 -------------------------------------

 ------------
 NDI_-130.pdb
 ------------
 Symbolic Z-matrix:
 Charge = -1 Multiplicity = 2

 SCF Done:  E(UB3LYP) =  -2359.41467046     A.U. after   23 cycles
 SCF Done:  E(UB3LYP) =  -2359.41896264     A.U. after   22 cycles
 SCF Done:  E(UB3LYP) =  -2359.42467293     A.U. after   22 cycles
 SCF Done:  E(UB3LYP) =  -2359.42554567     A.U. after   19 cycles
 SCF Done:  E(UB3LYP) =  -2359.42649922     A.U. after   22 cycles
 SCF Done:  E(UB3LYP) =  -2359.42720227     A.U. after   20 cycles
 SCF Done:  E(UB3LYP) =  -2359.42750855     A.U. after   21 cycles
 SCF Done:  E(UB3LYP) =  -2359.42770896     A.U. after   18 cycles
 SCF Done:  E(UB3LYP) =  -2359.42773289     A.U. after   17 cycles
 SCF Done:  E(UB3LYP) =  -2359.42777771     A.U. after   17 cycles
 SCF Done:  E(UB3LYP) =  -2359.42782058     A.U. after   11 cycles
 SCF Done:  E(UB3LYP) =  -2359.42782343     A.U. after   12 cycles
 SCF Done:  E(UB3LYP) =  -2359.42782795     A.U. after   13 cycles
 SCF Done:  E(UB3LYP) =  -2359.42782889     A.U. after   11 cycles
 SCF Done:  E(UB3LYP) =  -2359.42782934     A.U. after   11 cycles
 SCF Done:  E(UB3LYP) =  -2359.42782945     A.U. after    9 cycles
 SCF Done:  E(UB3LYP) =  -2359.42782947     A.U. after    9 cycles
 SCF Done:  E(UB3LYP) =  -2359.42782949     A.U. after    9 cycles
 SCF Done:  E(UB3LYP) =  -2359.42782953     A.U. after    8 cycles
 SCF Done:  E(UB3LYP) =  -2359.42782957     A.U. after    9 cycles
 Optimization completed.
    -- Stationary point found.

                         Standard orientation:
 ---------------------------------------------------------------------
 Center     Atomic      Atomic             Coordinates (Angstroms)
 Number     Number       Type             X           Y           Z
 ---------------------------------------------------------------------
      1          6           0       -3.466288   -2.705448    0.432722
      2          6           0       -2.752146   -1.469468    0.133030
      3          6           0       -3.437426   -0.231593    0.131738
      4          6           0       -4.818713   -0.162679    0.427080
      5          6           0       -5.567605   -1.376949    0.742318
      6          6           0       -1.373478   -1.504896   -0.112845
      7          6           0       -2.711026    0.963941   -0.187668
      8          6           0       -1.321460    0.896402   -0.491404
      9          6           0       -0.640662   -0.357032   -0.402553
     10          6           0       -0.662635    2.097982   -1.002875
     11          6           0       -2.733725    3.436316   -0.551053
     12          6           0       -3.415997    2.194282   -0.204179
     13          6           0       -4.789853    2.233576    0.104072
     14          6           0       -5.480881    1.079794    0.414471
     15          1           0       -6.537957    1.100385    0.647424
     16          1           0       -5.284010    3.196778    0.084284
     17          1           0       -0.868220   -2.458284   -0.027216
     18          7           0       -1.388621    3.306014   -0.928146
     19          7           0       -4.836781   -2.582445    0.721951
     20          8           0       -2.943821   -3.822098    0.444832
     21          8           0       -6.770340   -1.382251    1.011789
     22          8           0       -3.281120    4.541621   -0.542988
     23          8           0        0.462738    2.123808   -1.499768
     24          6           0       -0.678487    4.504848   -1.375800
     25          1           0        0.287676    4.565341   -0.874621
     26          1           0       -0.494862    4.460251   -2.452149
     27          1           0       -1.299026    5.364041   -1.138040
     28          6           0       -5.543355   -3.827398    1.025199
     29          1           0       -5.469965   -4.513677    0.179429
     30          1           0       -5.088366   -4.313360    1.890311
     31          1           0       -6.580875   -3.577871    1.227384
     32          6           0        0.820922   -0.528768   -0.518109
     33          6           0        1.477818   -1.424364   -1.326004
     34         16           0        1.931544    0.256848    0.569573
     35          6           0        2.877854   -1.453861   -1.099671
     36          1           0        0.961918   -2.015675   -2.068333
     37          6           0        3.315935   -0.601611   -0.099016
     38          8           0        3.785337   -2.225737   -1.773601
     39          6           0        4.667905   -0.385977    0.352658
     40          6           0        3.296875   -3.058748   -2.814014
     41          6           0        5.114238    0.454945    1.361757
     42         16           0        6.053531   -1.205638   -0.362609
     43          1           0        4.167059   -3.572965   -3.221398
     44          1           0        2.584419   -3.797911   -2.431664
     45          1           0        2.819276   -2.469113   -3.604125
     46          6           0        6.525238    0.454770    1.550362
     47          8           0        4.207978    1.169661    2.094973
     48          6           0        7.162775   -0.392661    0.688277
     49          1           0        7.040067    1.051272    2.290474
     50          6           0        4.685257    2.283818    2.830877
     51          1           0        8.220719   -0.590517    0.611486
     52          1           0        5.236939    2.978291    2.187097
     53          1           0        3.802582    2.782455    3.229741
     54          1           0        5.326596    1.970886    3.663729
 ---------------------------------------------------------------------

 The electronic state is 2-A.
 Alpha  occ. eigenvalues --  -88.80138 -88.78004 -19.08497 -19.08313 -18.99368
 Alpha  occ. eigenvalues --  -18.99279 -18.99077 -18.98930 -14.26340 -14.26027
 Alpha  occ. eigenvalues --  -10.17866 -10.17635 -10.17542 -10.17512 -10.16251
 Alpha  occ. eigenvalues --  -10.15868 -10.15824 -10.15107 -10.13396 -10.12659
 Alpha  occ. eigenvalues --  -10.11944 -10.11906 -10.11020 -10.10433 -10.10240
 Alpha  occ. eigenvalues --  -10.10161 -10.10117 -10.09914 -10.09129 -10.08669
 Alpha  occ. eigenvalues --  -10.08540 -10.08515 -10.08471 -10.08271 -10.07910
 Alpha  occ. eigenvalues --  -10.07847  -7.88693  -7.86564  -5.85002  -5.84620
 Alpha  occ. eigenvalues --   -5.84262  -5.82892  -5.82499  -5.82100  -1.00082
 Alpha  occ. eigenvalues --   -0.99698  -0.95432  -0.95269  -0.93362  -0.93178
 Alpha  occ. eigenvalues --   -0.83563  -0.83271  -0.81292  -0.79714  -0.78624
 Alpha  occ. eigenvalues --   -0.74054  -0.71591  -0.69840  -0.68282  -0.66746
 Alpha  occ. eigenvalues --   -0.66166  -0.65441  -0.63876  -0.63393  -0.61964
 Alpha  occ. eigenvalues --   -0.60971  -0.60282  -0.58608  -0.54858  -0.53959
 Alpha  occ. eigenvalues --   -0.53379  -0.52325  -0.51546  -0.49832  -0.48039
 Alpha  occ. eigenvalues --   -0.47604  -0.45977  -0.45807  -0.45136  -0.42980
 Alpha  occ. eigenvalues --   -0.41908  -0.40795  -0.40523  -0.40214  -0.40005
 Alpha  occ. eigenvalues --   -0.39238  -0.38186  -0.38033  -0.37821  -0.37503
 Alpha  occ. eigenvalues --   -0.36932  -0.36582  -0.36455  -0.35191  -0.34356
 Alpha  occ. eigenvalues --   -0.34118  -0.33679  -0.33474  -0.32889  -0.32572
 Alpha  occ. eigenvalues --   -0.32415  -0.32203  -0.31612  -0.30457  -0.30342
 Alpha  occ. eigenvalues --   -0.30178  -0.29945  -0.29847  -0.29550  -0.29181
 Alpha  occ. eigenvalues --   -0.28946  -0.28733  -0.27819  -0.27345  -0.26953
 Alpha  occ. eigenvalues --   -0.25985  -0.25550  -0.24840  -0.24306  -0.24255
 Alpha  occ. eigenvalues --   -0.22654  -0.20016  -0.19441  -0.18458  -0.17835
 Alpha  occ. eigenvalues --   -0.17614  -0.17079  -0.16812  -0.16195  -0.16084
 Alpha  occ. eigenvalues --   -0.15653  -0.14764  -0.13836  -0.10301  -0.05077
 Alpha virt. eigenvalues --    0.03311   0.04686   0.05823   0.06540   0.06787
 Alpha virt. eigenvalues --    0.07353   0.07458   0.08573   0.08790   0.09028
 Alpha virt. eigenvalues --    0.09155   0.09402   0.09987   0.10409   0.10593

  Beta  occ. eigenvalues --  -88.80137 -88.77996 -19.08493 -19.08316 -18.99180
  Beta  occ. eigenvalues --  -18.99076 -18.98888 -18.98714 -14.26391 -14.26078
  Beta  occ. eigenvalues --  -10.17817 -10.17588 -10.17497 -10.17468 -10.16251
  Beta  occ. eigenvalues --  -10.15857 -10.15823 -10.15117 -10.13403 -10.12648
  Beta  occ. eigenvalues --  -10.11928 -10.11921 -10.11024 -10.10433 -10.10174
  Beta  occ. eigenvalues --  -10.10160 -10.10134 -10.09969 -10.08937 -10.08642
  Beta  occ. eigenvalues --  -10.08387 -10.08338 -10.08303 -10.08216 -10.07824
  Beta  occ. eigenvalues --  -10.07765  -7.88693  -7.86557  -5.85001  -5.84619
  Beta  occ. eigenvalues --   -5.84260  -5.82882  -5.82491  -5.82087  -1.00072
  Beta  occ. eigenvalues --   -0.99705  -0.95190  -0.95020  -0.93028  -0.92837
  Beta  occ. eigenvalues --   -0.83445  -0.83155  -0.81277  -0.79609  -0.78528
  Beta  occ. eigenvalues --   -0.73738  -0.71281  -0.69755  -0.68254  -0.66677
  Beta  occ. eigenvalues --   -0.66026  -0.65017  -0.63817  -0.63338  -0.61942
  Beta  occ. eigenvalues --   -0.60919  -0.60056  -0.58303  -0.54712  -0.53771
  Beta  occ. eigenvalues --   -0.53266  -0.52199  -0.51486  -0.49773  -0.48022
  Beta  occ. eigenvalues --   -0.47545  -0.45966  -0.45678  -0.45010  -0.42823
  Beta  occ. eigenvalues --   -0.41810  -0.40778  -0.40482  -0.40217  -0.39978
  Beta  occ. eigenvalues --   -0.39084  -0.37992  -0.37942  -0.37633  -0.37478
  Beta  occ. eigenvalues --   -0.36847  -0.36458  -0.36401  -0.35108  -0.34211
  Beta  occ. eigenvalues --   -0.34038  -0.33572  -0.33412  -0.32845  -0.32407
  Beta  occ. eigenvalues --   -0.32174  -0.31944  -0.31485  -0.30232  -0.30119
  Beta  occ. eigenvalues --   -0.30043  -0.29752  -0.29626  -0.29025  -0.28941
  Beta  occ. eigenvalues --   -0.28653  -0.28133  -0.27773  -0.27096  -0.26700
  Beta  occ. eigenvalues --   -0.25931  -0.25527  -0.24732  -0.24234  -0.24168
  Beta  occ. eigenvalues --   -0.21876  -0.19813  -0.18474  -0.18265  -0.17493
  Beta  occ. eigenvalues --   -0.17128  -0.16747  -0.16660  -0.15971  -0.15580
  Beta  occ. eigenvalues --   -0.15419  -0.14656  -0.12326  -0.10126
  Beta virt. eigenvalues --   -0.00574   0.03485   0.05780   0.05825   0.06757
  Beta virt. eigenvalues --    0.06984   0.07381   0.08255   0.08590   0.08882
  Beta virt. eigenvalues --    0.09062   0.09208   0.09408   0.09998   0.10413

 Mulliken charges and spin densities:
               1          2
     1  C    0.323917   0.017637
     2  C   -0.112128   0.130596
     3  C    0.126191  -0.039571
     4  C    0.201653   0.105867
     5  C    0.185914   0.018462
     6  C   -0.368146   0.044294
     7  C    0.196682  -0.036576
     8  C    0.022086   0.144772
     9  C    0.290616   0.067799
    10  C   -0.419565   0.015963
    11  C    0.240063   0.018527
    12  C    0.107423   0.113800
    13  C   -0.460982   0.058299
    14  C   -0.595278   0.068025
    15  H    0.129860  -0.004812
    16  H    0.131239  -0.004153
    17  H    0.140127  -0.002642
    18  N   -0.081430  -0.020287
    19  N   -0.142362  -0.020669
    20  O   -0.357893   0.076227
    21  O   -0.348969   0.070366
    22  O   -0.352371   0.070652
    23  O   -0.265423   0.081427
    24  C   -0.172141   0.001419
    25  H    0.159654  -0.000709
    26  H    0.154493  -0.001116
    27  H    0.169269  -0.000385
    28  C   -0.189366   0.001293
    29  H    0.151906  -0.000928
    30  H    0.153749  -0.000944
    31  H    0.169223  -0.000354
    32  C    0.322778  -0.014881
    33  C   -0.582571   0.019768
    34  S   -0.516839   0.013526
    35  C   -0.054759  -0.004167
    36  H    0.117116  -0.000795
    37  C    0.495179   0.007772
    38  O   -0.135707  -0.000457
    39  C    0.810524  -0.006264
    40  C   -0.223652  -0.000169
    41  C   -0.071635   0.008578
    42  S   -0.283637   0.000643
    43  H    0.148683  -0.000001
    44  H    0.144945  -0.000058
    45  H    0.146618  -0.000086
    46  C   -0.454514  -0.003355
    47  O   -0.129739   0.000235
    48  C   -0.334543   0.007555
    49  H    0.113192   0.000148
    50  C   -0.263890  -0.000027
    51  H    0.141033  -0.000459
    52  H    0.141432   0.000114
    53  H    0.158959   0.000018
    54  H    0.123018   0.000084
 Sum of Mulliken charges =  -1.00000   1.00000

 Dipole moment (field-independent basis, Debye):
    X=             11.3353    Y=             -0.9172    Z=             -0.0373  Tot=             11.3724
 Quadrupole moment (field-independent basis, Debye-Ang):
   XX=           -314.7735   YY=           -264.9043   ZZ=           -222.1801
   XY=              8.3130   XZ=             12.1573   YZ=             18.8521

 Normal termination of Gaussian 16 at Tue Oct  5 08:28:15 2021.
