 Gaussian 16, Revision C.01,
 Gaussian 16:  ES64L-G16RevC.01  3-Jul-2019

 -------------------------------------
 # opt=modredundant b3lyp/6-311+g(d,p)
 -------------------------------------

 ----------
 NDI_25.pdb
 ----------
 Symbolic Z-matrix:
 Charge = -1 Multiplicity = 2

 SCF Done:  E(UB3LYP) =  -2359.41297828     A.U. after   23 cycles
 SCF Done:  E(UB3LYP) =  -2359.40790808     A.U. after   23 cycles
 SCF Done:  E(UB3LYP) =  -2359.42142033     A.U. after   18 cycles
 SCF Done:  E(UB3LYP) =  -2359.42456317     A.U. after   17 cycles
 SCF Done:  E(UB3LYP) =  -2359.42467706     A.U. after   19 cycles
 SCF Done:  E(UB3LYP) =  -2359.42566213     A.U. after   18 cycles
 SCF Done:  E(UB3LYP) =  -2359.42610063     A.U. after   19 cycles
 SCF Done:  E(UB3LYP) =  -2359.42436110     A.U. after   23 cycles
 SCF Done:  E(UB3LYP) =  -2359.42689226     A.U. after   18 cycles
 SCF Done:  E(UB3LYP) =  -2359.42726370     A.U. after   23 cycles
 SCF Done:  E(UB3LYP) =  -2359.42788656     A.U. after   12 cycles
 SCF Done:  E(UB3LYP) =  -2359.42788673     A.U. after   12 cycles
 SCF Done:  E(UB3LYP) =  -2359.42788683     A.U. after   12 cycles
 SCF Done:  E(UB3LYP) =  -2359.42788695     A.U. after   12 cycles
 SCF Done:  E(UB3LYP) =  -2359.42788706     A.U. after   13 cycles
 SCF Done:  E(UB3LYP) =  -2359.42788723     A.U. after   10 cycles
 SCF Done:  E(UB3LYP) =  -2359.42788749     A.U. after   10 cycles
 SCF Done:  E(UB3LYP) =  -2359.42788767     A.U. after   13 cycles
 SCF Done:  E(UB3LYP) =  -2359.42788780     A.U. after   13 cycles
 SCF Done:  E(UB3LYP) =  -2359.42788784     A.U. after   10 cycles
 Optimization completed.
    -- Stationary point found.

                         Standard orientation:
 ---------------------------------------------------------------------
 Center     Atomic      Atomic             Coordinates (Angstroms)
 Number     Number       Type             X           Y           Z
 ---------------------------------------------------------------------
      1          6           0       -2.633269   -3.005196    0.241724
      2          6           0       -2.303691   -1.589921    0.096289
      3          6           0       -3.327665   -0.614058    0.068108
      4          6           0       -4.685198   -0.986245    0.185037
      5          6           0       -5.057832   -2.393237    0.334054
      6          6           0       -0.967352   -1.195962    0.049833
      7          6           0       -2.960942    0.764588   -0.089540
      8          6           0       -1.587900    1.143322   -0.211950
      9          6           0       -0.563403    0.136718   -0.079712
     10          6           0       -1.304381    2.523491   -0.606963
     11          6           0       -3.720824    3.135230   -0.327313
     12          6           0       -4.009524    1.720350   -0.131899
     13          6           0       -5.354117    1.323583    0.001369
     14          6           0       -5.692269   -0.004472    0.156868
     15          1           0       -6.723350   -0.319740    0.252892
     16          1           0       -6.110749    2.097366   -0.030134
     17          1           0       -0.227712   -1.976050    0.176877
     18          7           0       -2.376358    3.444310   -0.564043
     19          7           0       -3.998812   -3.321914    0.346267
     20          8           0       -1.798994   -3.910606    0.276647
     21          8           0       -6.223439   -2.776390    0.442608
     22          8           0       -4.582001    4.018730   -0.317107
     23          8           0       -0.211535    2.949632   -0.987044
     24          6           0       -2.037963    4.829823   -0.892592
     25          1           0       -1.232690    5.178829   -0.244663
     26          1           0       -1.689161    4.900255   -1.925014
     27          1           0       -2.933721    5.427928   -0.752662
     28          6           0       -4.320831   -4.742326    0.488181
     29          1           0       -3.924135   -5.299831   -0.362046
     30          1           0       -3.860829   -5.141662    1.394214
     31          1           0       -5.401973   -4.833132    0.537341
     32          6           0        0.871363    0.395402    0.094258
     33          6           0        1.525304    1.489537    0.613095
     34         16           0        2.036511   -0.828330   -0.390139
     35          6           0        2.928773    1.342329    0.649382
     36          1           0        1.006726    2.372353    0.943767
     37          6           0        3.403586    0.139208    0.145050
     38          8           0        3.816543    2.265226    1.129470
     39          6           0        4.768898   -0.303414    0.043897
     40          6           0        3.306968    3.547791    1.472939
     41          6           0        5.250752   -1.506987   -0.455321
     42         16           0        6.130859    0.681276    0.573762
     43          1           0        4.173383    4.153179    1.738545
     44          1           0        2.781133    4.003263    0.628126
     45          1           0        2.629791    3.488123    2.332092
     46          6           0        6.666640   -1.639695   -0.410978
     47          8           0        4.370578   -2.429799   -0.945767
     48          6           0        7.274308   -0.536052    0.120893
     49          1           0        7.208093   -2.508797   -0.757054
     50          6           0        4.867935   -3.715399   -1.274079
     51          1           0        8.329243   -0.367032    0.271749
     52          1           0        5.349727   -4.189171   -0.410743
     53          1           0        4.002266   -4.304979   -1.573071
     54          1           0        5.578808   -3.669592   -2.107989
 ---------------------------------------------------------------------

 The electronic state is 2-A.
 Alpha  occ. eigenvalues --  -88.80144 -88.78109 -19.08644 -19.08035 -18.99614
 Alpha  occ. eigenvalues --  -18.99473 -18.99119 -18.98928 -14.26514 -14.26145
 Alpha  occ. eigenvalues --  -10.18109 -10.17832 -10.17689 -10.17560 -10.16315
 Alpha  occ. eigenvalues --  -10.15988 -10.15332 -10.14950 -10.13401 -10.12671
 Alpha  occ. eigenvalues --  -10.12046 -10.11768 -10.11056 -10.10606 -10.10579
 Alpha  occ. eigenvalues --  -10.10364 -10.10293 -10.09933 -10.09283 -10.08713
 Alpha  occ. eigenvalues --  -10.08604 -10.08528 -10.08347 -10.08223 -10.07956
 Alpha  occ. eigenvalues --  -10.07892  -7.88697  -7.86675  -5.85006  -5.84623
 Alpha  occ. eigenvalues --   -5.84268  -5.82998  -5.82609  -5.82224  -1.00247
 Alpha  occ. eigenvalues --   -0.99413  -0.95679  -0.95373  -0.93615  -0.93233
 Alpha  occ. eigenvalues --   -0.83769  -0.83342  -0.81306  -0.79685  -0.78612
 Alpha  occ. eigenvalues --   -0.74090  -0.71668  -0.69820  -0.68346  -0.66893
 Alpha  occ. eigenvalues --   -0.65808  -0.65624  -0.63913  -0.63525  -0.61923
 Alpha  occ. eigenvalues --   -0.61100  -0.60382  -0.58456  -0.55098  -0.54018
 Alpha  occ. eigenvalues --   -0.53553  -0.52389  -0.51504  -0.49879  -0.48133
 Alpha  occ. eigenvalues --   -0.47426  -0.46004  -0.45755  -0.45235  -0.43133
 Alpha  occ. eigenvalues --   -0.41968  -0.40863  -0.40719  -0.39830  -0.39691
 Alpha  occ. eigenvalues --   -0.39317  -0.38322  -0.37986  -0.37905  -0.37491
 Alpha  occ. eigenvalues --   -0.37025  -0.36673  -0.36561  -0.35067  -0.34247
 Alpha  occ. eigenvalues --   -0.34206  -0.33787  -0.33222  -0.33026  -0.32690
 Alpha  occ. eigenvalues --   -0.32609  -0.32257  -0.31339  -0.30668  -0.30551
 Alpha  occ. eigenvalues --   -0.30322  -0.30071  -0.29897  -0.29590  -0.29365
 Alpha  occ. eigenvalues --   -0.29049  -0.28585  -0.27717  -0.27435  -0.27019
 Alpha  occ. eigenvalues --   -0.26079  -0.25555  -0.25143  -0.24826  -0.23703
 Alpha  occ. eigenvalues --   -0.22811  -0.20330  -0.19423  -0.18628  -0.17938
 Alpha  occ. eigenvalues --   -0.17795  -0.17246  -0.16980  -0.16413  -0.15980
 Alpha  occ. eigenvalues --   -0.15843  -0.14620  -0.13852  -0.10206  -0.05118
 Alpha virt. eigenvalues --    0.02736   0.04651   0.05794   0.06295   0.06878
 Alpha virt. eigenvalues --    0.07375   0.07497   0.08608   0.08925   0.09138
 Alpha virt. eigenvalues --    0.09543   0.09746   0.10186   0.10252   0.10626

  Beta  occ. eigenvalues --  -88.80142 -88.78096 -19.08631 -19.08043 -18.99441
  Beta  occ. eigenvalues --  -18.99278 -18.98939 -18.98722 -14.26561 -14.26196
  Beta  occ. eigenvalues --  -10.18065 -10.17790 -10.17634 -10.17515 -10.16316
  Beta  occ. eigenvalues --  -10.15956 -10.15331 -10.14981 -10.13424 -10.12639
  Beta  occ. eigenvalues --  -10.11976 -10.11818 -10.11068 -10.10578 -10.10473
  Beta  occ. eigenvalues --  -10.10363 -10.10344 -10.09990 -10.09108 -10.08569
  Beta  occ. eigenvalues --  -10.08428 -10.08378 -10.08315 -10.08164 -10.07878
  Beta  occ. eigenvalues --  -10.07813  -7.88695  -7.86663  -5.85005  -5.84622
  Beta  occ. eigenvalues --   -5.84260  -5.82991  -5.82602  -5.82183  -1.00219
  Beta  occ. eigenvalues --   -0.99431  -0.95451  -0.95133  -0.93302  -0.92904
  Beta  occ. eigenvalues --   -0.83659  -0.83228  -0.81274  -0.79571  -0.78520
  Beta  occ. eigenvalues --   -0.73782  -0.71374  -0.69726  -0.68296  -0.66799
  Beta  occ. eigenvalues --   -0.65701  -0.65244  -0.63820  -0.63465  -0.61879
  Beta  occ. eigenvalues --   -0.61050  -0.60130  -0.58195  -0.54952  -0.53826
  Beta  occ. eigenvalues --   -0.53461  -0.52219  -0.51459  -0.49832  -0.48108
  Beta  occ. eigenvalues --   -0.47364  -0.45937  -0.45675  -0.45118  -0.42981
  Beta  occ. eigenvalues --   -0.41872  -0.40827  -0.40677  -0.39842  -0.39657
  Beta  occ. eigenvalues --   -0.39159  -0.38106  -0.37915  -0.37747  -0.37460
  Beta  occ. eigenvalues --   -0.36922  -0.36614  -0.36460  -0.34977  -0.34141
  Beta  occ. eigenvalues --   -0.34095  -0.33696  -0.33155  -0.32938  -0.32532
  Beta  occ. eigenvalues --   -0.32364  -0.32005  -0.31229  -0.30391  -0.30263
  Beta  occ. eigenvalues --   -0.30174  -0.29979  -0.29627  -0.29209  -0.29040
  Beta  occ. eigenvalues --   -0.28548  -0.28311  -0.27644  -0.27199  -0.26770
  Beta  occ. eigenvalues --   -0.25993  -0.25510  -0.25020  -0.24703  -0.23618
  Beta  occ. eigenvalues --   -0.22206  -0.19926  -0.18544  -0.18442  -0.17622
  Beta  occ. eigenvalues --   -0.17356  -0.16928  -0.16723  -0.16193  -0.15720
  Beta  occ. eigenvalues --   -0.15463  -0.14380  -0.12558  -0.09768
  Beta virt. eigenvalues --   -0.00846   0.03103   0.05641   0.05796   0.06711
  Beta virt. eigenvalues --    0.06885   0.07492   0.08127   0.08614   0.08929
  Beta virt. eigenvalues --    0.09145   0.09562   0.09949   0.10207   0.10273

 Mulliken charges and spin densities:
               1          2
     1  C    0.243396   0.015055
     2  C   -0.145273   0.129880
     3  C    0.154012  -0.038251
     4  C    0.205995   0.098419
     5  C    0.175532   0.017851
     6  C   -0.151862   0.022076
     7  C    0.227836  -0.030888
     8  C    0.489337   0.134282
     9  C    0.286563   0.092513
    10  C   -0.744887   0.014446
    11  C    0.185406   0.018932
    12  C    0.127174   0.099259
    13  C   -0.482825   0.056025
    14  C   -0.580286   0.063002
    15  H    0.129907  -0.004347
    16  H    0.132325  -0.004061
    17  H    0.153294  -0.001082
    18  N   -0.067971  -0.020436
    19  N   -0.140099  -0.019148
    20  O   -0.358146   0.073142
    21  O   -0.342500   0.064676
    22  O   -0.350358   0.067924
    23  O   -0.293558   0.077483
    24  C   -0.162763   0.001668
    25  H    0.147384  -0.000783
    26  H    0.157103  -0.001077
    27  H    0.169334  -0.000369
    28  C   -0.192121   0.001108
    29  H    0.153542  -0.000842
    30  H    0.153623  -0.000890
    31  H    0.168417  -0.000324
    32  C   -0.018708  -0.036725
    33  C   -0.400297   0.045972
    34  S   -0.680501   0.022359
    35  C   -0.227011  -0.017538
    36  H    0.131552  -0.003274
    37  C    0.696665   0.041580
    38  O   -0.130487  -0.001238
    39  C    0.863916  -0.015478
    40  C   -0.243039   0.000114
    41  C   -0.028104   0.022386
    42  S   -0.280495   0.001933
    43  H    0.146566   0.000004
    44  H    0.164686  -0.000160
    45  H    0.137213  -0.000235
    46  C   -0.591626  -0.009272
    47  O   -0.119622   0.001988
    48  C   -0.304872   0.022807
    49  H    0.115674   0.000448
    50  C   -0.246346  -0.000143
    51  H    0.141194  -0.001418
    52  H    0.136298   0.000383
    53  H    0.164720   0.000004
    54  H    0.125093   0.000260
 Sum of Mulliken charges =  -1.00000   1.00000

 Dipole moment (field-independent basis, Debye):
    X=             11.2521    Y=             -0.3748    Z=              0.6116  Tot=             11.2749
 Quadrupole moment (field-independent basis, Debye-Ang):
   XX=           -316.0864   YY=           -256.6282   ZZ=           -228.8806
   XY=             -5.3567   XZ=              0.4653   YZ=             12.9976

 Normal termination of Gaussian 16 at Tue Oct  5 23:12:43 2021.
