 Gaussian 16, Revision C.01,
 Gaussian 16:  ES64L-G16RevC.01  3-Jul-2019

 -------------------------------------
 # opt=modredundant b3lyp/6-311+g(d,p)
 -------------------------------------

 -----------
 NDI_180.pdb
 -----------
 Symbolic Z-matrix:
 Charge = -1 Multiplicity = 2

 SCF Done:  E(UB3LYP) =  -2359.37588154     A.U. after   23 cycles
 SCF Done:  E(UB3LYP) =  -2359.40775733     A.U. after   25 cycles
 SCF Done:  E(UB3LYP) =  -2359.41773335     A.U. after   20 cycles
 SCF Done:  E(UB3LYP) =  -2359.42045238     A.U. after   18 cycles
 SCF Done:  E(UB3LYP) =  -2359.42083079     A.U. after   15 cycles
 SCF Done:  E(UB3LYP) =  -2359.42084805     A.U. after   15 cycles
 SCF Done:  E(UB3LYP) =  -2359.42097720     A.U. after   13 cycles
 SCF Done:  E(UB3LYP) =  -2359.42127063     A.U. after   22 cycles
 SCF Done:  E(UB3LYP) =  -2359.41634845     A.U. after   25 cycles
 SCF Done:  E(UB3LYP) =  -2359.42149822     A.U. after   17 cycles
 SCF Done:  E(UB3LYP) =  -2359.42242915     A.U. after   11 cycles
 SCF Done:  E(UB3LYP) =  -2359.42242966     A.U. after   11 cycles
 SCF Done:  E(UB3LYP) =  -2359.42243024     A.U. after   11 cycles
 SCF Done:  E(UB3LYP) =  -2359.42243051     A.U. after   11 cycles
 SCF Done:  E(UB3LYP) =  -2359.42243055     A.U. after   10 cycles
 SCF Done:  E(UB3LYP) =  -2359.42243058     A.U. after    9 cycles
 SCF Done:  E(UB3LYP) =  -2359.42243060     A.U. after    9 cycles
 SCF Done:  E(UB3LYP) =  -2359.42243063     A.U. after    9 cycles
 SCF Done:  E(UB3LYP) =  -2359.42243065     A.U. after    8 cycles
 SCF Done:  E(UB3LYP) =  -2359.42243068     A.U. after    9 cycles
 Optimization completed.
    -- Stationary point found.

                         Standard orientation:
 ---------------------------------------------------------------------
 Center     Atomic      Atomic             Coordinates (Angstroms)
 Number     Number       Type             X           Y           Z
 ---------------------------------------------------------------------
      1          6           0       -3.602472   -2.631529    0.013796
      2          6           0       -2.837713   -1.393023    0.134659
      3          6           0       -3.463086   -0.142050   -0.074186
      4          6           0       -4.830767   -0.060263   -0.410662
      5          6           0       -5.632044   -1.276517   -0.544411
      6          6           0       -1.471270   -1.455825    0.389227
      7          6           0       -2.672627    1.043399    0.074374
      8          6           0       -1.288816    0.958047    0.420066
      9          6           0       -0.644259   -0.330851    0.513941
     10          6           0       -0.630262    2.198597    0.809197
     11          6           0       -2.597932    3.544024    0.052855
     12          6           0       -3.322079    2.291107   -0.120923
     13          6           0       -4.684816    2.346293   -0.472453
     14          6           0       -5.432017    1.195634   -0.615936
     15          1           0       -6.481706    1.230099   -0.878040
     16          1           0       -5.125216    3.324663   -0.618102
     17          1           0       -1.056859   -2.451143    0.433392
     18          7           0       -1.284387    3.413384    0.517934
     19          7           0       -4.961352   -2.496002   -0.314371
     20          8           0       -3.129003   -3.757661    0.179685
     21          8           0       -6.828226   -1.271222   -0.837012
     22          8           0       -3.087965    4.656449   -0.157246
     23          8           0        0.453773    2.260049    1.394807
     24          6           0       -0.541600    4.632925    0.838843
     25          1           0       -0.421659    4.733767    1.920194
     26          1           0        0.452857    4.582534    0.395367
     27          1           0       -1.105022    5.473696    0.444364
     28          6           0       -5.722995   -3.740077   -0.431376
     29          1           0       -5.299195   -4.365971   -1.219225
     30          1           0       -5.669067   -4.298107    0.504968
     31          1           0       -6.750831   -3.477893   -0.664465
     32          6           0        0.804945   -0.617416    0.544112
     33          6           0        1.353518   -1.893540    0.636443
     34         16           0        2.068152    0.521495    0.127094
     35          6           0        2.732049   -1.951467    0.368713
     36          1           0        0.775676   -2.766514    0.893173
     37          6           0        3.300111   -0.730197    0.032217
     38          8           0        3.518522   -3.071776    0.425205
     39          6           0        4.681937   -0.451215   -0.257952
     40          6           0        2.887888   -4.305277    0.733739
     41          6           0        5.264014    0.762763   -0.602603
     42         16           0        5.933945   -1.692568   -0.220633
     43          1           0        3.674994   -5.058799    0.715563
     44          1           0        2.430730   -4.281551    1.729212
     45          1           0        2.123461   -4.559249   -0.008722
     46          6           0        6.668685    0.703562   -0.821059
     47          8           0        4.478840    1.872762   -0.725828
     48          6           0        7.167923   -0.557931   -0.649813
     49          1           0        7.277961    1.553258   -1.095369
     50          6           0        5.118457    3.134644   -0.807097
     51          1           0        8.189767   -0.887734   -0.756568
     52          1           0        5.693264    3.235046   -1.735901
     53          1           0        4.320888    3.876334   -0.797910
     54          1           0        5.780425    3.301342    0.050612
 ---------------------------------------------------------------------

 The electronic state is 2-A.
 Alpha  occ. eigenvalues --  -88.80014 -88.77738 -19.08379 -19.08099 -18.99702
 Alpha  occ. eigenvalues --  -18.99651 -18.99050 -18.98997 -14.26629 -14.26081
 Alpha  occ. eigenvalues --  -10.18189 -10.17986 -10.17516 -10.17488 -10.16086
 Alpha  occ. eigenvalues --  -10.15846 -10.15625 -10.14773 -10.13226 -10.12589
 Alpha  occ. eigenvalues --  -10.12086 -10.11650 -10.10920 -10.10862 -10.10688
 Alpha  occ. eigenvalues --  -10.10247 -10.10205 -10.09840 -10.09135 -10.08713
 Alpha  occ. eigenvalues --  -10.08620 -10.08584 -10.08494 -10.08444 -10.07937
 Alpha  occ. eigenvalues --  -10.07875  -7.88569  -7.86232  -5.84877  -5.84495
 Alpha  occ. eigenvalues --   -5.84141  -5.82558  -5.82147  -5.81784  -1.00032
 Alpha  occ. eigenvalues --   -0.99472  -0.95778  -0.95373  -0.93722  -0.93227
 Alpha  occ. eigenvalues --   -0.83868  -0.83366  -0.81140  -0.79602  -0.78533
 Alpha  occ. eigenvalues --   -0.74083  -0.71658  -0.69770  -0.68178  -0.66658
 Alpha  occ. eigenvalues --   -0.66185  -0.65507  -0.63823  -0.63431  -0.61854
 Alpha  occ. eigenvalues --   -0.61085  -0.60342  -0.58555  -0.55030  -0.54142
 Alpha  occ. eigenvalues --   -0.53454  -0.52546  -0.51303  -0.49729  -0.47963
 Alpha  occ. eigenvalues --   -0.47501  -0.46218  -0.45750  -0.45224  -0.43161
 Alpha  occ. eigenvalues --   -0.42216  -0.40641  -0.40216  -0.40032  -0.39724
 Alpha  occ. eigenvalues --   -0.39085  -0.38434  -0.38026  -0.37937  -0.37399
 Alpha  occ. eigenvalues --   -0.37014  -0.36715  -0.36603  -0.35449  -0.34379
 Alpha  occ. eigenvalues --   -0.33844  -0.33790  -0.33203  -0.33105  -0.32603
 Alpha  occ. eigenvalues --   -0.32477  -0.32383  -0.31541  -0.30661  -0.30482
 Alpha  occ. eigenvalues --   -0.30382  -0.29992  -0.29885  -0.29742  -0.29413
 Alpha  occ. eigenvalues --   -0.28831  -0.28359  -0.27789  -0.27432  -0.26965
 Alpha  occ. eigenvalues --   -0.25909  -0.25420  -0.25148  -0.24575  -0.23382
 Alpha  occ. eigenvalues --   -0.22651  -0.20257  -0.19358  -0.18734  -0.17943
 Alpha  occ. eigenvalues --   -0.17818  -0.17267  -0.16784  -0.16544  -0.16007
 Alpha  occ. eigenvalues --   -0.15774  -0.14439  -0.13868  -0.10117  -0.05016
 Alpha virt. eigenvalues --    0.02562   0.04824   0.05881   0.06020   0.06866
 Alpha virt. eigenvalues --    0.07396   0.07485   0.08615   0.08883   0.09080
 Alpha virt. eigenvalues --    0.09514   0.10042   0.10375   0.10461   0.10585

  Beta  occ. eigenvalues --  -88.80011 -88.77732 -19.08362 -19.08111 -18.99532
  Beta  occ. eigenvalues --  -18.99466 -18.98869 -18.98786 -14.26675 -14.26132
  Beta  occ. eigenvalues --  -10.18143 -10.17942 -10.17465 -10.17445 -10.16086
  Beta  occ. eigenvalues --  -10.15798 -10.15624 -10.14817 -10.13259 -10.12542
  Beta  occ. eigenvalues --  -10.12148 -10.11552 -10.10938 -10.10725 -10.10688
  Beta  occ. eigenvalues --  -10.10257 -10.10246 -10.09895 -10.08963 -10.08577
  Beta  occ. eigenvalues --  -10.08497 -10.08468 -10.08404 -10.08338 -10.07864
  Beta  occ. eigenvalues --  -10.07793  -7.88566  -7.86228  -5.84875  -5.84493
  Beta  occ. eigenvalues --   -5.84130  -5.82557  -5.82144  -5.81767  -0.99993
  Beta  occ. eigenvalues --   -0.99497  -0.95557  -0.95129  -0.93419  -0.92896
  Beta  occ. eigenvalues --   -0.83763  -0.83251  -0.81098  -0.79478  -0.78448
  Beta  occ. eigenvalues --   -0.73779  -0.71372  -0.69659  -0.68130  -0.66563
  Beta  occ. eigenvalues --   -0.66077  -0.65130  -0.63744  -0.63356  -0.61811
  Beta  occ. eigenvalues --   -0.61037  -0.60099  -0.58283  -0.54880  -0.53976
  Beta  occ. eigenvalues --   -0.53321  -0.52447  -0.51221  -0.49659  -0.47930
  Beta  occ. eigenvalues --   -0.47453  -0.46140  -0.45681  -0.45108  -0.43023
  Beta  occ. eigenvalues --   -0.42126  -0.40592  -0.40170  -0.40049  -0.39645
  Beta  occ. eigenvalues --   -0.38973  -0.38219  -0.37903  -0.37805  -0.37364
  Beta  occ. eigenvalues --   -0.36934  -0.36615  -0.36531  -0.35358  -0.34233
  Beta  occ. eigenvalues --   -0.33796  -0.33677  -0.33111  -0.32957  -0.32439
  Beta  occ. eigenvalues --   -0.32326  -0.32135  -0.31399  -0.30406  -0.30293
  Beta  occ. eigenvalues --   -0.30137  -0.29909  -0.29589  -0.29188  -0.29060
  Beta  occ. eigenvalues --   -0.28385  -0.28306  -0.27565  -0.27347  -0.26708
  Beta  occ. eigenvalues --   -0.25789  -0.25342  -0.25019  -0.24484  -0.23206
  Beta  occ. eigenvalues --   -0.22147  -0.19806  -0.18551  -0.18477  -0.17626
  Beta  occ. eigenvalues --   -0.17431  -0.16976  -0.16474  -0.16350  -0.15794
  Beta  occ. eigenvalues --   -0.15334  -0.14178  -0.12631  -0.09612
  Beta virt. eigenvalues --   -0.00816   0.03057   0.05794   0.05883   0.06389
  Beta virt. eigenvalues --    0.06867   0.07487   0.08138   0.08616   0.08890
  Beta virt. eigenvalues --    0.09088   0.09532   0.10235   0.10422   0.10471

 Mulliken charges and spin densities:
               1          2
     1  C    0.303395   0.018253
     2  C   -0.082093   0.122296
     3  C    0.140780  -0.036977
     4  C    0.208757   0.092697
     5  C    0.171571   0.019798
     6  C    0.167556   0.016485
     7  C    0.065409  -0.031389
     8  C    0.289245   0.125915
     9  C    0.330086   0.092581
    10  C   -0.628917   0.013789
    11  C    0.209913   0.018330
    12  C    0.105415   0.102125
    13  C   -0.453320   0.047524
    14  C   -0.566206   0.069135
    15  H    0.129466  -0.004590
    16  H    0.132648  -0.003606
    17  H    0.137094  -0.000622
    18  N   -0.042495  -0.019843
    19  N   -0.147703  -0.019150
    20  O   -0.359082   0.069129
    21  O   -0.339738   0.063425
    22  O   -0.351977   0.068261
    23  O   -0.282062   0.079010
    24  C   -0.163754   0.001670
    25  H    0.155505  -0.001106
    26  H    0.154735  -0.000768
    27  H    0.168529  -0.000385
    28  C   -0.189423   0.001207
    29  H    0.153228  -0.000877
    30  H    0.153133  -0.000826
    31  H    0.168579  -0.000320
    32  C   -0.045073  -0.034377
    33  C   -0.289852   0.071914
    34  S   -0.726442   0.010572
    35  C   -0.485082  -0.032891
    36  H    0.115380  -0.003272
    37  C    0.557768   0.056645
    38  O   -0.138946  -0.001465
    39  C    0.848802  -0.022433
    40  C   -0.226299   0.000294
    41  C   -0.054272   0.030632
    42  S   -0.287169   0.002193
    43  H    0.149569  -0.000005
    44  H    0.142567  -0.000360
    45  H    0.145859  -0.000281
    46  C   -0.440716  -0.013984
    47  O   -0.109385   0.003126
    48  C   -0.319816   0.033359
    49  H    0.114249   0.000651
    50  C   -0.256343  -0.000307
    51  H    0.140704  -0.002071
    52  H    0.123406   0.000299
    53  H    0.163289   0.000033
    54  H    0.139526   0.000558
 Sum of Mulliken charges =  -1.00000   1.00000

 Dipole moment (field-independent basis, Debye):
    X=             10.9361    Y=             -1.5706    Z=             -0.2338  Tot=             11.0507
 Quadrupole moment (field-independent basis, Debye-Ang):
   XX=           -311.8350   YY=           -256.0281   ZZ=           -232.8889
   XY=             12.0379   XZ=            -10.5828   YZ=             -4.2885

 Normal termination of Gaussian 16 at Wed Oct  6 10:03:33 2021.
