 Gaussian 16, Revision C.01,
 Gaussian 16:  ES64L-G16RevC.01  3-Jul-2019

 -------------------------------------
 # opt=modredundant b3lyp/6-311+g(d,p)
 -------------------------------------

 -----------
 NDI_105.pdb
 -----------
 Symbolic Z-matrix:
 Charge = -1 Multiplicity = 2

 SCF Done:  E(UB3LYP) =  -2359.41977529     A.U. after   23 cycles
 SCF Done:  E(UB3LYP) =  -2359.42628465     A.U. after   19 cycles
 SCF Done:  E(UB3LYP) =  -2359.42738045     A.U. after   20 cycles
 SCF Done:  E(UB3LYP) =  -2359.42749690     A.U. after   17 cycles
 SCF Done:  E(UB3LYP) =  -2359.42763822     A.U. after   15 cycles
 SCF Done:  E(UB3LYP) =  -2359.42767130     A.U. after   14 cycles
 SCF Done:  E(UB3LYP) =  -2359.42769372     A.U. after   13 cycles
 SCF Done:  E(UB3LYP) =  -2359.42770734     A.U. after   12 cycles
 SCF Done:  E(UB3LYP) =  -2359.42772134     A.U. after   14 cycles
 SCF Done:  E(UB3LYP) =  -2359.42779141     A.U. after   14 cycles
 SCF Done:  E(UB3LYP) =  -2359.42782333     A.U. after   11 cycles
 SCF Done:  E(UB3LYP) =  -2359.42782405     A.U. after   11 cycles
 SCF Done:  E(UB3LYP) =  -2359.42782523     A.U. after   13 cycles
 SCF Done:  E(UB3LYP) =  -2359.42782677     A.U. after   13 cycles
 SCF Done:  E(UB3LYP) =  -2359.42782825     A.U. after   12 cycles
 SCF Done:  E(UB3LYP) =  -2359.42782980     A.U. after   12 cycles
 SCF Done:  E(UB3LYP) =  -2359.42783044     A.U. after   12 cycles
 SCF Done:  E(UB3LYP) =  -2359.42783066     A.U. after   11 cycles
 SCF Done:  E(UB3LYP) =  -2359.42783071     A.U. after   11 cycles
 SCF Done:  E(UB3LYP) =  -2359.42783072     A.U. after    9 cycles
 Optimization completed.
    -- Stationary point found.

                         Standard orientation:
 ---------------------------------------------------------------------
 Center     Atomic      Atomic             Coordinates (Angstroms)
 Number     Number       Type             X           Y           Z
 ---------------------------------------------------------------------
      1          6           0        3.375175   -2.787287    0.173518
      2          6           0        2.704681   -1.501731    0.015818
      3          6           0        3.441707   -0.297617    0.099127
      4          6           0        4.835840   -0.311602    0.342374
      5          6           0        5.542836   -1.577920    0.513453
      6          6           0        1.320129   -1.460094   -0.205330
      7          6           0        2.757154    0.951951   -0.073957
      8          6           0        1.355546    0.968817   -0.323352
      9          6           0        0.634834   -0.262210   -0.366573
     10          6           0        0.701227    2.251248   -0.581832
     11          6           0        2.868988    3.446524   -0.176345
     12          6           0        3.511933    2.150077    0.003560
     13          6           0        4.898108    2.104630    0.251625
     14          6           0        5.549781    0.899611    0.418196
     15          1           0        6.615016    0.855761    0.606735
     16          1           0        5.432377    3.044841    0.304808
     17          1           0        0.779523   -2.397648   -0.232473
     18          7           0        1.493598    3.411223   -0.455771
     19          7           0        4.759516   -2.746067    0.416895
     20          8           0        2.805698   -3.878580    0.105813
     21          8           0        6.754195   -1.656136    0.729276
     22          8           0        3.468614    4.522064   -0.102885
     23          8           0       -0.479368    2.384089   -0.903810
     24          6           0        0.801739    4.680532   -0.684713
     25          1           0        0.443886    4.735546   -1.715217
     26          1           0       -0.065278    4.751984   -0.026789
     27          1           0        1.508299    5.481117   -0.486133
     28          6           0        5.421779   -4.040833    0.577869
     29          1           0        4.972499   -4.588403    1.408386
     30          1           0        5.294458   -4.640582   -0.325443
     31          1           0        6.474554   -3.852330    0.766920
     32          6           0       -0.832862   -0.354765   -0.560176
     33          6           0       -1.502632   -0.732479   -1.692491
     34         16           0       -1.931047   -0.109717    0.766640
     35          6           0       -2.910187   -0.790810   -1.508393
     36          1           0       -0.994104   -0.929978   -2.624722
     37          6           0       -3.336563   -0.480308   -0.228329
     38          8           0       -3.831335   -1.125231   -2.464002
     39          6           0       -4.688971   -0.440577    0.271419
     40          6           0       -3.364709   -1.305044   -3.792679
     41          6           0       -5.124010   -0.145342    1.554933
     42         16           0       -6.089149   -0.767355   -0.745607
     43          1           0       -4.247853   -1.513194   -4.396361
     44          1           0       -2.871630   -0.400924   -4.165547
     45          1           0       -2.672226   -2.151343   -3.861149
     46          6           0       -6.538002   -0.168216    1.719506
     47          8           0       -4.205931    0.111607    2.535485
     48          6           0       -7.188871   -0.486892    0.560657
     49          1           0       -7.046119    0.039039    2.650797
     50          6           0       -4.669288    0.703900    3.736809
     51          1           0       -8.251873   -0.576744    0.398759
     52          1           0       -5.317266    0.020149    4.298537
     53          1           0       -3.780560    0.919112    4.328981
     54          1           0       -5.209532    1.636778    3.538316
 ---------------------------------------------------------------------

 The electronic state is 2-A.
 Alpha  occ. eigenvalues --  -88.80122 -88.78087 -19.08558 -19.08258 -18.99274
 Alpha  occ. eigenvalues --  -18.99185 -18.99070 -18.98970 -14.26264 -14.26067
 Alpha  occ. eigenvalues --  -10.17773 -10.17545 -10.17542 -10.17539 -10.16330
 Alpha  occ. eigenvalues --  -10.15873 -10.15780 -10.15065 -10.13371 -10.12629
 Alpha  occ. eigenvalues --  -10.11874 -10.11862 -10.11019 -10.10365 -10.10180
 Alpha  occ. eigenvalues --  -10.10154 -10.10115 -10.09923 -10.09229 -10.08578
 Alpha  occ. eigenvalues --  -10.08483 -10.08479 -10.08461 -10.08190 -10.07891
 Alpha  occ. eigenvalues --  -10.07823  -7.88677  -7.86645  -5.84986  -5.84603
 Alpha  occ. eigenvalues --   -5.84246  -5.82972  -5.82579  -5.82184  -1.00137
 Alpha  occ. eigenvalues --   -0.99642  -0.95344  -0.95278  -0.93268  -0.93184
 Alpha  occ. eigenvalues --   -0.83490  -0.83276  -0.81277  -0.79688  -0.78611
 Alpha  occ. eigenvalues --   -0.74018  -0.71574  -0.69800  -0.68297  -0.66737
 Alpha  occ. eigenvalues --   -0.66080  -0.65433  -0.63870  -0.63375  -0.61959
 Alpha  occ. eigenvalues --   -0.60946  -0.60264  -0.58592  -0.54831  -0.53918
 Alpha  occ. eigenvalues --   -0.53357  -0.52232  -0.51595  -0.49835  -0.48076
 Alpha  occ. eigenvalues --   -0.47564  -0.45951  -0.45776  -0.45117  -0.42920
 Alpha  occ. eigenvalues --   -0.41726  -0.40874  -0.40701  -0.40174  -0.40017
 Alpha  occ. eigenvalues --   -0.39236  -0.38132  -0.38008  -0.37800  -0.37504
 Alpha  occ. eigenvalues --   -0.36917  -0.36543  -0.36452  -0.35042  -0.34461
 Alpha  occ. eigenvalues --   -0.34117  -0.33686  -0.33421  -0.32914  -0.32533
 Alpha  occ. eigenvalues --   -0.32334  -0.32226  -0.31610  -0.30429  -0.30220
 Alpha  occ. eigenvalues --   -0.30107  -0.30010  -0.29826  -0.29440  -0.29139
 Alpha  occ. eigenvalues --   -0.28991  -0.28767  -0.27808  -0.27175  -0.27013
 Alpha  occ. eigenvalues --   -0.25964  -0.25608  -0.24529  -0.24416  -0.24210
 Alpha  occ. eigenvalues --   -0.22695  -0.19866  -0.19529  -0.18372  -0.17772
 Alpha  occ. eigenvalues --   -0.17588  -0.17077  -0.16698  -0.16261  -0.16051
 Alpha  occ. eigenvalues --   -0.15483  -0.14920  -0.13833  -0.10294  -0.05085
 Alpha virt. eigenvalues --    0.03618   0.04635   0.05783   0.06662   0.06814
 Alpha virt. eigenvalues --    0.07273   0.07483   0.08388   0.08638   0.09003
 Alpha virt. eigenvalues --    0.09103   0.09460   0.09857   0.10380   0.10523

  Beta  occ. eigenvalues --  -88.80122 -88.78081 -19.08558 -19.08258 -18.99079
  Beta  occ. eigenvalues --  -18.98977 -18.98877 -18.98744 -14.26317 -14.26120
  Beta  occ. eigenvalues --  -10.17723 -10.17499 -10.17497 -10.17494 -10.16330
  Beta  occ. eigenvalues --  -10.15873 -10.15780 -10.15065 -10.13371 -10.12628
  Beta  occ. eigenvalues --  -10.11882 -10.11860 -10.11019 -10.10364 -10.10174
  Beta  occ. eigenvalues --  -10.10153 -10.10076 -10.09979 -10.09038 -10.08569
  Beta  occ. eigenvalues --  -10.08321 -10.08299 -10.08291 -10.08130 -10.07803
  Beta  occ. eigenvalues --  -10.07740  -7.88677  -7.86639  -5.84986  -5.84603
  Beta  occ. eigenvalues --   -5.84246  -5.82963  -5.82571  -5.82178  -1.00136
  Beta  occ. eigenvalues --   -0.99641  -0.95096  -0.95021  -0.92925  -0.92831
  Beta  occ. eigenvalues --   -0.83367  -0.83157  -0.81269  -0.79583  -0.78518
  Beta  occ. eigenvalues --   -0.73694  -0.71259  -0.69726  -0.68272  -0.66665
  Beta  occ. eigenvalues --   -0.65940  -0.64997  -0.63821  -0.63320  -0.61945
  Beta  occ. eigenvalues --   -0.60893  -0.60036  -0.58281  -0.54684  -0.53719
  Beta  occ. eigenvalues --   -0.53255  -0.52076  -0.51558  -0.49781  -0.48065
  Beta  occ. eigenvalues --   -0.47502  -0.45944  -0.45648  -0.44989  -0.42756
  Beta  occ. eigenvalues --   -0.41617  -0.40860  -0.40678  -0.40173  -0.39996
  Beta  occ. eigenvalues --   -0.39074  -0.37965  -0.37887  -0.37610  -0.37483
  Beta  occ. eigenvalues --   -0.36826  -0.36418  -0.36399  -0.34969  -0.34324
  Beta  occ. eigenvalues --   -0.34012  -0.33598  -0.33349  -0.32890  -0.32370
  Beta  occ. eigenvalues --   -0.32097  -0.31940  -0.31493  -0.30113  -0.30051
  Beta  occ. eigenvalues --   -0.30008  -0.29729  -0.29635  -0.29032  -0.28894
  Beta  occ. eigenvalues --   -0.28613  -0.28121  -0.27784  -0.26947  -0.26723
  Beta  occ. eigenvalues --   -0.25947  -0.25586  -0.24493  -0.24334  -0.24114
  Beta  occ. eigenvalues --   -0.21787  -0.19810  -0.18493  -0.18178  -0.17440
  Beta  occ. eigenvalues --   -0.17042  -0.16701  -0.16639  -0.15860  -0.15627
  Beta  occ. eigenvalues --   -0.15289  -0.14846  -0.12234  -0.10262
  Beta virt. eigenvalues --   -0.00451   0.03643   0.05780   0.05828   0.06742
  Beta virt. eigenvalues --    0.07192   0.07348   0.08323   0.08425   0.08661
  Beta virt. eigenvalues --    0.09008   0.09113   0.09464   0.09866   0.10383

 Mulliken charges and spin densities:
               1          2
     1  C    0.359793   0.016771
     2  C    0.000657   0.136001
     3  C    0.133193  -0.042629
     4  C    0.231709   0.114141
     5  C    0.199893   0.018219
     6  C   -0.736154   0.043943
     7  C    0.186541  -0.037772
     8  C   -0.087942   0.144663
     9  C    0.463152   0.076861
    10  C   -0.284079   0.016274
    11  C    0.225269   0.019812
    12  C    0.234739   0.118501
    13  C   -0.560637   0.058406
    14  C   -0.641633   0.067522
    15  H    0.129958  -0.004796
    16  H    0.131440  -0.004336
    17  H    0.135776  -0.003173
    18  N   -0.144070  -0.020786
    19  N   -0.145513  -0.020954
    20  O   -0.353513   0.077604
    21  O   -0.350239   0.072829
    22  O   -0.349013   0.072583
    23  O   -0.211124   0.084704
    24  C   -0.201833   0.001305
    25  H    0.153175  -0.001079
    26  H    0.158536  -0.000870
    27  H    0.170048  -0.000377
    28  C   -0.192076   0.001392
    29  H    0.153528  -0.000956
    30  H    0.152039  -0.000958
    31  H    0.169173  -0.000368
    32  C    0.413588  -0.034958
    33  C   -0.697893   0.026492
    34  S   -0.251168   0.012872
    35  C   -0.256236  -0.007400
    36  H    0.103726  -0.000015
    37  C    0.317155  -0.009376
    38  O   -0.124937  -0.000077
    39  C    0.913942   0.004538
    40  C   -0.250381   0.000935
    41  C   -0.001303   0.003281
    42  S   -0.277771   0.000139
    43  H    0.148409  -0.000013
    44  H    0.152110   0.000023
    45  H    0.140513  -0.000001
    46  C   -0.415333   0.000664
    47  O   -0.134476  -0.000256
    48  C   -0.331772   0.000550
    49  H    0.114017   0.000008
    50  C   -0.256847   0.000119
    51  H    0.140642  -0.000024
    52  H    0.123992   0.000013
    53  H    0.158849   0.000004
    54  H    0.140379   0.000004
 Sum of Mulliken charges =  -1.00000   1.00000

 Dipole moment (field-independent basis, Debye):
    X=            -11.4347    Y=             -0.5554    Z=             -0.2560  Tot=             11.4511
 Quadrupole moment (field-independent basis, Debye-Ang):
   XX=           -317.1396   YY=           -276.0555   ZZ=           -209.7274
   XY=             -4.8716   XZ=            -12.5490   YZ=              8.9105

 Normal termination of Gaussian 16 at Tue Oct  5 23:53:07 2021.
