 Gaussian 16, Revision C.01,
 Gaussian 16:  ES64L-G16RevC.01  3-Jul-2019

 -------------------------------------
 # opt=modredundant b3lyp/6-311+g(d,p)
 -------------------------------------

 -----------
 NDI_-90.pdb
 -----------
 Symbolic Z-matrix:
 Charge = -1 Multiplicity = 2

 SCF Done:  E(UB3LYP) =  -2359.41965911     A.U. after   23 cycles
 SCF Done:  E(UB3LYP) =  -2359.42661919     A.U. after   20 cycles
 SCF Done:  E(UB3LYP) =  -2359.42745884     A.U. after   16 cycles
 SCF Done:  E(UB3LYP) =  -2359.42737042     A.U. after   16 cycles
 SCF Done:  E(UB3LYP) =  -2359.42767336     A.U. after   15 cycles
 SCF Done:  E(UB3LYP) =  -2359.42767959     A.U. after   14 cycles
 SCF Done:  E(UB3LYP) =  -2359.42768712     A.U. after   12 cycles
 SCF Done:  E(UB3LYP) =  -2359.42768832     A.U. after   11 cycles
 SCF Done:  E(UB3LYP) =  -2359.42768944     A.U. after   11 cycles
 SCF Done:  E(UB3LYP) =  -2359.42769107     A.U. after   11 cycles
 SCF Done:  E(UB3LYP) =  -2359.42775723     A.U. after   14 cycles
 SCF Done:  E(UB3LYP) =  -2359.42775784     A.U. after   10 cycles
 SCF Done:  E(UB3LYP) =  -2359.42775880     A.U. after   12 cycles
 SCF Done:  E(UB3LYP) =  -2359.42775927     A.U. after   12 cycles
 SCF Done:  E(UB3LYP) =  -2359.42776017     A.U. after   11 cycles
 SCF Done:  E(UB3LYP) =  -2359.42776074     A.U. after   12 cycles
 SCF Done:  E(UB3LYP) =  -2359.42776166     A.U. after   11 cycles
 SCF Done:  E(UB3LYP) =  -2359.42776234     A.U. after   12 cycles
 SCF Done:  E(UB3LYP) =  -2359.42776244     A.U. after   10 cycles
 SCF Done:  E(UB3LYP) =  -2359.42776249     A.U. after    9 cycles
 Optimization completed.
    -- Stationary point found.

                         Standard orientation:
 ---------------------------------------------------------------------
 Center     Atomic      Atomic             Coordinates (Angstroms)
 Number     Number       Type             X           Y           Z
 ---------------------------------------------------------------------
      1          6           0        3.251426   -2.829856    0.278133
      2          6           0        2.637949   -1.508144    0.213016
      3          6           0        3.432081   -0.363935   -0.031318
      4          6           0        4.830312   -0.474633   -0.221599
      5          6           0        5.481914   -1.780446   -0.168717
      6          6           0        1.253851   -1.372411    0.396386
      7          6           0        2.801329    0.924359   -0.084176
      8          6           0        1.395158    1.038871    0.109195
      9          6           0        0.622566   -0.135753    0.355115
     10          6           0        0.780942    2.365550    0.055100
     11          6           0        3.024800    3.394092   -0.395588
     12          6           0        3.612469    2.061395   -0.330606
     13          6           0        5.001916    1.919662   -0.516694
     14          6           0        5.601687    0.678038   -0.463722
     15          1           0        6.668555    0.560298   -0.605605
     16          1           0        5.580087    2.816068   -0.702211
     17          1           0        0.673751   -2.268072    0.579228
     18          7           0        1.635971    3.457804   -0.200367
     19          7           0        4.642260   -2.885441    0.078433
     20          8           0        2.629791   -3.872244    0.493696
     21          8           0        6.694074   -1.941818   -0.326249
     22          8           0        3.678337    4.418999   -0.606315
     23          8           0       -0.418503    2.591510    0.215822
     24          6           0        0.989144    4.769585   -0.256086
     25          1           0        0.213369    4.769491   -1.023478
     26          1           0        0.511800    4.993556    0.699963
     27          1           0        1.755811    5.504976   -0.481805
     28          6           0        5.247108   -4.216268    0.141406
     29          1           0        5.076018   -4.658999    1.124667
     30          1           0        4.788093   -4.869049   -0.603185
     31          1           0        6.310837   -4.105143   -0.047661
     32          6           0       -0.845022   -0.122863    0.581046
     33          6           0       -1.514982   -0.001438    1.767568
     34         16           0       -1.945019   -0.408086   -0.735158
     35          6           0       -2.923680   -0.103283    1.618973
     36          1           0       -1.006098    0.183151    2.702164
     37          6           0       -3.352275   -0.325299    0.321025
     38          8           0       -3.844843   -0.015280    2.627617
     39          6           0       -4.706325   -0.466912   -0.155106
     40          6           0       -3.383301    0.405080    3.903057
     41          6           0       -5.143227   -0.705930   -1.449851
     42         16           0       -6.106127   -0.333000    0.904812
     43          1           0       -4.268873    0.481658    4.533685
     44          1           0       -2.692761   -0.325965    4.338142
     45          1           0       -2.889768    1.380840    3.843500
     46          6           0       -6.558136   -0.771699   -1.593219
     47          8           0       -4.225038   -0.869555   -2.449944
     48          6           0       -7.207913   -0.586637   -0.404806
     49          1           0       -7.068386   -0.948698   -2.529479
     50          6           0       -4.699084   -0.919109   -3.783953
     51          1           0       -8.271320   -0.587808   -0.222082
     52          1           0       -5.264523   -0.015579   -4.040701
     53          1           0       -3.813858   -0.982805   -4.415642
     54          1           0       -5.326807   -1.802085   -3.954922
 ---------------------------------------------------------------------

 The electronic state is 2-A.
 Alpha  occ. eigenvalues --  -88.80114 -88.78174 -19.08621 -19.08199 -18.99268
 Alpha  occ. eigenvalues --  -18.99174 -18.99077 -18.98974 -14.26258 -14.26090
 Alpha  occ. eigenvalues --  -10.17767 -10.17562 -10.17547 -10.17537 -10.16389
 Alpha  occ. eigenvalues --  -10.15898 -10.15715 -10.15027 -10.13353 -10.12612
 Alpha  occ. eigenvalues --  -10.11849 -10.11838 -10.11024 -10.10357 -10.10195
 Alpha  occ. eigenvalues --  -10.10172 -10.10130 -10.09931 -10.09269 -10.08509
 Alpha  occ. eigenvalues --  -10.08482 -10.08481 -10.08467 -10.08183 -10.07892
 Alpha  occ. eigenvalues --  -10.07823  -7.88668  -7.86730  -5.84977  -5.84594
 Alpha  occ. eigenvalues --   -5.84238  -5.83055  -5.82661  -5.82273  -1.00203
 Alpha  occ. eigenvalues --   -0.99582  -0.95340  -0.95288  -0.93262  -0.93190
 Alpha  occ. eigenvalues --   -0.83486  -0.83284  -0.81276  -0.79689  -0.78616
 Alpha  occ. eigenvalues --   -0.74014  -0.71578  -0.69792  -0.68320  -0.66745
 Alpha  occ. eigenvalues --   -0.66028  -0.65450  -0.63879  -0.63382  -0.61966
 Alpha  occ. eigenvalues --   -0.60949  -0.60267  -0.58576  -0.54845  -0.53911
 Alpha  occ. eigenvalues --   -0.53363  -0.52212  -0.51604  -0.49835  -0.48118
 Alpha  occ. eigenvalues --   -0.47536  -0.45934  -0.45773  -0.45123  -0.42921
 Alpha  occ. eigenvalues --   -0.41672  -0.40911  -0.40799  -0.40126  -0.39993
 Alpha  occ. eigenvalues --   -0.39240  -0.38130  -0.37990  -0.37806  -0.37503
 Alpha  occ. eigenvalues --   -0.36924  -0.36531  -0.36470  -0.34971  -0.34507
 Alpha  occ. eigenvalues --   -0.34113  -0.33700  -0.33385  -0.32949  -0.32532
 Alpha  occ. eigenvalues --   -0.32297  -0.32270  -0.31599  -0.30436  -0.30171
 Alpha  occ. eigenvalues --   -0.30101  -0.30063  -0.29805  -0.29408  -0.29135
 Alpha  occ. eigenvalues --   -0.29052  -0.28771  -0.27797  -0.27124  -0.27056
 Alpha  occ. eigenvalues --   -0.25969  -0.25642  -0.24714  -0.24216  -0.24197
 Alpha  occ. eigenvalues --   -0.22762  -0.19847  -0.19555  -0.18360  -0.17762
 Alpha  occ. eigenvalues --   -0.17603  -0.17093  -0.16690  -0.16287  -0.16036
 Alpha  occ. eigenvalues --   -0.15484  -0.14899  -0.13842  -0.10267  -0.05092
 Alpha virt. eigenvalues --    0.03670   0.04638   0.05755   0.06663   0.06803
 Alpha virt. eigenvalues --    0.07282   0.07485   0.08366   0.08632   0.08977
 Alpha virt. eigenvalues --    0.09130   0.09477   0.09796   0.10312   0.10590

  Beta  occ. eigenvalues --  -88.80113 -88.78170 -19.08621 -19.08198 -18.99072
  Beta  occ. eigenvalues --  -18.98966 -18.98882 -18.98747 -14.26310 -14.26143
  Beta  occ. eigenvalues --  -10.17717 -10.17519 -10.17499 -10.17491 -10.16389
  Beta  occ. eigenvalues --  -10.15897 -10.15715 -10.15027 -10.13352 -10.12612
  Beta  occ. eigenvalues --  -10.11857 -10.11836 -10.11024 -10.10356 -10.10189
  Beta  occ. eigenvalues --  -10.10171 -10.10089 -10.09988 -10.09079 -10.08501
  Beta  occ. eigenvalues --  -10.08319 -10.08300 -10.08297 -10.08123 -10.07804
  Beta  occ. eigenvalues --  -10.07740  -7.88668  -7.86725  -5.84976  -5.84594
  Beta  occ. eigenvalues --   -5.84238  -5.83048  -5.82654  -5.82270  -1.00203
  Beta  occ. eigenvalues --   -0.99580  -0.95091  -0.95030  -0.92919  -0.92835
  Beta  occ. eigenvalues --   -0.83362  -0.83164  -0.81269  -0.79584  -0.78522
  Beta  occ. eigenvalues --   -0.73689  -0.71262  -0.69720  -0.68293  -0.66669
  Beta  occ. eigenvalues --   -0.65893  -0.65015  -0.63827  -0.63326  -0.61953
  Beta  occ. eigenvalues --   -0.60897  -0.60036  -0.58268  -0.54699  -0.53708
  Beta  occ. eigenvalues --   -0.53268  -0.52038  -0.51581  -0.49785  -0.48108
  Beta  occ. eigenvalues --   -0.47473  -0.45928  -0.45647  -0.44994  -0.42756
  Beta  occ. eigenvalues --   -0.41555  -0.40898  -0.40784  -0.40123  -0.39974
  Beta  occ. eigenvalues --   -0.39076  -0.37947  -0.37885  -0.37614  -0.37484
  Beta  occ. eigenvalues --   -0.36831  -0.36426  -0.36398  -0.34904  -0.34366
  Beta  occ. eigenvalues --   -0.34002  -0.33612  -0.33315  -0.32930  -0.32368
  Beta  occ. eigenvalues --   -0.32085  -0.31951  -0.31488  -0.30078  -0.30021
  Beta  occ. eigenvalues --   -0.30011  -0.29753  -0.29638  -0.29052  -0.28892
  Beta  occ. eigenvalues --   -0.28611  -0.28136  -0.27776  -0.26923  -0.26737
  Beta  occ. eigenvalues --   -0.25964  -0.25620  -0.24655  -0.24169  -0.24117
  Beta  occ. eigenvalues --   -0.21819  -0.19809  -0.18506  -0.18168  -0.17436
  Beta  occ. eigenvalues --   -0.17043  -0.16712  -0.16629  -0.15847  -0.15661
  Beta  occ. eigenvalues --   -0.15299  -0.14815  -0.12233  -0.10253
  Beta virt. eigenvalues --   -0.00445   0.03679   0.05754   0.05837   0.06752
  Beta virt. eigenvalues --    0.07225   0.07337   0.08302   0.08403   0.08655
  Beta virt. eigenvalues --    0.08980   0.09139   0.09481   0.09802   0.10317

 Mulliken charges and spin densities:
               1          2
     1  C    0.358408   0.016161
     2  C    0.027551   0.135745
     3  C    0.180265  -0.041572
     4  C    0.183572   0.115205
     5  C    0.213283   0.017518
     6  C   -0.764430   0.045249
     7  C    0.198258  -0.037193
     8  C   -0.028687   0.142381
     9  C    0.631043   0.078831
    10  C   -0.402866   0.017642
    11  C    0.178796   0.019604
    12  C    0.217094   0.117324
    13  C   -0.561028   0.059375
    14  C   -0.625080   0.067341
    15  H    0.129748  -0.004769
    16  H    0.131164  -0.004388
    17  H    0.135585  -0.003214
    18  N   -0.166633  -0.021098
    19  N   -0.148144  -0.020890
    20  O   -0.352566   0.077673
    21  O   -0.349924   0.073061
    22  O   -0.346851   0.073011
    23  O   -0.175641   0.085119
    24  C   -0.212223   0.001327
    25  H    0.156925  -0.000956
    26  H    0.152650  -0.001012
    27  H    0.170548  -0.000374
    28  C   -0.191266   0.001445
    29  H    0.152281  -0.000974
    30  H    0.153584  -0.000934
    31  H    0.169183  -0.000368
    32  C    0.298154  -0.029987
    33  C   -0.735741   0.016270
    34  S   -0.103666   0.007238
    35  C   -0.428160  -0.002937
    36  H    0.100035  -0.000276
    37  C    0.288315   0.000342
    38  O   -0.131572  -0.000078
    39  C    0.984023   0.001334
    40  C   -0.244255   0.000906
    41  C    0.090328   0.000757
    42  S   -0.287820   0.000176
    43  H    0.147735  -0.000013
    44  H    0.138187  -0.000018
    45  H    0.155585   0.000074
    46  C   -0.453076  -0.000361
    47  O   -0.135857   0.000189
    48  C   -0.329197  -0.000010
    49  H    0.115038   0.000001
    50  C   -0.247069   0.000113
    51  H    0.140476   0.000004
    52  H    0.138208   0.000001
    53  H    0.159997   0.000008
    54  H    0.125733  -0.000002
 Sum of Mulliken charges =  -1.00000   1.00000

 Dipole moment (field-independent basis, Debye):
    X=            -11.4482    Y=             -0.3853    Z=              0.3200  Tot=             11.4592
 Quadrupole moment (field-independent basis, Debye-Ang):
   XX=           -317.9645   YY=           -276.9088   ZZ=           -208.2462
   XY=             -0.8765   XZ=             12.3176   YZ=              8.7565

 Normal termination of Gaussian 16 at Tue Oct  5 08:32:07 2021.
