 Gaussian 16, Revision C.01,
 Gaussian 16:  ES64L-G16RevC.01  3-Jul-2019

 -------------------------------------
 # opt=modredundant b3lyp/6-311+g(d,p)
 -------------------------------------

 ----------
 NDI_10.pdb
 ----------
 Symbolic Z-matrix:
 Charge = -1 Multiplicity = 2

 SCF Done:  E(UB3LYP) =  -2359.40451187     A.U. after   23 cycles
 SCF Done:  E(UB3LYP) =  -2359.40366837     A.U. after   23 cycles
 SCF Done:  E(UB3LYP) =  -2359.42063712     A.U. after   20 cycles
 SCF Done:  E(UB3LYP) =  -2359.42317239     A.U. after   22 cycles
 SCF Done:  E(UB3LYP) =  -2359.42316097     A.U. after   18 cycles
 SCF Done:  E(UB3LYP) =  -2359.42369843     A.U. after   17 cycles
 SCF Done:  E(UB3LYP) =  -2359.42389029     A.U. after   16 cycles
 SCF Done:  E(UB3LYP) =  -2359.42384535     A.U. after   22 cycles
 SCF Done:  E(UB3LYP) =  -2359.42417014     A.U. after   17 cycles
 SCF Done:  E(UB3LYP) =  -2359.42430663     A.U. after   16 cycles
 SCF Done:  E(UB3LYP) =  -2359.42442696     A.U. after   13 cycles
 SCF Done:  E(UB3LYP) =  -2359.42442725     A.U. after   11 cycles
 SCF Done:  E(UB3LYP) =  -2359.42442742     A.U. after   10 cycles
 SCF Done:  E(UB3LYP) =  -2359.42442763     A.U. after   10 cycles
 SCF Done:  E(UB3LYP) =  -2359.42442786     A.U. after   10 cycles
 SCF Done:  E(UB3LYP) =  -2359.42442817     A.U. after   11 cycles
 SCF Done:  E(UB3LYP) =  -2359.42442861     A.U. after   11 cycles
 SCF Done:  E(UB3LYP) =  -2359.42442870     A.U. after    9 cycles
 SCF Done:  E(UB3LYP) =  -2359.42442874     A.U. after    9 cycles
 SCF Done:  E(UB3LYP) =  -2359.42442875     A.U. after    8 cycles
 Optimization completed.
    -- Stationary point found.

                         Standard orientation:
 ---------------------------------------------------------------------
 Center     Atomic      Atomic             Coordinates (Angstroms)
 Number     Number       Type             X           Y           Z
 ---------------------------------------------------------------------
      1          6           0       -2.430064   -2.994342    0.421464
      2          6           0       -2.193433   -1.557173    0.307311
      3          6           0       -3.254688   -0.675325   -0.000590
      4          6           0       -4.555316   -1.167899   -0.239921
      5          6           0       -4.831206   -2.603029   -0.159480
      6          6           0       -0.903109   -1.061783    0.451313
      7          6           0       -2.979622    0.731843   -0.045803
      8          6           0       -1.662154    1.234566    0.216587
      9          6           0       -0.561785    0.294731    0.352245
     10          6           0       -1.550797    2.676247    0.416647
     11          6           0       -3.889627    3.034913   -0.399599
     12          6           0       -4.068942    1.591555   -0.350281
     13          6           0       -5.353184    1.073944   -0.608934
     14          6           0       -5.601134   -0.280647   -0.552158
     15          1           0       -6.587169   -0.686761   -0.737541
     16          1           0       -6.137959    1.781124   -0.846051
     17          1           0       -0.136730   -1.805451    0.627957
     18          7           0       -2.627594    3.486818   -0.002007
     19          7           0       -3.742930   -3.431569    0.177457
     20          8           0       -1.561205   -3.819282    0.706222
     21          8           0       -5.944118   -3.089382   -0.362951
     22          8           0       -4.773473    3.829578   -0.730749
     23          8           0       -0.599796    3.259453    0.950902
     24          6           0       -2.424274    4.931706    0.115696
     25          1           0       -2.337456    5.221150    1.165417
     26          1           0       -1.499854    5.215868   -0.387786
     27          1           0       -3.281252    5.419707   -0.339562
     28          6           0       -3.971974   -4.873007    0.283229
     29          1           0       -3.336436   -5.404812   -0.427326
     30          1           0       -3.714748   -5.218446    1.286179
     31          1           0       -5.020981   -5.057765    0.071188
     32          6           0        0.883824    0.575693    0.287631
     33          6           0        1.619105    1.745512    0.267649
     34         16           0        1.983558   -0.797438    0.065010
     35          6           0        3.008051    1.550049    0.111372
     36          1           0        1.151808    2.702223    0.415258
     37          6           0        3.407304    0.228268   -0.007562
     38          8           0        3.950160    2.541228    0.084890
     39          6           0        4.741977   -0.287968   -0.152796
     40          6           0        3.498548    3.881526    0.238164
     41          6           0        5.148256   -1.612119   -0.267658
     42         16           0        6.163203    0.752912   -0.205278
     43          1           0        4.392786    4.503458    0.202343
     44          1           0        2.820448    4.166488   -0.572669
     45          1           0        2.989080    4.022296    1.196478
     46          6           0        6.554774   -1.788450   -0.388981
     47          8           0        4.209508   -2.603087   -0.267306
     48          6           0        7.229889   -0.599034   -0.370514
     49          1           0        7.042115   -2.748168   -0.487114
     50          6           0        4.656685   -3.947750   -0.256912
     51          1           0        8.294284   -0.439274   -0.446917
     52          1           0        5.283998   -4.152857    0.618605
     53          1           0        3.758335   -4.561648   -0.209696
     54          1           0        5.213981   -4.191679   -1.169395
 ---------------------------------------------------------------------

 The electronic state is 2-A.
 Alpha  occ. eigenvalues --  -88.80195 -88.77882 -19.08642 -19.07922 -18.99700
 Alpha  occ. eigenvalues --  -18.99565 -18.99320 -18.99100 -14.26585 -14.26247
 Alpha  occ. eigenvalues --  -10.18191 -10.17976 -10.17920 -10.17520 -10.16251
 Alpha  occ. eigenvalues --  -10.16079 -10.15137 -10.14761 -10.13413 -10.12749
 Alpha  occ. eigenvalues --  -10.12057 -10.12047 -10.11095 -10.11015 -10.10644
 Alpha  occ. eigenvalues --  -10.10442 -10.10384 -10.09907 -10.09566 -10.08759
 Alpha  occ. eigenvalues --  -10.08605 -10.08538 -10.08373 -10.07950 -10.07884
 Alpha  occ. eigenvalues --  -10.07520  -7.88747  -7.86456  -5.85055  -5.84673
 Alpha  occ. eigenvalues --   -5.84319  -5.82784  -5.82388  -5.81996  -1.00275
 Alpha  occ. eigenvalues --   -0.99275  -0.95770  -0.95580  -0.93709  -0.93365
 Alpha  occ. eigenvalues --   -0.83856  -0.83486  -0.81318  -0.79617  -0.78536
 Alpha  occ. eigenvalues --   -0.74095  -0.71699  -0.69808  -0.68353  -0.66928
 Alpha  occ. eigenvalues --   -0.65674  -0.65638  -0.63865  -0.63582  -0.61804
 Alpha  occ. eigenvalues --   -0.61158  -0.60471  -0.58396  -0.55199  -0.54099
 Alpha  occ. eigenvalues --   -0.53601  -0.52467  -0.51482  -0.49891  -0.48120
 Alpha  occ. eigenvalues --   -0.47370  -0.46027  -0.45693  -0.45286  -0.43224
 Alpha  occ. eigenvalues --   -0.41985  -0.40830  -0.40706  -0.39657  -0.39628
 Alpha  occ. eigenvalues --   -0.39432  -0.38416  -0.38075  -0.37940  -0.37486
 Alpha  occ. eigenvalues --   -0.37095  -0.36764  -0.36469  -0.35213  -0.34416
 Alpha  occ. eigenvalues --   -0.34220  -0.33720  -0.33449  -0.33130  -0.32780
 Alpha  occ. eigenvalues --   -0.32448  -0.32145  -0.31238  -0.30691  -0.30515
 Alpha  occ. eigenvalues --   -0.30450  -0.30292  -0.29839  -0.29601  -0.29464
 Alpha  occ. eigenvalues --   -0.28901  -0.28278  -0.27836  -0.27357  -0.27027
 Alpha  occ. eigenvalues --   -0.26087  -0.25439  -0.25354  -0.25011  -0.22974
 Alpha  occ. eigenvalues --   -0.22845  -0.20362  -0.19491  -0.18743  -0.17998
 Alpha  occ. eigenvalues --   -0.17841  -0.17318  -0.16971  -0.16473  -0.15894
 Alpha  occ. eigenvalues --   -0.15836  -0.15065  -0.13912  -0.10291  -0.05070
 Alpha virt. eigenvalues --    0.02401   0.04591   0.05818   0.06244   0.06931
 Alpha virt. eigenvalues --    0.07286   0.07639   0.08577   0.08974   0.09121
 Alpha virt. eigenvalues --    0.09618   0.10093   0.10361   0.10410   0.10700

  Beta  occ. eigenvalues --  -88.80192 -88.77866 -19.08627 -19.07932 -18.99531
  Beta  occ. eigenvalues --  -18.99375 -18.99099 -18.98923 -14.26631 -14.26298
  Beta  occ. eigenvalues --  -10.18147 -10.17922 -10.17879 -10.17476 -10.16251
  Beta  occ. eigenvalues --  -10.16041 -10.15137 -10.14797 -10.13441 -10.12710
  Beta  occ. eigenvalues --  -10.12114 -10.11965 -10.11110 -10.10862 -10.10643
  Beta  occ. eigenvalues --  -10.10441 -10.10432 -10.09964 -10.09394 -10.08618
  Beta  occ. eigenvalues --  -10.08438 -10.08391 -10.08344 -10.07876 -10.07806
  Beta  occ. eigenvalues --  -10.07452  -7.88745  -7.86442  -5.85054  -5.84671
  Beta  occ. eigenvalues --   -5.84310  -5.82776  -5.82379  -5.81951  -1.00242
  Beta  occ. eigenvalues --   -0.99296  -0.95548  -0.95330  -0.93404  -0.93033
  Beta  occ. eigenvalues --   -0.83749  -0.83368  -0.81281  -0.79488  -0.78449
  Beta  occ. eigenvalues --   -0.73784  -0.71411  -0.69710  -0.68296  -0.66825
  Beta  occ. eigenvalues --   -0.65552  -0.65281  -0.63781  -0.63517  -0.61752
  Beta  occ. eigenvalues --   -0.61106  -0.60209  -0.58156  -0.55050  -0.53915
  Beta  occ. eigenvalues --   -0.53500  -0.52307  -0.51431  -0.49845  -0.48093
  Beta  occ. eigenvalues --   -0.47306  -0.45923  -0.45642  -0.45173  -0.43074
  Beta  occ. eigenvalues --   -0.41894  -0.40788  -0.40660  -0.39663  -0.39592
  Beta  occ. eigenvalues --   -0.39281  -0.38200  -0.37923  -0.37864  -0.37450
  Beta  occ. eigenvalues --   -0.36969  -0.36703  -0.36390  -0.35103  -0.34312
  Beta  occ. eigenvalues --   -0.34116  -0.33654  -0.33320  -0.33026  -0.32601
  Beta  occ. eigenvalues --   -0.32176  -0.32014  -0.31054  -0.30411  -0.30353
  Beta  occ. eigenvalues --   -0.30261  -0.30120  -0.29485  -0.29317  -0.29043
  Beta  occ. eigenvalues --   -0.28485  -0.28079  -0.27718  -0.27152  -0.26808
  Beta  occ. eigenvalues --   -0.25977  -0.25383  -0.25171  -0.24935  -0.22834
  Beta  occ. eigenvalues --   -0.22301  -0.19940  -0.18621  -0.18527  -0.17747
  Beta  occ. eigenvalues --   -0.17390  -0.17043  -0.16649  -0.16280  -0.15650
  Beta  occ. eigenvalues --   -0.15420  -0.14822  -0.12660  -0.09779
  Beta virt. eigenvalues --   -0.00835   0.02811   0.05588   0.05819   0.06628
  Beta virt. eigenvalues --    0.06934   0.07643   0.08075   0.08579   0.08978
  Beta virt. eigenvalues --    0.09129   0.09620   0.10271   0.10367   0.10477

 Mulliken charges and spin densities:
               1          2
     1  C    0.328146   0.011763
     2  C   -0.069479   0.129260
     3  C    0.017180  -0.039919
     4  C    0.278962   0.093149
     5  C    0.210484   0.017734
     6  C   -0.075402   0.016338
     7  C    0.082689  -0.025514
     8  C    0.369711   0.134871
     9  C    0.155078   0.101444
    10  C   -0.467840   0.012406
    11  C    0.204835   0.019542
    12  C    0.190553   0.094099
    13  C   -0.462790   0.054808
    14  C   -0.626789   0.066359
    15  H    0.130197  -0.004247
    16  H    0.133389  -0.003894
    17  H    0.151424  -0.000662
    18  N   -0.067177  -0.020778
    19  N   -0.140228  -0.018447
    20  O   -0.353300   0.070942
    21  O   -0.344387   0.062924
    22  O   -0.355856   0.066716
    23  O   -0.345747   0.079209
    24  C   -0.157359   0.001628
    25  H    0.154930  -0.001128
    26  H    0.150009  -0.000816
    27  H    0.169299  -0.000387
    28  C   -0.189547   0.001123
    29  H    0.154636  -0.000865
    30  H    0.153665  -0.000829
    31  H    0.168588  -0.000312
    32  C   -0.212444  -0.074208
    33  C   -0.112268   0.074957
    34  S   -0.802399   0.019527
    35  C   -0.314823  -0.013906
    36  H    0.191989  -0.002709
    37  C    0.685263   0.053418
    38  O   -0.144367  -0.001577
    39  C    0.770881  -0.018758
    40  C   -0.233951   0.000265
    41  C    0.011665   0.026182
    42  S   -0.265732   0.002380
    43  H    0.146219   0.000004
    44  H    0.144897  -0.000309
    45  H    0.154661  -0.000278
    46  C   -0.568849  -0.011209
    47  O   -0.116855   0.002654
    48  C   -0.322909   0.027549
    49  H    0.116120   0.000535
    50  C   -0.246808  -0.000109
    51  H    0.141430  -0.001707
    52  H    0.134670   0.000427
    53  H    0.169246  -0.000009
    54  H    0.126490   0.000367
 Sum of Mulliken charges =  -1.00000   1.00000

 Dipole moment (field-independent basis, Debye):
    X=             11.2346    Y=             -0.4576    Z=             -0.2583  Tot=             11.2468
 Quadrupole moment (field-independent basis, Debye-Ang):
   XX=           -313.1010   YY=           -254.0869   ZZ=           -233.1215
   XY=             -5.6325   XZ=             -8.3098   YZ=              3.2626

 Normal termination of Gaussian 16 at Tue Oct  5 23:03:58 2021.
