 Gaussian 16, Revision C.01,
 Gaussian 16:  ES64L-G16RevC.01  3-Jul-2019

 -------------------------------------
 # opt=modredundant b3lyp/6-311+g(d,p)
 -------------------------------------

 ----------
 NDI_80.pdb
 ----------
 Symbolic Z-matrix:
 Charge = -1 Multiplicity = 2

 SCF Done:  E(UB3LYP) =  -2359.41933213     A.U. after   25 cycles
 SCF Done:  E(UB3LYP) =  -2359.42594580     A.U. after   17 cycles
 SCF Done:  E(UB3LYP) =  -2359.42732470     A.U. after   19 cycles
 SCF Done:  E(UB3LYP) =  -2359.42752655     A.U. after   16 cycles
 SCF Done:  E(UB3LYP) =  -2359.42767741     A.U. after   17 cycles
 SCF Done:  E(UB3LYP) =  -2359.42773221     A.U. after   14 cycles
 SCF Done:  E(UB3LYP) =  -2359.42776727     A.U. after   13 cycles
 SCF Done:  E(UB3LYP) =  -2359.42778608     A.U. after   14 cycles
 SCF Done:  E(UB3LYP) =  -2359.42780009     A.U. after   14 cycles
 SCF Done:  E(UB3LYP) =  -2359.42782463     A.U. after   13 cycles
 SCF Done:  E(UB3LYP) =  -2359.42784018     A.U. after   14 cycles
 SCF Done:  E(UB3LYP) =  -2359.42784718     A.U. after   13 cycles
 SCF Done:  E(UB3LYP) =  -2359.42791253     A.U. after   17 cycles
 SCF Done:  E(UB3LYP) =  -2359.42791344     A.U. after   11 cycles
 SCF Done:  E(UB3LYP) =  -2359.42791373     A.U. after   10 cycles
 SCF Done:  E(UB3LYP) =  -2359.42791375     A.U. after    9 cycles
 SCF Done:  E(UB3LYP) =  -2359.42791371     A.U. after    9 cycles
 SCF Done:  E(UB3LYP) =  -2359.42791367     A.U. after   11 cycles
 SCF Done:  E(UB3LYP) =  -2359.42791365     A.U. after    8 cycles
 Optimization completed.
    -- Stationary point found.

                         Standard orientation:
 ---------------------------------------------------------------------
 Center     Atomic      Atomic             Coordinates (Angstroms)
 Number     Number       Type             X           Y           Z
 ---------------------------------------------------------------------
      1          6           0       -3.134739   -2.840258    0.500441
      2          6           0       -2.574216   -1.505761    0.319301
      3          6           0       -3.417915   -0.412117    0.016154
      4          6           0       -4.815767   -0.586817   -0.120421
      5          6           0       -5.415759   -1.907225    0.051516
      6          6           0       -1.193399   -1.305524    0.459678
      7          6           0       -2.837360    0.889286   -0.156588
      8          6           0       -1.431040    1.068213   -0.018124
      9          6           0       -0.610698   -0.052377    0.314185
     10          6           0       -0.864223    2.397858   -0.246085
     11          6           0       -3.162538    3.314852   -0.664096
     12          6           0       -3.697708    1.973030   -0.467963
     13          6           0       -5.085877    1.768624   -0.595853
     14          6           0       -5.637047    0.515123   -0.425719
     15          1           0       -6.702413    0.349075   -0.523619
     16          1           0       -5.702269    2.626537   -0.833073
     17          1           0       -0.577867   -2.160884    0.707955
     18          7           0       -1.769524    3.438349   -0.543058
     19          7           0       -4.527960   -2.959956    0.352054
     20          8           0       -2.467775   -3.840939    0.770546
     21          8           0       -6.625127   -2.122717   -0.053543
     22          8           0       -3.861346    4.297416   -0.925248
     23          8           0        0.335833    2.668924   -0.200868
     24          6           0       -1.171268    4.756851   -0.757348
     25          1           0       -0.622771    5.067860    0.133687
     26          1           0       -0.462859    4.715406   -1.586619
     27          1           0       -1.976924    5.452163   -0.974100
     28          6           0       -5.079811   -4.302888    0.533673
     29          1           0       -4.626423   -4.991697   -0.181441
     30          1           0       -4.853807   -4.667187    1.537706
     31          1           0       -6.153447   -4.242423    0.381191
     32          6           0        0.853617    0.037799    0.535228
     33          6           0        1.520393    0.455445    1.654862
     34         16           0        1.959586   -0.553541   -0.669367
     35          6           0        2.928956    0.330111    1.537427
     36          1           0        1.008476    0.861705    2.514657
     37          6           0        3.363489   -0.204031    0.335198
     38          8           0        3.846453    0.669771    2.494676
     39          6           0        4.719536   -0.450982   -0.088404
     40          6           0        3.382901    1.414598    3.611719
     41          6           0        5.162238   -0.998082   -1.284141
     42         16           0        6.114900   -0.056793    0.910826
     43          1           0        4.267488    1.656389    4.200676
     44          1           0        2.889181    2.338624    3.293368
     45          1           0        2.691858    0.825274    4.224710
     46          6           0        6.577663   -1.095440   -1.400942
     47          8           0        4.247827   -1.391550   -2.221529
     48          6           0        7.222265   -0.623988   -0.291220
     49          1           0        7.092408   -1.495168   -2.263158
     50          6           0        4.733437   -1.889860   -3.455037
     51          1           0        8.284867   -0.579322   -0.109361
     52          1           0        5.324092   -2.803128   -3.314288
     53          1           0        3.852976   -2.121202   -4.053260
     54          1           0        5.340335   -1.141308   -3.978266
 ---------------------------------------------------------------------

 The electronic state is 2-A.
 Alpha  occ. eigenvalues --  -88.80109 -88.78233 -19.08660 -19.08161 -18.99289
 Alpha  occ. eigenvalues --  -18.99188 -18.99089 -18.98966 -14.26272 -14.26101
 Alpha  occ. eigenvalues --  -10.17788 -10.17582 -10.17557 -10.17553 -10.16419
 Alpha  occ. eigenvalues --  -10.15916 -10.15661 -10.15011 -10.13346 -10.12604
 Alpha  occ. eigenvalues --  -10.11841 -10.11827 -10.11028 -10.10368 -10.10226
 Alpha  occ. eigenvalues --  -10.10195 -10.10148 -10.09937 -10.09279 -10.08500
 Alpha  occ. eigenvalues --  -10.08493 -10.08476 -10.08469 -10.08193 -10.07900
 Alpha  occ. eigenvalues --  -10.07832  -7.88664  -7.86788  -5.84972  -5.84589
 Alpha  occ. eigenvalues --   -5.84233  -5.83111  -5.82718  -5.82334  -1.00246
 Alpha  occ. eigenvalues --   -0.99543  -0.95360  -0.95298  -0.93284  -0.93197
 Alpha  occ. eigenvalues --   -0.83502  -0.83291  -0.81280  -0.79701  -0.78624
 Alpha  occ. eigenvalues --   -0.74022  -0.71587  -0.69796  -0.68337  -0.66760
 Alpha  occ. eigenvalues --   -0.65995  -0.65472  -0.63890  -0.63396  -0.61974
 Alpha  occ. eigenvalues --   -0.60962  -0.60279  -0.58562  -0.54869  -0.53916
 Alpha  occ. eigenvalues --   -0.53383  -0.52219  -0.51599  -0.49838  -0.48145
 Alpha  occ. eigenvalues --   -0.47520  -0.45921  -0.45782  -0.45135  -0.42942
 Alpha  occ. eigenvalues --   -0.41678  -0.40898  -0.40864  -0.40090  -0.39961
 Alpha  occ. eigenvalues --   -0.39249  -0.38140  -0.37979  -0.37818  -0.37501
 Alpha  occ. eigenvalues --   -0.36935  -0.36533  -0.36490  -0.34948  -0.34501
 Alpha  occ. eigenvalues --   -0.34116  -0.33714  -0.33366  -0.32967  -0.32548
 Alpha  occ. eigenvalues --   -0.32335  -0.32257  -0.31587  -0.30450  -0.30196
 Alpha  occ. eigenvalues --   -0.30135  -0.30040  -0.29805  -0.29404  -0.29148
 Alpha  occ. eigenvalues --   -0.29095  -0.28776  -0.27796  -0.27155  -0.27047
 Alpha  occ. eigenvalues --   -0.25988  -0.25637  -0.24825  -0.24236  -0.24131
 Alpha  occ. eigenvalues --   -0.22812  -0.19897  -0.19534  -0.18376  -0.17776
 Alpha  occ. eigenvalues --   -0.17622  -0.17104  -0.16738  -0.16262  -0.16047
 Alpha  occ. eigenvalues --   -0.15551  -0.14823  -0.13852  -0.10246  -0.05097
 Alpha virt. eigenvalues --    0.03618   0.04660   0.05740   0.06633   0.06781
 Alpha virt. eigenvalues --    0.07292   0.07475   0.08449   0.08649   0.08982
 Alpha virt. eigenvalues --    0.09144   0.09473   0.09790   0.10265   0.10649

  Beta  occ. eigenvalues --  -88.80109 -88.78229 -19.08659 -19.08161 -18.99095
  Beta  occ. eigenvalues --  -18.98981 -18.98895 -18.98742 -14.26324 -14.26155
  Beta  occ. eigenvalues --  -10.17738 -10.17538 -10.17509 -10.17507 -10.16419
  Beta  occ. eigenvalues --  -10.15913 -10.15661 -10.15013 -10.13347 -10.12601
  Beta  occ. eigenvalues --  -10.11839 -10.11833 -10.11029 -10.10368 -10.10206
  Beta  occ. eigenvalues --  -10.10194 -10.10120 -10.09994 -10.09090 -10.08456
  Beta  occ. eigenvalues --  -10.08338 -10.08312 -10.08308 -10.08135 -10.07813
  Beta  occ. eigenvalues --  -10.07749  -7.88663  -7.86783  -5.84972  -5.84589
  Beta  occ. eigenvalues --   -5.84233  -5.83105  -5.82712  -5.82331  -1.00244
  Beta  occ. eigenvalues --   -0.99543  -0.95112  -0.95042  -0.92942  -0.92845
  Beta  occ. eigenvalues --   -0.83379  -0.83171  -0.81270  -0.79596  -0.78530
  Beta  occ. eigenvalues --   -0.73699  -0.71273  -0.69723  -0.68307  -0.66682
  Beta  occ. eigenvalues --   -0.65865  -0.65043  -0.63833  -0.63339  -0.61959
  Beta  occ. eigenvalues --   -0.60909  -0.60045  -0.58258  -0.54723  -0.53711
  Beta  occ. eigenvalues --   -0.53291  -0.52036  -0.51580  -0.49789  -0.48134
  Beta  occ. eigenvalues --   -0.47457  -0.45916  -0.45655  -0.45007  -0.42778
  Beta  occ. eigenvalues --   -0.41560  -0.40888  -0.40848  -0.40088  -0.39943
  Beta  occ. eigenvalues --   -0.39084  -0.37935  -0.37897  -0.37626  -0.37483
  Beta  occ. eigenvalues --   -0.36841  -0.36448  -0.36399  -0.34882  -0.34362
  Beta  occ. eigenvalues --   -0.34004  -0.33623  -0.33299  -0.32946  -0.32383
  Beta  occ. eigenvalues --   -0.32112  -0.31948  -0.31480  -0.30085  -0.30036
  Beta  occ. eigenvalues --   -0.30016  -0.29755  -0.29652  -0.29068  -0.28909
  Beta  occ. eigenvalues --   -0.28627  -0.28156  -0.27774  -0.26946  -0.26738
  Beta  occ. eigenvalues --   -0.25981  -0.25614  -0.24760  -0.24137  -0.24117
  Beta  occ. eigenvalues --   -0.21882  -0.19812  -0.18513  -0.18185  -0.17453
  Beta  occ. eigenvalues --   -0.17066  -0.16725  -0.16643  -0.15867  -0.15679
  Beta  occ. eigenvalues --   -0.15358  -0.14724  -0.12261  -0.10203
  Beta virt. eigenvalues --   -0.00480   0.03666   0.05741   0.05829   0.06764
  Beta virt. eigenvalues --    0.07177   0.07315   0.08264   0.08504   0.08698
  Beta virt. eigenvalues --    0.08987   0.09153   0.09476   0.09796   0.10271

 Mulliken charges and spin densities:
               1          2
     1  C    0.360399   0.016217
     2  C   -0.024700   0.133817
     3  C    0.167128  -0.040718
     4  C    0.172552   0.114335
     5  C    0.216380   0.017296
     6  C   -0.731763   0.048093
     7  C    0.196318  -0.037121
     8  C    0.068306   0.141473
     9  C    0.651646   0.074245
    10  C   -0.450203   0.018795
    11  C    0.201700   0.019419
    12  C    0.184714   0.115369
    13  C   -0.544478   0.060929
    14  C   -0.623472   0.066483
    15  H    0.129728  -0.004723
    16  H    0.131058  -0.004396
    17  H    0.139217  -0.003135
    18  N   -0.165125  -0.021058
    19  N   -0.147317  -0.020825
    20  O   -0.353191   0.077541
    21  O   -0.349589   0.072609
    22  O   -0.348495   0.072688
    23  O   -0.170198   0.084187
    24  C   -0.205335   0.001335
    25  H    0.152845  -0.000963
    26  H    0.156858  -0.001000
    27  H    0.170685  -0.000372
    28  C   -0.190598   0.001406
    29  H    0.153278  -0.000929
    30  H    0.152765  -0.000967
    31  H    0.169304  -0.000364
    32  C    0.239368  -0.023605
    33  C   -0.661355   0.008701
    34  S   -0.205551   0.004980
    35  C   -0.433786  -0.001475
    36  H    0.100193  -0.000657
    37  C    0.392766   0.012124
    38  O   -0.131786  -0.000174
    39  C    0.966523  -0.001665
    40  C   -0.244014   0.000578
    41  C    0.056895   0.000485
    42  S   -0.287408   0.000394
    43  H    0.147267  -0.000011
    44  H    0.157184   0.000072
    45  H    0.137031  -0.000033
    46  C   -0.491621  -0.001717
    47  O   -0.131992   0.000656
    48  C   -0.320182   0.001617
    49  H    0.115678   0.000036
    50  C   -0.240357   0.000078
    51  H    0.140441  -0.000100
    52  H    0.128631   0.000012
    53  H    0.161129   0.000014
    54  H    0.134529   0.000025
 Sum of Mulliken charges =  -1.00000   1.00000

 Dipole moment (field-independent basis, Debye):
    X=             11.4329    Y=             -0.3584    Z=              0.3668  Tot=             11.4444
 Quadrupole moment (field-independent basis, Debye-Ang):
   XX=           -318.1825   YY=           -272.1707   ZZ=           -212.6498
   XY=             -1.7402   XZ=            -11.1032   YZ=             17.6792

 Normal termination of Gaussian 16 at Tue Oct  5 16:57:44 2021.
