 Gaussian 16, Revision C.01,
 Gaussian 16:  ES64L-G16RevC.01  3-Jul-2019

 -------------------------------------
 # opt=modredundant b3lyp/6-311+g(d,p)
 -------------------------------------

 ----------
 NDI_60.pdb
 ----------
 Symbolic Z-matrix:
 Charge = -1 Multiplicity = 2

 SCF Done:  E(UB3LYP) =  -2359.42050408     A.U. after   23 cycles
 SCF Done:  E(UB3LYP) =  -2359.42670255     A.U. after   19 cycles
 SCF Done:  E(UB3LYP) =  -2359.42784395     A.U. after   20 cycles
 SCF Done:  E(UB3LYP) =  -2359.42806416     A.U. after   17 cycles
 SCF Done:  E(UB3LYP) =  -2359.42827372     A.U. after   16 cycles
 SCF Done:  E(UB3LYP) =  -2359.42840272     A.U. after   17 cycles
 SCF Done:  E(UB3LYP) =  -2359.42848229     A.U. after   17 cycles
 SCF Done:  E(UB3LYP) =  -2359.42854709     A.U. after   16 cycles
 SCF Done:  E(UB3LYP) =  -2359.42858329     A.U. after   15 cycles
 SCF Done:  E(UB3LYP) =  -2359.42859886     A.U. after   15 cycles
 SCF Done:  E(UB3LYP) =  -2359.42870108     A.U. after   14 cycles
 SCF Done:  E(UB3LYP) =  -2359.42870130     A.U. after   14 cycles
 SCF Done:  E(UB3LYP) =  -2359.42870138     A.U. after   10 cycles
 SCF Done:  E(UB3LYP) =  -2359.42870145     A.U. after   10 cycles
 SCF Done:  E(UB3LYP) =  -2359.42870154     A.U. after   11 cycles
 SCF Done:  E(UB3LYP) =  -2359.42870165     A.U. after   11 cycles
 SCF Done:  E(UB3LYP) =  -2359.42870176     A.U. after   11 cycles
 SCF Done:  E(UB3LYP) =  -2359.42870188     A.U. after   11 cycles
 SCF Done:  E(UB3LYP) =  -2359.42870196     A.U. after   11 cycles
 SCF Done:  E(UB3LYP) =  -2359.42870199     A.U. after   11 cycles
 Optimization completed.
    -- Stationary point found.

                         Standard orientation:
 ---------------------------------------------------------------------
 Center     Atomic      Atomic             Coordinates (Angstroms)
 Number     Number       Type             X           Y           Z
 ---------------------------------------------------------------------
      1          6           0       -2.861518   -2.901170    0.583099
      2          6           0       -2.424613   -1.531037    0.335118
      3          6           0       -3.372253   -0.514748    0.071648
      4          6           0       -4.756840   -0.802982    0.041828
      5          6           0       -5.235320   -2.162032    0.286315
      6          6           0       -1.061395   -1.217963    0.387384
      7          6           0       -2.908505    0.821555   -0.174110
      8          6           0       -1.512968    1.115234   -0.143783
      9          6           0       -0.584514    0.074503    0.181965
     10          6           0       -1.077211    2.464195   -0.509411
     11          6           0       -3.468881    3.192365   -0.734698
     12          6           0       -3.875512    1.821177   -0.453275
     13          6           0       -5.248359    1.505936   -0.471169
     14          6           0       -5.684861    0.220012   -0.227911
     15          1           0       -6.737611   -0.032021   -0.242748
     16          1           0       -5.945733    2.305844   -0.685666
     17          1           0       -0.371336   -2.013722    0.636837
     18          7           0       -2.085798    3.422279   -0.752644
     19          7           0       -4.247512   -3.134053    0.540606
     20          8           0       -2.098661   -3.838897    0.821973
     21          8           0       -6.427910   -2.473179    0.276429
     22          8           0       -4.263977    4.108813   -0.958442
     23          8           0        0.094672    2.823854   -0.627477
     24          6           0       -1.614703    4.766400   -1.089801
     25          1           0       -0.988353    5.155515   -0.285097
     26          1           0       -1.008981    4.734693   -1.997305
     27          1           0       -2.489125    5.394251   -1.233755
     28          6           0       -4.675489   -4.511048    0.789259
     29          1           0       -4.220317   -5.180314    0.056965
     30          1           0       -4.350105   -4.830215    1.781281
     31          1           0       -5.758629   -4.539247    0.714467
     32          6           0        0.868233    0.279267    0.352444
     33          6           0        1.531174    1.082663    1.243743
     34         16           0        1.990012   -0.701506   -0.552650
     35          6           0        2.937136    0.928433    1.190027
     36          1           0        1.015751    1.775347    1.891145
     37          6           0        3.383954   -0.006461    0.267518
     38          8           0        3.846374    1.599093    1.962077
     39          6           0        4.742913   -0.382874   -0.028014
     40          6           0        3.375334    2.714562    2.706376
     41          6           0        5.196571   -1.325636   -0.940148
     42         16           0        6.129696    0.350932    0.772482
     43          1           0        4.256892    3.168444    3.158813
     44          1           0        2.877959    3.441187    2.056070
     45          1           0        2.684810    2.401809    3.497544
     46          6           0        6.612443   -1.459205   -0.996765
     47          8           0        4.291274   -2.019143   -1.694315
     48          6           0        7.247231   -0.616898   -0.126676
     49          1           0        7.134470   -2.144615   -1.649400
     50          6           0        4.774262   -3.070486   -2.511674
     51          1           0        8.307979   -0.509845    0.039288
     52          1           0        5.296045   -3.830629   -1.918300
     53          1           0        3.896472   -3.516670   -2.977460
     54          1           0        5.445607   -2.695112   -3.293457
 ---------------------------------------------------------------------

 The electronic state is 2-A.
 Alpha  occ. eigenvalues --  -88.80113 -88.78284 -19.08657 -19.08084 -18.99396
 Alpha  occ. eigenvalues --  -18.99277 -18.99110 -18.98924 -14.26351 -14.26125
 Alpha  occ. eigenvalues --  -10.17894 -10.17639 -10.17638 -10.17571 -10.16388
 Alpha  occ. eigenvalues --  -10.15925 -10.15510 -10.14989 -10.13366 -10.12616
 Alpha  occ. eigenvalues --  -10.11907 -10.11764 -10.11032 -10.10438 -10.10374
 Alpha  occ. eigenvalues --  -10.10254 -10.10216 -10.09947 -10.09303 -10.08578
 Alpha  occ. eigenvalues --  -10.08532 -10.08504 -10.08400 -10.08221 -10.07924
 Alpha  occ. eigenvalues --  -10.07861  -7.88667  -7.86841  -5.84975  -5.84593
 Alpha  occ. eigenvalues --   -5.84236  -5.83161  -5.82770  -5.82391  -1.00242
 Alpha  occ. eigenvalues --   -0.99464  -0.95464  -0.95327  -0.93391  -0.93212
 Alpha  occ. eigenvalues --   -0.83589  -0.83308  -0.81291  -0.79720  -0.78636
 Alpha  occ. eigenvalues --   -0.74053  -0.71619  -0.69805  -0.68335  -0.66813
 Alpha  occ. eigenvalues --   -0.65914  -0.65535  -0.63904  -0.63444  -0.61963
 Alpha  occ. eigenvalues --   -0.61010  -0.60321  -0.58516  -0.54955  -0.53949
 Alpha  occ. eigenvalues --   -0.53450  -0.52282  -0.51562  -0.49850  -0.48137
 Alpha  occ. eigenvalues --   -0.47479  -0.45894  -0.45807  -0.45174  -0.43014
 Alpha  occ. eigenvalues --   -0.41777  -0.40895  -0.40802  -0.39981  -0.39841
 Alpha  occ. eigenvalues --   -0.39280  -0.38197  -0.37964  -0.37859  -0.37498
 Alpha  occ. eigenvalues --   -0.36964  -0.36571  -0.36533  -0.34983  -0.34395
 Alpha  occ. eigenvalues --   -0.34148  -0.33750  -0.33337  -0.32944  -0.32605
 Alpha  occ. eigenvalues --   -0.32450  -0.32251  -0.31521  -0.30506  -0.30365
 Alpha  occ. eigenvalues --   -0.30196  -0.29963  -0.29843  -0.29457  -0.29230
 Alpha  occ. eigenvalues --   -0.29145  -0.28747  -0.27796  -0.27250  -0.27045
 Alpha  occ. eigenvalues --   -0.26042  -0.25599  -0.24926  -0.24312  -0.24080
 Alpha  occ. eigenvalues --   -0.22881  -0.20087  -0.19481  -0.18459  -0.17845
 Alpha  occ. eigenvalues --   -0.17686  -0.17150  -0.16873  -0.16234  -0.16068
 Alpha  occ. eigenvalues --   -0.15752  -0.14607  -0.13886  -0.10227  -0.05113
 Alpha virt. eigenvalues --    0.03319   0.04683   0.05762   0.06476   0.06818
 Alpha virt. eigenvalues --    0.07343   0.07447   0.08595   0.08936   0.09004
 Alpha virt. eigenvalues --    0.09162   0.09470   0.09897   0.10209   0.10665

  Beta  occ. eigenvalues --  -88.80112 -88.78279 -19.08653 -19.08087 -18.99208
  Beta  occ. eigenvalues --  -18.99073 -18.98922 -18.98709 -14.26402 -14.26178
  Beta  occ. eigenvalues --  -10.17846 -10.17595 -10.17590 -10.17524 -10.16388
  Beta  occ. eigenvalues --  -10.15912 -10.15510 -10.15003 -10.13375 -10.12603
  Beta  occ. eigenvalues --  -10.11876 -10.11790 -10.11037 -10.10437 -10.10272
  Beta  occ. eigenvalues --  -10.10262 -10.10253 -10.10003 -10.09119 -10.08421
  Beta  occ. eigenvalues --  -10.08368 -10.08350 -10.08343 -10.08171 -10.07840
  Beta  occ. eigenvalues --  -10.07779  -7.88666  -7.86835  -5.84975  -5.84592
  Beta  occ. eigenvalues --   -5.84233  -5.83156  -5.82766  -5.82380  -1.00231
  Beta  occ. eigenvalues --   -0.99470  -0.95222  -0.95078  -0.93057  -0.92871
  Beta  occ. eigenvalues --   -0.83470  -0.83191  -0.81273  -0.79615  -0.78540
  Beta  occ. eigenvalues --   -0.73736  -0.71311  -0.69724  -0.68298  -0.66728
  Beta  occ. eigenvalues --   -0.65796  -0.65123  -0.63830  -0.63387  -0.61938
  Beta  occ. eigenvalues --   -0.60959  -0.60080  -0.58228  -0.54811  -0.53747
  Beta  occ. eigenvalues --   -0.53361  -0.52099  -0.51537  -0.49803  -0.48121
  Beta  occ. eigenvalues --   -0.47415  -0.45879  -0.45685  -0.45050  -0.42854
  Beta  occ. eigenvalues --   -0.41667  -0.40879  -0.40777  -0.39982  -0.39821
  Beta  occ. eigenvalues --   -0.39117  -0.37963  -0.37915  -0.37671  -0.37476
  Beta  occ. eigenvalues --   -0.36869  -0.36512  -0.36420  -0.34907  -0.34271
  Beta  occ. eigenvalues --   -0.34037  -0.33649  -0.33280  -0.32902  -0.32440
  Beta  occ. eigenvalues --   -0.32219  -0.31954  -0.31421  -0.30183  -0.30135
  Beta  occ. eigenvalues --   -0.30070  -0.29758  -0.29642  -0.29108  -0.28968
  Beta  occ. eigenvalues --   -0.28667  -0.28230  -0.27758  -0.27025  -0.26767
  Beta  occ. eigenvalues --   -0.26005  -0.25572  -0.24848  -0.24209  -0.24050
  Beta  occ. eigenvalues --   -0.22066  -0.19854  -0.18533  -0.18271  -0.17524
  Beta  occ. eigenvalues --   -0.17174  -0.16782  -0.16702  -0.15979  -0.15687
  Beta  occ. eigenvalues --   -0.15505  -0.14472  -0.12388  -0.10039
  Beta virt. eigenvalues --   -0.00633   0.03507   0.05757   0.05772   0.06817
  Beta virt. eigenvalues --    0.06938   0.07367   0.08201   0.08604   0.09011
  Beta virt. eigenvalues --    0.09115   0.09171   0.09477   0.09906   0.10215

 Mulliken charges and spin densities:
               1          2
     1  C    0.352005   0.015945
     2  C   -0.159461   0.133799
     3  C    0.100812  -0.040709
     4  C    0.201789   0.109828
     5  C    0.197681   0.017360
     6  C   -0.788154   0.042785
     7  C    0.191799  -0.034770
     8  C    0.159515   0.136724
     9  C    0.662614   0.074437
    10  C   -0.409798   0.020687
    11  C    0.271763   0.020083
    12  C    0.127365   0.108552
    13  C   -0.532445   0.061631
    14  C   -0.618707   0.063879
    15  H    0.129917  -0.004540
    16  H    0.131627  -0.004357
    17  H    0.155262  -0.002694
    18  N   -0.147383  -0.020787
    19  N   -0.144451  -0.020386
    20  O   -0.354536   0.076653
    21  O   -0.347317   0.070295
    22  O   -0.350733   0.070723
    23  O   -0.215144   0.080699
    24  C   -0.185912   0.001317
    25  H    0.151462  -0.000888
    26  H    0.157444  -0.001019
    27  H    0.170491  -0.000363
    28  C   -0.190366   0.001268
    29  H    0.153098  -0.000902
    30  H    0.153227  -0.000946
    31  H    0.169292  -0.000351
    32  C    0.140630  -0.028171
    33  C   -0.329074   0.019787
    34  S   -0.458333   0.009397
    35  C   -0.418591  -0.004976
    36  H    0.110779  -0.001776
    37  C    0.573924   0.025385
    38  O   -0.124734  -0.000634
    39  C    0.894365  -0.007987
    40  C   -0.250388   0.000376
    41  C   -0.030186   0.007887
    42  S   -0.273658   0.001023
    43  H    0.146561  -0.000003
    44  H    0.160616  -0.000014
    45  H    0.135870  -0.000087
    46  C   -0.479587  -0.004512
    47  O   -0.122860   0.001263
    48  C   -0.304316   0.009081
    49  H    0.115447   0.000182
    50  C   -0.244222   0.000138
    51  H    0.140632  -0.000563
    52  H    0.134662   0.000122
    53  H    0.161681   0.000017
    54  H    0.128026   0.000110
 Sum of Mulliken charges =  -1.00000   1.00000

 Dipole moment (field-independent basis, Debye):
    X=             11.3344    Y=             -0.3380    Z=              0.4609  Tot=             11.3488
 Quadrupole moment (field-independent basis, Debye-Ang):
   XX=           -317.9491   YY=           -262.6896   ZZ=           -222.0929
   XY=             -4.5429   XZ=             -7.0725   YZ=             21.4312

 Normal termination of Gaussian 16 at Wed Oct  6 00:20:44 2021.
