 Gaussian 16, Revision C.01,
 Gaussian 16:  ES64L-G16RevC.01  3-Jul-2019

 -------------------------------------
 # opt=modredundant b3lyp/6-311+g(d,p)
 -------------------------------------

 ------------
 NDI_-105.pdb
 ------------
 Symbolic Z-matrix:
 Charge = -1 Multiplicity = 2

 SCF Done:  E(UB3LYP) =  -2359.41891557     A.U. after   23 cycles
 SCF Done:  E(UB3LYP) =  -2359.42625707     A.U. after   21 cycles
 SCF Done:  E(UB3LYP) =  -2359.42737310     A.U. after   20 cycles
 SCF Done:  E(UB3LYP) =  -2359.42730587     A.U. after   16 cycles
 SCF Done:  E(UB3LYP) =  -2359.42774264     A.U. after   17 cycles
 SCF Done:  E(UB3LYP) =  -2359.42776350     A.U. after   17 cycles
 SCF Done:  E(UB3LYP) =  -2359.42778195     A.U. after   14 cycles
 SCF Done:  E(UB3LYP) =  -2359.42778556     A.U. after   12 cycles
 SCF Done:  E(UB3LYP) =  -2359.42778835     A.U. after   12 cycles
 SCF Done:  E(UB3LYP) =  -2359.42779314     A.U. after   12 cycles
 SCF Done:  E(UB3LYP) =  -2359.42782002     A.U. after   11 cycles
 SCF Done:  E(UB3LYP) =  -2359.42782234     A.U. after   12 cycles
 SCF Done:  E(UB3LYP) =  -2359.42782364     A.U. after   12 cycles
 SCF Done:  E(UB3LYP) =  -2359.42782477     A.U. after   12 cycles
 SCF Done:  E(UB3LYP) =  -2359.42782619     A.U. after   12 cycles
 SCF Done:  E(UB3LYP) =  -2359.42782744     A.U. after   12 cycles
 SCF Done:  E(UB3LYP) =  -2359.42782906     A.U. after   12 cycles
 SCF Done:  E(UB3LYP) =  -2359.42783014     A.U. after   12 cycles
 SCF Done:  E(UB3LYP) =  -2359.42783057     A.U. after   12 cycles
 SCF Done:  E(UB3LYP) =  -2359.42783068     A.U. after   11 cycles
 Optimization completed.
    -- Stationary point found.

                         Standard orientation:
 ---------------------------------------------------------------------
 Center     Atomic      Atomic             Coordinates (Angstroms)
 Number     Number       Type             X           Y           Z
 ---------------------------------------------------------------------
      1          6           0        3.375172   -2.787371   -0.172465
      2          6           0        2.704683   -1.501762   -0.015195
      3          6           0        3.441680   -0.297673   -0.098991
      4          6           0        4.835798   -0.311757   -0.342303
      5          6           0        5.542784   -1.578125   -0.513065
      6          6           0        1.320132   -1.460067    0.206027
      7          6           0        2.757160    0.951952    0.073789
      8          6           0        1.355532    0.968913    0.323100
      9          6           0        0.634841   -0.262126    0.366819
     10          6           0        0.701142    2.251458    0.580843
     11          6           0        2.869058    3.446544    0.175615
     12          6           0        3.511943    2.150045   -0.004054
     13          6           0        4.898118    2.104505   -0.252176
     14          6           0        5.549755    0.899433   -0.418453
     15          1           0        6.614981    0.855488   -0.607047
     16          1           0        5.432408    3.044693   -0.305601
     17          1           0        0.779578   -2.397639    0.233636
     18          7           0        1.493657    3.411373    0.454976
     19          7           0        4.759425   -2.746231   -0.416468
     20          8           0        2.805754   -3.878649   -0.103989
     21          8           0        6.754173   -1.656398   -0.728726
     22          8           0        3.468771    4.522032    0.101900
     23          8           0       -0.479630    2.384471    0.902109
     24          6           0        0.801806    4.680728    0.683648
     25          1           0       -0.062044    4.754788    0.021765
     26          1           0        0.439081    4.733287    1.712521
     27          1           0        1.509950    5.481155    0.490153
     28          6           0        5.421619   -4.041031   -0.577407
     29          1           0        5.299125   -4.638824    0.327929
     30          1           0        4.968476   -4.590672   -1.404386
     31          1           0        6.473426   -3.852434   -0.771683
     32          6           0       -0.832881   -0.354562    0.560463
     33          6           0       -1.502699   -0.731710    1.692926
     34         16           0       -1.930973   -0.110426   -0.766633
     35          6           0       -2.910264   -0.790261    1.508727
     36          1           0       -0.994254   -0.928753    2.625292
     37          6           0       -3.336539   -0.480478    0.228474
     38          8           0       -3.831440   -1.124337    2.464430
     39          6           0       -4.688935   -0.440861   -0.271373
     40          6           0       -3.365228   -1.301210    3.793648
     41          6           0       -5.123814   -0.146382   -1.555102
     42         16           0       -6.089225   -0.766712    0.745772
     43          1           0       -4.248487   -1.508620    4.397427
     44          1           0       -2.672341   -2.147019    3.864121
     45          1           0       -2.872750   -0.396081    4.164853
     46          6           0       -6.537800   -0.169126   -1.719781
     47          8           0       -4.205649    0.109764   -2.535795
     48          6           0       -7.188805   -0.486918   -0.560772
     49          1           0       -7.045792    0.037616   -2.651258
     50          6           0       -4.668878    0.701740   -3.737347
     51          1           0       -8.251836   -0.576481   -0.398887
     52          1           0       -5.208750    1.634905   -3.539196
     53          1           0       -3.780123    0.916378   -4.329694
     54          1           0       -5.317162    0.017992   -4.298721
 ---------------------------------------------------------------------

 The electronic state is 2-A.
 Alpha  occ. eigenvalues --  -88.80122 -88.78086 -19.08558 -19.08257 -18.99274
 Alpha  occ. eigenvalues --  -18.99185 -18.99070 -18.98970 -14.26264 -14.26068
 Alpha  occ. eigenvalues --  -10.17773 -10.17546 -10.17542 -10.17539 -10.16330
 Alpha  occ. eigenvalues --  -10.15873 -10.15780 -10.15065 -10.13371 -10.12629
 Alpha  occ. eigenvalues --  -10.11874 -10.11862 -10.11019 -10.10365 -10.10180
 Alpha  occ. eigenvalues --  -10.10154 -10.10115 -10.09923 -10.09229 -10.08578
 Alpha  occ. eigenvalues --  -10.08483 -10.08480 -10.08461 -10.08190 -10.07891
 Alpha  occ. eigenvalues --  -10.07823  -7.88678  -7.86644  -5.84986  -5.84604
 Alpha  occ. eigenvalues --   -5.84247  -5.82971  -5.82578  -5.82183  -1.00136
 Alpha  occ. eigenvalues --   -0.99641  -0.95344  -0.95278  -0.93268  -0.93184
 Alpha  occ. eigenvalues --   -0.83490  -0.83277  -0.81277  -0.79688  -0.78611
 Alpha  occ. eigenvalues --   -0.74018  -0.71574  -0.69800  -0.68296  -0.66736
 Alpha  occ. eigenvalues --   -0.66079  -0.65433  -0.63870  -0.63375  -0.61959
 Alpha  occ. eigenvalues --   -0.60946  -0.60264  -0.58592  -0.54830  -0.53918
 Alpha  occ. eigenvalues --   -0.53356  -0.52232  -0.51595  -0.49834  -0.48076
 Alpha  occ. eigenvalues --   -0.47564  -0.45950  -0.45776  -0.45117  -0.42920
 Alpha  occ. eigenvalues --   -0.41726  -0.40873  -0.40701  -0.40174  -0.40016
 Alpha  occ. eigenvalues --   -0.39236  -0.38132  -0.38008  -0.37800  -0.37504
 Alpha  occ. eigenvalues --   -0.36917  -0.36543  -0.36452  -0.35042  -0.34461
 Alpha  occ. eigenvalues --   -0.34117  -0.33686  -0.33420  -0.32914  -0.32533
 Alpha  occ. eigenvalues --   -0.32333  -0.32227  -0.31611  -0.30429  -0.30217
 Alpha  occ. eigenvalues --   -0.30109  -0.30011  -0.29826  -0.29440  -0.29136
 Alpha  occ. eigenvalues --   -0.28993  -0.28767  -0.27808  -0.27176  -0.27013
 Alpha  occ. eigenvalues --   -0.25963  -0.25609  -0.24529  -0.24413  -0.24210
 Alpha  occ. eigenvalues --   -0.22695  -0.19866  -0.19529  -0.18371  -0.17773
 Alpha  occ. eigenvalues --   -0.17587  -0.17079  -0.16698  -0.16261  -0.16051
 Alpha  occ. eigenvalues --   -0.15483  -0.14919  -0.13833  -0.10295  -0.05085
 Alpha virt. eigenvalues --    0.03618   0.04635   0.05783   0.06661   0.06815
 Alpha virt. eigenvalues --    0.07274   0.07483   0.08387   0.08638   0.09003
 Alpha virt. eigenvalues --    0.09103   0.09460   0.09857   0.10380   0.10523

  Beta  occ. eigenvalues --  -88.80122 -88.78080 -19.08557 -19.08257 -18.99079
  Beta  occ. eigenvalues --  -18.98977 -18.98877 -18.98744 -14.26317 -14.26121
  Beta  occ. eigenvalues --  -10.17723 -10.17499 -10.17497 -10.17494 -10.16330
  Beta  occ. eigenvalues --  -10.15872 -10.15780 -10.15064 -10.13371 -10.12628
  Beta  occ. eigenvalues --  -10.11883 -10.11860 -10.11020 -10.10364 -10.10174
  Beta  occ. eigenvalues --  -10.10153 -10.10076 -10.09979 -10.09038 -10.08569
  Beta  occ. eigenvalues --  -10.08321 -10.08299 -10.08291 -10.08130 -10.07803
  Beta  occ. eigenvalues --  -10.07740  -7.88677  -7.86638  -5.84986  -5.84603
  Beta  occ. eigenvalues --   -5.84246  -5.82962  -5.82570  -5.82177  -1.00135
  Beta  occ. eigenvalues --   -0.99641  -0.95095  -0.95021  -0.92925  -0.92831
  Beta  occ. eigenvalues --   -0.83367  -0.83157  -0.81269  -0.79582  -0.78517
  Beta  occ. eigenvalues --   -0.73694  -0.71259  -0.69726  -0.68271  -0.66665
  Beta  occ. eigenvalues --   -0.65940  -0.64997  -0.63821  -0.63320  -0.61945
  Beta  occ. eigenvalues --   -0.60893  -0.60036  -0.58281  -0.54683  -0.53719
  Beta  occ. eigenvalues --   -0.53255  -0.52076  -0.51558  -0.49781  -0.48065
  Beta  occ. eigenvalues --   -0.47502  -0.45944  -0.45648  -0.44989  -0.42756
  Beta  occ. eigenvalues --   -0.41617  -0.40859  -0.40678  -0.40173  -0.39996
  Beta  occ. eigenvalues --   -0.39074  -0.37965  -0.37887  -0.37610  -0.37483
  Beta  occ. eigenvalues --   -0.36826  -0.36418  -0.36400  -0.34969  -0.34324
  Beta  occ. eigenvalues --   -0.34012  -0.33597  -0.33349  -0.32890  -0.32370
  Beta  occ. eigenvalues --   -0.32097  -0.31941  -0.31493  -0.30112  -0.30051
  Beta  occ. eigenvalues --   -0.30007  -0.29729  -0.29635  -0.29032  -0.28894
  Beta  occ. eigenvalues --   -0.28612  -0.28121  -0.27783  -0.26947  -0.26723
  Beta  occ. eigenvalues --   -0.25947  -0.25588  -0.24493  -0.24331  -0.24113
  Beta  occ. eigenvalues --   -0.21787  -0.19810  -0.18493  -0.18178  -0.17440
  Beta  occ. eigenvalues --   -0.17042  -0.16703  -0.16639  -0.15860  -0.15627
  Beta  occ. eigenvalues --   -0.15289  -0.14846  -0.12234  -0.10262
  Beta virt. eigenvalues --   -0.00451   0.03643   0.05780   0.05827   0.06742
  Beta virt. eigenvalues --    0.07192   0.07348   0.08323   0.08425   0.08661
  Beta virt. eigenvalues --    0.09009   0.09113   0.09464   0.09866   0.10383

 Mulliken charges and spin densities:
               1          2
     1  C    0.359417   0.016770
     2  C    0.000874   0.136005
     3  C    0.133265  -0.042637
     4  C    0.231667   0.114154
     5  C    0.199685   0.018216
     6  C   -0.735242   0.043927
     7  C    0.187066  -0.037763
     8  C   -0.088324   0.144649
     9  C    0.462254   0.076881
    10  C   -0.284566   0.016295
    11  C    0.225104   0.019811
    12  C    0.234921   0.118498
    13  C   -0.560865   0.058412
    14  C   -0.641675   0.067492
    15  H    0.129961  -0.004795
    16  H    0.131435  -0.004336
    17  H    0.135776  -0.003173
    18  N   -0.144187  -0.020791
    19  N   -0.145531  -0.020953
    20  O   -0.353502   0.077608
    21  O   -0.350245   0.072828
    22  O   -0.348959   0.072585
    23  O   -0.211098   0.084716
    24  C   -0.201782   0.001304
    25  H    0.158409  -0.000875
    26  H    0.153232  -0.001074
    27  H    0.170075  -0.000377
    28  C   -0.192066   0.001391
    29  H    0.151960  -0.000963
    30  H    0.153613  -0.000951
    31  H    0.169173  -0.000368
    32  C    0.412993  -0.034931
    33  C   -0.694823   0.026444
    34  S   -0.250876   0.012862
    35  C   -0.257122  -0.007383
    36  H    0.103716  -0.000014
    37  C    0.316240  -0.009369
    38  O   -0.124937  -0.000077
    39  C    0.912987   0.004502
    40  C   -0.250510   0.000935
    41  C   -0.000387   0.003313
    42  S   -0.277932   0.000139
    43  H    0.148391  -0.000013
    44  H    0.140459  -0.000001
    45  H    0.152176   0.000023
    46  C   -0.415057   0.000666
    47  O   -0.134487  -0.000256
    48  C   -0.331666   0.000549
    49  H    0.114014   0.000008
    50  C   -0.256896   0.000121
    51  H    0.140639  -0.000024
    52  H    0.140402   0.000004
    53  H    0.158844   0.000004
    54  H    0.123984   0.000013
 Sum of Mulliken charges =  -1.00000   1.00000

 Dipole moment (field-independent basis, Debye):
    X=            -11.4349    Y=             -0.5526    Z=              0.2557  Tot=             11.4511
 Quadrupole moment (field-independent basis, Debye-Ang):
   XX=           -317.1423   YY=           -276.0707   ZZ=           -209.7112
   XY=             -4.8752   XZ=             12.5367   YZ=             -8.8651

 Normal termination of Gaussian 16 at Tue Oct  5 12:42:42 2021.
