 Gaussian 16, Revision C.01,
 Gaussian 16:  ES64L-G16RevC.01  3-Jul-2019

 -------------------------------------
 # opt=modredundant b3lyp/6-311+g(d,p)
 -------------------------------------

 -----------
 NDI_-80.pdb
 -----------
 Symbolic Z-matrix:
 Charge = -1 Multiplicity = 2

 SCF Done:  E(UB3LYP) =  -2359.42044112     A.U. after   23 cycles
 SCF Done:  E(UB3LYP) =  -2359.42691916     A.U. after   20 cycles
 SCF Done:  E(UB3LYP) =  -2359.42762896     A.U. after   17 cycles
 SCF Done:  E(UB3LYP) =  -2359.42755267     A.U. after   17 cycles
 SCF Done:  E(UB3LYP) =  -2359.42783752     A.U. after   16 cycles
 SCF Done:  E(UB3LYP) =  -2359.42784213     A.U. after   14 cycles
 SCF Done:  E(UB3LYP) =  -2359.42784598     A.U. after   12 cycles
 SCF Done:  E(UB3LYP) =  -2359.42784669     A.U. after   11 cycles
 SCF Done:  E(UB3LYP) =  -2359.42784738     A.U. after   10 cycles
 SCF Done:  E(UB3LYP) =  -2359.42784834     A.U. after   11 cycles
 SCF Done:  E(UB3LYP) =  -2359.42791335     A.U. after   12 cycles
 SCF Done:  E(UB3LYP) =  -2359.42791339     A.U. after   11 cycles
 SCF Done:  E(UB3LYP) =  -2359.42791344     A.U. after   11 cycles
 SCF Done:  E(UB3LYP) =  -2359.42791350     A.U. after   11 cycles
 SCF Done:  E(UB3LYP) =  -2359.42791353     A.U. after   11 cycles
 SCF Done:  E(UB3LYP) =  -2359.42791357     A.U. after   10 cycles
 SCF Done:  E(UB3LYP) =  -2359.42791358     A.U. after   11 cycles
 SCF Done:  E(UB3LYP) =  -2359.42791362     A.U. after   11 cycles
 SCF Done:  E(UB3LYP) =  -2359.42791363     A.U. after   10 cycles
 SCF Done:  E(UB3LYP) =  -2359.42791363     A.U. after    9 cycles
 Optimization completed.
    -- Stationary point found.

                         Standard orientation:
 ---------------------------------------------------------------------
 Center     Atomic      Atomic             Coordinates (Angstroms)
 Number     Number       Type             X           Y           Z
 ---------------------------------------------------------------------
      1          6           0        3.135991   -2.840017    0.499121
      2          6           0        2.574876   -1.505674    0.318536
      3          6           0        3.418072   -0.411541    0.015833
      4          6           0        4.815991   -0.585587   -0.120871
      5          6           0        5.416551   -1.905835    0.050454
      6          6           0        1.193984   -1.306105    0.459176
      7          6           0        2.836960    0.889683   -0.156263
      8          6           0        1.430569    1.067939   -0.017625
      9          6           0        0.610734   -0.053141    0.314295
     10          6           0        0.863170    2.397419   -0.245101
     11          6           0        3.161070    3.315603   -0.662706
     12          6           0        3.696833    1.973918   -0.467189
     13          6           0        5.085093    1.770182   -0.595208
     14          6           0        5.636808    0.516840   -0.425640
     15          1           0        6.702243    0.351241   -0.523602
     16          1           0        5.701078    2.628491   -0.832059
     17          1           0        0.578913   -2.161880    0.707173
     18          7           0        1.768010    3.438451   -0.541586
     19          7           0        4.529201   -2.959154    0.350212
     20          8           0        2.469475   -3.841028    0.769104
     21          8           0        6.626045   -2.120681   -0.054434
     22          8           0        3.859438    4.298560   -0.923589
     23          8           0       -0.337011    2.667910   -0.199834
     24          6           0        1.169167    4.756756   -0.755389
     25          1           0        0.460278    4.715117   -1.584234
     26          1           0        0.621084    5.067520    0.135999
     27          1           0        1.974459    5.452373   -0.972511
     28          6           0        5.081620   -4.301954    0.530969
     29          1           0        4.860496   -4.665101    1.536561
     30          1           0        4.624513   -4.991384   -0.181098
     31          1           0        6.154566   -4.241872    0.373539
     32          6           0       -0.853580    0.036375    0.535608
     33          6           0       -1.520302    0.453362    1.655539
     34         16           0       -1.959526   -0.555014   -0.668972
     35          6           0       -2.928852    0.327590    1.538270
     36          1           0       -1.008392    0.859511    2.515379
     37          6           0       -3.363391   -0.206206    0.335887
     38          8           0       -3.846352    0.666760    2.495664
     39          6           0       -4.719457   -0.452538   -0.088018
     40          6           0       -3.382501    1.409407    3.614020
     41          6           0       -5.162074   -0.999666   -1.283761
     42         16           0       -6.114928   -0.057002    0.910524
     43          1           0       -4.266993    1.650535    4.203392
     44          1           0       -2.691691    0.818703    4.225950
     45          1           0       -2.888411    2.333810    3.297326
     46          6           0       -6.577543   -1.095536   -1.401335
     47          8           0       -4.247550   -1.395838   -2.219934
     48          6           0       -7.222250   -0.623107   -0.292101
     49          1           0       -7.092215   -1.495035   -2.263702
     50          6           0       -4.732781   -1.877617   -3.460170
     51          1           0       -8.284904   -0.577289   -0.110812
     52          1           0       -5.333521   -1.119555   -3.976733
     53          1           0       -3.852109   -2.108099   -4.058424
     54          1           0       -5.329515   -2.788678   -3.331134
 ---------------------------------------------------------------------

 The electronic state is 2-A.
 Alpha  occ. eigenvalues --  -88.80109 -88.78234 -19.08658 -19.08162 -18.99289
 Alpha  occ. eigenvalues --  -18.99189 -18.99089 -18.98967 -14.26272 -14.26102
 Alpha  occ. eigenvalues --  -10.17788 -10.17583 -10.17557 -10.17553 -10.16417
 Alpha  occ. eigenvalues --  -10.15914 -10.15662 -10.15012 -10.13346 -10.12604
 Alpha  occ. eigenvalues --  -10.11841 -10.11828 -10.11027 -10.10369 -10.10226
 Alpha  occ. eigenvalues --  -10.10195 -10.10148 -10.09937 -10.09279 -10.08500
 Alpha  occ. eigenvalues --  -10.08493 -10.08477 -10.08470 -10.08193 -10.07900
 Alpha  occ. eigenvalues --  -10.07832  -7.88664  -7.86788  -5.84972  -5.84589
 Alpha  occ. eigenvalues --   -5.84233  -5.83112  -5.82718  -5.82334  -1.00243
 Alpha  occ. eigenvalues --   -0.99545  -0.95360  -0.95298  -0.93284  -0.93198
 Alpha  occ. eigenvalues --   -0.83502  -0.83292  -0.81280  -0.79701  -0.78625
 Alpha  occ. eigenvalues --   -0.74022  -0.71588  -0.69795  -0.68336  -0.66760
 Alpha  occ. eigenvalues --   -0.65995  -0.65472  -0.63890  -0.63396  -0.61974
 Alpha  occ. eigenvalues --   -0.60962  -0.60279  -0.58562  -0.54870  -0.53916
 Alpha  occ. eigenvalues --   -0.53383  -0.52219  -0.51599  -0.49838  -0.48143
 Alpha  occ. eigenvalues --   -0.47521  -0.45922  -0.45782  -0.45135  -0.42942
 Alpha  occ. eigenvalues --   -0.41678  -0.40902  -0.40857  -0.40091  -0.39960
 Alpha  occ. eigenvalues --   -0.39249  -0.38141  -0.37980  -0.37818  -0.37501
 Alpha  occ. eigenvalues --   -0.36936  -0.36533  -0.36491  -0.34948  -0.34501
 Alpha  occ. eigenvalues --   -0.34117  -0.33714  -0.33366  -0.32967  -0.32547
 Alpha  occ. eigenvalues --   -0.32336  -0.32257  -0.31586  -0.30450  -0.30194
 Alpha  occ. eigenvalues --   -0.30135  -0.30043  -0.29805  -0.29405  -0.29148
 Alpha  occ. eigenvalues --   -0.29096  -0.28775  -0.27796  -0.27155  -0.27047
 Alpha  occ. eigenvalues --   -0.25985  -0.25640  -0.24825  -0.24235  -0.24130
 Alpha  occ. eigenvalues --   -0.22812  -0.19897  -0.19534  -0.18376  -0.17776
 Alpha  occ. eigenvalues --   -0.17622  -0.17105  -0.16738  -0.16262  -0.16047
 Alpha  occ. eigenvalues --   -0.15551  -0.14823  -0.13852  -0.10246  -0.05097
 Alpha virt. eigenvalues --    0.03618   0.04660   0.05742   0.06634   0.06781
 Alpha virt. eigenvalues --    0.07292   0.07475   0.08446   0.08650   0.08982
 Alpha virt. eigenvalues --    0.09144   0.09472   0.09789   0.10269   0.10647

  Beta  occ. eigenvalues --  -88.80109 -88.78230 -19.08657 -19.08162 -18.99095
  Beta  occ. eigenvalues --  -18.98981 -18.98895 -18.98743 -14.26324 -14.26155
  Beta  occ. eigenvalues --  -10.17739 -10.17538 -10.17509 -10.17507 -10.16417
  Beta  occ. eigenvalues --  -10.15911 -10.15662 -10.15014 -10.13348 -10.12601
  Beta  occ. eigenvalues --  -10.11839 -10.11833 -10.11028 -10.10368 -10.10206
  Beta  occ. eigenvalues --  -10.10195 -10.10120 -10.09994 -10.09090 -10.08456
  Beta  occ. eigenvalues --  -10.08338 -10.08312 -10.08309 -10.08135 -10.07813
  Beta  occ. eigenvalues --  -10.07749  -7.88663  -7.86784  -5.84972  -5.84589
  Beta  occ. eigenvalues --   -5.84232  -5.83106  -5.82712  -5.82331  -1.00241
  Beta  occ. eigenvalues --   -0.99545  -0.95112  -0.95042  -0.92942  -0.92845
  Beta  occ. eigenvalues --   -0.83380  -0.83172  -0.81270  -0.79596  -0.78530
  Beta  occ. eigenvalues --   -0.73699  -0.71273  -0.69722  -0.68306  -0.66682
  Beta  occ. eigenvalues --   -0.65866  -0.65043  -0.63833  -0.63340  -0.61959
  Beta  occ. eigenvalues --   -0.60910  -0.60045  -0.58258  -0.54724  -0.53712
  Beta  occ. eigenvalues --   -0.53291  -0.52037  -0.51580  -0.49789  -0.48132
  Beta  occ. eigenvalues --   -0.47457  -0.45916  -0.45655  -0.45007  -0.42778
  Beta  occ. eigenvalues --   -0.41560  -0.40891  -0.40843  -0.40089  -0.39942
  Beta  occ. eigenvalues --   -0.39084  -0.37936  -0.37898  -0.37626  -0.37483
  Beta  occ. eigenvalues --   -0.36842  -0.36448  -0.36399  -0.34882  -0.34362
  Beta  occ. eigenvalues --   -0.34005  -0.33624  -0.33299  -0.32946  -0.32382
  Beta  occ. eigenvalues --   -0.32112  -0.31948  -0.31480  -0.30085  -0.30035
  Beta  occ. eigenvalues --   -0.30017  -0.29757  -0.29652  -0.29069  -0.28908
  Beta  occ. eigenvalues --   -0.28627  -0.28156  -0.27774  -0.26946  -0.26739
  Beta  occ. eigenvalues --   -0.25978  -0.25616  -0.24759  -0.24138  -0.24116
  Beta  occ. eigenvalues --   -0.21882  -0.19812  -0.18513  -0.18186  -0.17454
  Beta  occ. eigenvalues --   -0.17067  -0.16725  -0.16643  -0.15868  -0.15678
  Beta  occ. eigenvalues --   -0.15358  -0.14724  -0.12261  -0.10203
  Beta virt. eigenvalues --   -0.00481   0.03666   0.05742   0.05829   0.06764
  Beta virt. eigenvalues --    0.07178   0.07315   0.08264   0.08501   0.08699
  Beta virt. eigenvalues --    0.08987   0.09153   0.09475   0.09795   0.10275

 Mulliken charges and spin densities:
               1          2
     1  C    0.360257   0.016211
     2  C   -0.024471   0.133822
     3  C    0.167648  -0.040719
     4  C    0.172420   0.114348
     5  C    0.216472   0.017296
     6  C   -0.729190   0.048101
     7  C    0.196357  -0.037113
     8  C    0.068851   0.141466
     9  C    0.650091   0.074227
    10  C   -0.451303   0.018798
    11  C    0.201761   0.019430
    12  C    0.184279   0.115341
    13  C   -0.544121   0.060957
    14  C   -0.623589   0.066456
    15  H    0.129733  -0.004721
    16  H    0.131060  -0.004397
    17  H    0.139207  -0.003134
    18  N   -0.165107  -0.021059
    19  N   -0.147317  -0.020823
    20  O   -0.353180   0.077539
    21  O   -0.349597   0.072605
    22  O   -0.348505   0.072685
    23  O   -0.170254   0.084185
    24  C   -0.205238   0.001336
    25  H    0.156855  -0.001000
    26  H    0.152836  -0.000964
    27  H    0.170689  -0.000372
    28  C   -0.190626   0.001407
    29  H    0.152693  -0.000972
    30  H    0.153371  -0.000924
    31  H    0.169301  -0.000364
    32  C    0.237933  -0.023466
    33  C   -0.660598   0.008641
    34  S   -0.205789   0.004935
    35  C   -0.433569  -0.001508
    36  H    0.100241  -0.000657
    37  C    0.390514   0.012143
    38  O   -0.131797  -0.000173
    39  C    0.965556  -0.001670
    40  C   -0.243837   0.000576
    41  C    0.056438   0.000484
    42  S   -0.287291   0.000392
    43  H    0.147287  -0.000011
    44  H    0.137067  -0.000034
    45  H    0.157186   0.000072
    46  C   -0.487914  -0.001704
    47  O   -0.132121   0.000650
    48  C   -0.319995   0.001622
    49  H    0.115625   0.000036
    50  C   -0.241065   0.000076
    51  H    0.140443  -0.000100
    52  H    0.135031   0.000025
    53  H    0.161049   0.000013
    54  H    0.128226   0.000012
 Sum of Mulliken charges =  -1.00000   1.00000

 Dipole moment (field-independent basis, Debye):
    X=            -11.4314    Y=             -0.3451    Z=              0.3612  Tot=             11.4423
 Quadrupole moment (field-independent basis, Debye-Ang):
   XX=           -318.1884   YY=           -272.2491   ZZ=           -212.5864
   XY=              1.6519   XZ=             11.1175   YZ=             17.6136

 Normal termination of Gaussian 16 at Tue Oct  5 09:44:11 2021.
