 Gaussian 16, Revision C.01,
 Gaussian 16:  ES64L-G16RevC.01  3-Jul-2019

 -------------------------------------
 # opt=modredundant b3lyp/6-311+g(d,p)
 -------------------------------------

 -----------
 NDI_150.pdb
 -----------
 Symbolic Z-matrix:
 Charge = -1 Multiplicity = 2

 SCF Done:  E(UB3LYP) =  -2359.40048687     A.U. after   23 cycles
 SCF Done:  E(UB3LYP) =  -2359.41149065     A.U. after   23 cycles
 SCF Done:  E(UB3LYP) =  -2359.41807648     A.U. after   21 cycles
 SCF Done:  E(UB3LYP) =  -2359.42216335     A.U. after   21 cycles
 SCF Done:  E(UB3LYP) =  -2359.42424801     A.U. after   23 cycles
 SCF Done:  E(UB3LYP) =  -2359.42460045     A.U. after   22 cycles
 SCF Done:  E(UB3LYP) =  -2359.42519485     A.U. after   19 cycles
 SCF Done:  E(UB3LYP) =  -2359.42556186     A.U. after   20 cycles
 SCF Done:  E(UB3LYP) =  -2359.42595211     A.U. after   21 cycles
 SCF Done:  E(UB3LYP) =  -2359.42623978     A.U. after   18 cycles
 SCF Done:  E(UB3LYP) =  -2359.42673561     A.U. after   11 cycles
 SCF Done:  E(UB3LYP) =  -2359.42673589     A.U. after    9 cycles
 SCF Done:  E(UB3LYP) =  -2359.42673635     A.U. after   12 cycles
 SCF Done:  E(UB3LYP) =  -2359.42673663     A.U. after   12 cycles
 SCF Done:  E(UB3LYP) =  -2359.42673672     A.U. after    9 cycles
 SCF Done:  E(UB3LYP) =  -2359.42673675     A.U. after    8 cycles
 SCF Done:  E(UB3LYP) =  -2359.42673679     A.U. after    9 cycles
 SCF Done:  E(UB3LYP) =  -2359.42673683     A.U. after    8 cycles
 SCF Done:  E(UB3LYP) =  -2359.42673687     A.U. after    9 cycles
 SCF Done:  E(UB3LYP) =  -2359.42673689     A.U. after    9 cycles
 Optimization completed.
    -- Stationary point found.

                         Standard orientation:
 ---------------------------------------------------------------------
 Center     Atomic      Atomic             Coordinates (Angstroms)
 Number     Number       Type             X           Y           Z
 ---------------------------------------------------------------------
      1          6           0        3.485653   -2.691840    0.335683
      2          6           0        2.763015   -1.455218    0.057564
      3          6           0        3.429234   -0.208395    0.121636
      4          6           0        4.798723   -0.130988    0.460643
      5          6           0        5.556843   -1.346390    0.752190
      6          6           0        1.392689   -1.500701   -0.214599
      7          6           0        2.690361    0.984819   -0.174833
      8          6           0        1.310631    0.907852   -0.522691
      9          6           0        0.639193   -0.357838   -0.486929
     10          6           0        0.671365    2.111522   -1.052525
     11          6           0        2.690378    3.468913   -0.453904
     12          6           0        3.378033    2.224544   -0.125884
     13          6           0        4.740440    2.273363    0.227039
     14          6           0        5.441637    1.120148    0.515997
     15          1           0        6.490671    1.148249    0.781910
     16          1           0        5.218389    3.244453    0.257440
     17          1           0        0.905757   -2.464354   -0.147688
     18          7           0        1.368368    3.329939   -0.898398
     19          7           0        4.845786   -2.560887    0.665777
     20          8           0        2.978484   -3.814868    0.296022
     21          8           0        6.750864   -1.344631    1.056231
     22          8           0        3.217530    4.581594   -0.380257
     23          8           0       -0.414226    2.133114   -1.631704
     24          6           0        0.664521    4.529844   -1.352881
     25          1           0        0.565928    4.526949   -2.441384
     26          1           0       -0.338465    4.546800   -0.926798
     27          1           0        1.242769    5.392375   -1.034082
     28          6           0        5.562566   -3.806045    0.943413
     29          1           0        5.098372   -4.324831    1.784331
     30          1           0        5.513389   -4.465739    0.075171
     31          1           0        6.592756   -3.550328    1.173366
     32          6           0       -0.817290   -0.559022   -0.568963
     33          6           0       -1.447886   -1.663798   -1.103784
     34         16           0       -1.958272    0.426544    0.306540
     35          6           0       -2.836291   -1.701341   -0.838543
     36          1           0       -0.917959   -2.405459   -1.683156
     37          6           0       -3.302213   -0.644589   -0.070082
     38          8           0       -3.714930   -2.655756   -1.276021
     39          6           0       -4.656751   -0.380999    0.343745
     40          6           0       -3.191600   -3.729345   -2.043136
     41          6           0       -5.130831    0.665048    1.123463
     42         16           0       -6.010438   -1.413823   -0.110079
     43          1           0       -4.039542   -4.371717   -2.279623
     44          1           0       -2.737457   -3.369634   -2.972993
     45          1           0       -2.449623   -4.300727   -1.474798
     46          6           0       -6.537056    0.648645    1.342263
     47          8           0       -4.250995    1.580282    1.629429
     48          6           0       -7.143620   -0.415146    0.734823
     49          1           0       -7.070880    1.387051    1.923924
     50          6           0       -4.775490    2.802948    2.119230
     51          1           0       -8.191222   -0.673586    0.738333
     52          1           0       -5.372547    2.649612    3.026390
     53          1           0       -3.914337    3.424941    2.360458
     54          1           0       -5.387045    3.305219    1.360968
 ---------------------------------------------------------------------

 The electronic state is 2-A.
 Alpha  occ. eigenvalues --  -88.80132 -88.77943 -19.08504 -19.08279 -18.99488
 Alpha  occ. eigenvalues --  -18.99403 -18.99067 -18.98875 -14.26438 -14.25998
 Alpha  occ. eigenvalues --  -10.17984 -10.17753 -10.17523 -10.17482 -10.16228
 Alpha  occ. eigenvalues --  -10.15899 -10.15784 -10.15052 -10.13377 -10.12664
 Alpha  occ. eigenvalues --  -10.11971 -10.11922 -10.11017 -10.10520 -10.10374
 Alpha  occ. eigenvalues --  -10.10171 -10.10132 -10.09894 -10.09061 -10.08675
 Alpha  occ. eigenvalues --  -10.08605 -10.08550 -10.08475 -10.08351 -10.07922
 Alpha  occ. eigenvalues --  -10.07861  -7.88687  -7.86496  -5.84996  -5.84613
 Alpha  occ. eigenvalues --   -5.84257  -5.82823  -5.82427  -5.82036  -1.00108
 Alpha  occ. eigenvalues --   -0.99663  -0.95550  -0.95261  -0.93486  -0.93164
 Alpha  occ. eigenvalues --   -0.83664  -0.83264  -0.81289  -0.79711  -0.78622
 Alpha  occ. eigenvalues --   -0.74074  -0.71608  -0.69857  -0.68284  -0.66738
 Alpha  occ. eigenvalues --   -0.66209  -0.65456  -0.63873  -0.63417  -0.61963
 Alpha  occ. eigenvalues --   -0.61002  -0.60299  -0.58599  -0.54907  -0.54004
 Alpha  occ. eigenvalues --   -0.53394  -0.52415  -0.51476  -0.49810  -0.48044
 Alpha  occ. eigenvalues --   -0.47598  -0.46030  -0.45809  -0.45159  -0.43043
 Alpha  occ. eigenvalues --   -0.42058  -0.40769  -0.40399  -0.40182  -0.39926
 Alpha  occ. eigenvalues --   -0.39220  -0.38263  -0.38026  -0.37856  -0.37486
 Alpha  occ. eigenvalues --   -0.36957  -0.36608  -0.36478  -0.35294  -0.34326
 Alpha  occ. eigenvalues --   -0.34038  -0.33693  -0.33448  -0.32925  -0.32586
 Alpha  occ. eigenvalues --   -0.32474  -0.32235  -0.31576  -0.30518  -0.30417
 Alpha  occ. eigenvalues --   -0.30248  -0.29952  -0.29807  -0.29657  -0.29254
 Alpha  occ. eigenvalues --   -0.28913  -0.28633  -0.27765  -0.27501  -0.26928
 Alpha  occ. eigenvalues --   -0.25998  -0.25511  -0.25090  -0.24417  -0.24069
 Alpha  occ. eigenvalues --   -0.22667  -0.20138  -0.19397  -0.18552  -0.17885
 Alpha  occ. eigenvalues --   -0.17671  -0.17142  -0.16850  -0.16309  -0.15965
 Alpha  occ. eigenvalues --   -0.15792  -0.14585  -0.13833  -0.10230  -0.05065
 Alpha virt. eigenvalues --    0.02997   0.04745   0.05831   0.06320   0.06791
 Alpha virt. eigenvalues --    0.07380   0.07447   0.08598   0.08897   0.09078
 Alpha virt. eigenvalues --    0.09326   0.09497   0.10102   0.10402   0.10630

  Beta  occ. eigenvalues --  -88.80130 -88.77936 -19.08495 -19.08286 -18.99308
  Beta  occ. eigenvalues --  -18.99206 -18.98883 -18.98666 -14.26487 -14.26049
  Beta  occ. eigenvalues --  -10.17936 -10.17707 -10.17479 -10.17437 -10.16228
  Beta  occ. eigenvalues --  -10.15874 -10.15784 -10.15076 -10.13393 -10.12640
  Beta  occ. eigenvalues --  -10.11959 -10.11920 -10.11026 -10.10519 -10.10260
  Beta  occ. eigenvalues --  -10.10187 -10.10170 -10.09948 -10.08871 -10.08625
  Beta  occ. eigenvalues --  -10.08460 -10.08381 -10.08312 -10.08302 -10.07841
  Beta  occ. eigenvalues --  -10.07779  -7.88686  -7.86490  -5.84995  -5.84613
  Beta  occ. eigenvalues --   -5.84251  -5.82816  -5.82421  -5.82020  -1.00087
  Beta  occ. eigenvalues --   -0.99678  -0.95317  -0.95019  -0.93164  -0.92831
  Beta  occ. eigenvalues --   -0.83552  -0.83150  -0.81263  -0.79604  -0.78527
  Beta  occ. eigenvalues --   -0.73764  -0.71306  -0.69761  -0.68249  -0.66667
  Beta  occ. eigenvalues --   -0.66076  -0.65048  -0.63799  -0.63359  -0.61933
  Beta  occ. eigenvalues --   -0.60950  -0.60069  -0.58304  -0.54761  -0.53826
  Beta  occ. eigenvalues --   -0.53272  -0.52305  -0.51403  -0.49746  -0.48021
  Beta  occ. eigenvalues --   -0.47543  -0.45998  -0.45697  -0.45036  -0.42894
  Beta  occ. eigenvalues --   -0.41965  -0.40742  -0.40355  -0.40190  -0.39886
  Beta  occ. eigenvalues --   -0.39074  -0.38040  -0.37968  -0.37669  -0.37458
  Beta  occ. eigenvalues --   -0.36876  -0.36488  -0.36420  -0.35206  -0.34169
  Beta  occ. eigenvalues --   -0.33985  -0.33571  -0.33389  -0.32852  -0.32428
  Beta  occ. eigenvalues --   -0.32239  -0.31988  -0.31442  -0.30316  -0.30186
  Beta  occ. eigenvalues --   -0.30086  -0.29798  -0.29598  -0.29060  -0.28990
  Beta  occ. eigenvalues --   -0.28629  -0.28174  -0.27692  -0.27246  -0.26692
  Beta  occ. eigenvalues --   -0.25910  -0.25483  -0.24954  -0.24322  -0.24000
  Beta  occ. eigenvalues --   -0.21998  -0.19815  -0.18470  -0.18360  -0.17528
  Beta  occ. eigenvalues --   -0.17254  -0.16842  -0.16629  -0.16099  -0.15596
  Beta  occ. eigenvalues --   -0.15448  -0.14423  -0.12434  -0.09909
  Beta virt. eigenvalues --   -0.00699   0.03314   0.05769   0.05832   0.06697
  Beta virt. eigenvalues --    0.06805   0.07394   0.08210   0.08603   0.08907
  Beta virt. eigenvalues --    0.09117   0.09374   0.09646   0.10113   0.10409

 Mulliken charges and spin densities:
               1          2
     1  C    0.305923   0.018616
     2  C   -0.088047   0.125708
     3  C    0.111507  -0.039139
     4  C    0.236499   0.099924
     5  C    0.164545   0.019031
     6  C   -0.137428   0.033694
     7  C    0.160391  -0.036222
     8  C    0.141789   0.144616
     9  C    0.257732   0.076632
    10  C   -0.510055   0.013545
    11  C    0.271690   0.018859
    12  C    0.080844   0.109388
    13  C   -0.480268   0.053462
    14  C   -0.568116   0.068619
    15  H    0.129843  -0.004792
    16  H    0.131604  -0.003914
    17  H    0.140431  -0.001905
    18  N   -0.044352  -0.019975
    19  N   -0.143330  -0.020118
    20  O   -0.359923   0.073934
    21  O   -0.346109   0.067267
    22  O   -0.352764   0.069121
    23  O   -0.281251   0.079526
    24  C   -0.174778   0.001525
    25  H    0.155109  -0.001119
    26  H    0.159222  -0.000661
    27  H    0.168546  -0.000389
    28  C   -0.186408   0.001281
    29  H    0.153719  -0.000922
    30  H    0.152092  -0.000891
    31  H    0.168998  -0.000339
    32  C    0.159251  -0.015634
    33  C   -0.705952   0.036075
    34  S   -0.661908   0.013480
    35  C   -0.059733  -0.017035
    36  H    0.125930  -0.001664
    37  C    0.674204   0.023915
    38  O   -0.140057  -0.000933
    39  C    0.846340  -0.010926
    40  C   -0.222836   0.000157
    41  C   -0.082734   0.017254
    42  S   -0.272196   0.001265
    43  H    0.149073   0.000000
    44  H    0.142613  -0.000192
    45  H    0.147821  -0.000127
    46  C   -0.494696  -0.007607
    47  O   -0.122578   0.001265
    48  C   -0.319497   0.016846
    49  H    0.113852   0.000333
    50  C   -0.260483  -0.000261
    51  H    0.141291  -0.001046
    52  H    0.123525   0.000173
    53  H    0.160399   0.000032
    54  H    0.140716   0.000264
 Sum of Mulliken charges =  -1.00000   1.00000

 Dipole moment (field-independent basis, Debye):
    X=            -11.2129    Y=             -1.2004    Z=              0.1869  Tot=             11.2785
 Quadrupole moment (field-independent basis, Debye-Ang):
   XX=           -312.6226   YY=           -259.8032   ZZ=           -228.3090
   XY=             -9.5796   XZ=            -12.6322   YZ=             15.9506

 Normal termination of Gaussian 16 at Wed Oct  6 04:30:39 2021.
