 Gaussian 16, Revision C.01,
 Gaussian 16:  ES64L-G16RevC.01  3-Jul-2019

 -------------------------------------
 # opt=modredundant b3lyp/6-311+g(d,p)
 -------------------------------------

 ---------
 NDI_5.pdb
 ---------
 Symbolic Z-matrix:
 Charge = -1 Multiplicity = 2

 SCF Done:  E(UB3LYP) =  -2359.40410898     A.U. after   23 cycles
 SCF Done:  E(UB3LYP) =  -2359.40259782     A.U. after   23 cycles
 SCF Done:  E(UB3LYP) =  -2359.42006545     A.U. after   20 cycles
 SCF Done:  E(UB3LYP) =  -2359.42265506     A.U. after   22 cycles
 SCF Done:  E(UB3LYP) =  -2359.42278305     A.U. after   18 cycles
 SCF Done:  E(UB3LYP) =  -2359.42383173     A.U. after   17 cycles
 SCF Done:  E(UB3LYP) =  -2359.42408847     A.U. after   16 cycles
 SCF Done:  E(UB3LYP) =  -2359.42421527     A.U. after   21 cycles
 SCF Done:  E(UB3LYP) =  -2359.42437428     A.U. after   16 cycles
 SCF Done:  E(UB3LYP) =  -2359.42440187     A.U. after   15 cycles
 SCF Done:  E(UB3LYP) =  -2359.42443513     A.U. after   10 cycles
 SCF Done:  E(UB3LYP) =  -2359.42443522     A.U. after   11 cycles
 SCF Done:  E(UB3LYP) =  -2359.42443532     A.U. after   10 cycles
 SCF Done:  E(UB3LYP) =  -2359.42443542     A.U. after   10 cycles
 SCF Done:  E(UB3LYP) =  -2359.42443552     A.U. after    9 cycles
 SCF Done:  E(UB3LYP) =  -2359.42443561     A.U. after   10 cycles
 SCF Done:  E(UB3LYP) =  -2359.42443566     A.U. after   10 cycles
 SCF Done:  E(UB3LYP) =  -2359.42443569     A.U. after   10 cycles
 SCF Done:  E(UB3LYP) =  -2359.42443572     A.U. after   10 cycles
 SCF Done:  E(UB3LYP) =  -2359.42443575     A.U. after    9 cycles
 Optimization completed.
    -- Stationary point found.

                         Standard orientation:
 ---------------------------------------------------------------------
 Center     Atomic      Atomic             Coordinates (Angstroms)
 Number     Number       Type             X           Y           Z
 ---------------------------------------------------------------------
      1          6           0       -2.444163   -3.011566    0.315818
      2          6           0       -2.202591   -1.572231    0.247037
      3          6           0       -3.264039   -0.676694   -0.019332
      4          6           0       -4.570202   -1.155401   -0.255421
      5          6           0       -4.851863   -2.591309   -0.216456
      6          6           0       -0.907450   -1.087751    0.385139
      7          6           0       -2.982731    0.729797   -0.026261
      8          6           0       -1.658935    1.217312    0.228053
      9          6           0       -0.561735    0.269656    0.325976
     10          6           0       -1.536350    2.649453    0.483110
     11          6           0       -3.887119    3.048114   -0.280500
     12          6           0       -4.072458    1.604300   -0.283081
     13          6           0       -5.362697    1.101061   -0.539247
     14          6           0       -5.615962   -0.253893   -0.523969
     15          1           0       -6.606532   -0.649431   -0.708031
     16          1           0       -6.148058    1.818895   -0.739614
     17          1           0       -0.142087   -1.842419    0.513638
     18          7           0       -2.617990    3.479831    0.117150
     19          7           0       -3.762735   -3.434893    0.077802
     20          8           0       -1.575068   -3.849228    0.559449
     21          8           0       -5.969818   -3.066065   -0.418947
     22          8           0       -4.772257    3.857912   -0.568794
     23          8           0       -0.570980    3.205380    1.019979
     24          6           0       -2.407626    4.917923    0.291262
     25          1           0       -2.292551    5.161274    1.349830
     26          1           0       -1.495730    5.222613   -0.223231
     27          1           0       -3.274417    5.426643   -0.120683
     28          6           0       -3.997046   -4.878039    0.140220
     29          1           0       -3.376819   -5.389109   -0.598540
     30          1           0       -3.723947   -5.257259    1.126603
     31          1           0       -5.050493   -5.051145   -0.059251
     32          6           0        0.880185    0.552997    0.229518
     33          6           0        1.595759    1.729843    0.118993
     34         16           0        2.003856   -0.814435    0.135066
     35          6           0        2.987727    1.546376   -0.021871
     36          1           0        1.118583    2.689762    0.194076
     37          6           0        3.409631    0.226090   -0.027580
     38          8           0        3.912739    2.547316   -0.134790
     39          6           0        4.752346   -0.277994   -0.134143
     40          6           0        3.440554    3.888152   -0.079878
     41          6           0        5.181477   -1.600086   -0.136726
     42         16           0        6.154914    0.778628   -0.284423
     43          1           0        4.325266    4.519465   -0.160144
     44          1           0        2.760731    4.102894   -0.910894
     45          1           0        2.926611    4.090303    0.864887
     46          6           0        6.590053   -1.762067   -0.253398
     47          8           0        4.260838   -2.602867   -0.036126
     48          6           0        7.244237   -0.564064   -0.342020
     49          1           0        7.093878   -2.718078   -0.271975
     50          6           0        4.729354   -3.939386    0.005849
     51          1           0        8.305183   -0.393325   -0.439528
     52          1           0        5.387301   -4.105375    0.867213
     53          1           0        3.842783   -4.564380    0.103251
     54          1           0        5.261298   -4.206145   -0.915268
 ---------------------------------------------------------------------

 The electronic state is 2-A.
 Alpha  occ. eigenvalues --  -88.80191 -88.77895 -19.08658 -19.07946 -18.99727
 Alpha  occ. eigenvalues --  -18.99589 -18.99221 -18.99104 -14.26604 -14.26227
 Alpha  occ. eigenvalues --  -10.18218 -10.17946 -10.17899 -10.17524 -10.16270
 Alpha  occ. eigenvalues --  -10.16084 -10.15163 -10.14792 -10.13414 -10.12742
 Alpha  occ. eigenvalues --  -10.12066 -10.12037 -10.11094 -10.10965 -10.10658
 Alpha  occ. eigenvalues --  -10.10439 -10.10363 -10.09907 -10.09486 -10.08775
 Alpha  occ. eigenvalues --  -10.08630 -10.08541 -10.08424 -10.07962 -10.07894
 Alpha  occ. eigenvalues --  -10.07617  -7.88744  -7.86471  -5.85052  -5.84669
 Alpha  occ. eigenvalues --   -5.84315  -5.82799  -5.82404  -5.82012  -1.00293
 Alpha  occ. eigenvalues --   -0.99303  -0.95795  -0.95529  -0.93737  -0.93332
 Alpha  occ. eigenvalues --   -0.83874  -0.83460  -0.81320  -0.79625  -0.78549
 Alpha  occ. eigenvalues --   -0.74102  -0.71701  -0.69815  -0.68364  -0.66930
 Alpha  occ. eigenvalues --   -0.65686  -0.65661  -0.63880  -0.63584  -0.61828
 Alpha  occ. eigenvalues --   -0.61161  -0.60461  -0.58410  -0.55208  -0.54093
 Alpha  occ. eigenvalues --   -0.53608  -0.52465  -0.51483  -0.49898  -0.48139
 Alpha  occ. eigenvalues --   -0.47380  -0.46045  -0.45708  -0.45286  -0.43229
 Alpha  occ. eigenvalues --   -0.42005  -0.40835  -0.40719  -0.39677  -0.39621
 Alpha  occ. eigenvalues --   -0.39420  -0.38419  -0.38059  -0.37944  -0.37490
 Alpha  occ. eigenvalues --   -0.37086  -0.36761  -0.36496  -0.35187  -0.34392
 Alpha  occ. eigenvalues --   -0.34225  -0.33728  -0.33381  -0.33155  -0.32780
 Alpha  occ. eigenvalues --   -0.32470  -0.32180  -0.31264  -0.30698  -0.30542
 Alpha  occ. eigenvalues --   -0.30442  -0.30306  -0.29863  -0.29657  -0.29468
 Alpha  occ. eigenvalues --   -0.28878  -0.28298  -0.27803  -0.27363  -0.27031
 Alpha  occ. eigenvalues --   -0.26119  -0.25464  -0.25395  -0.25064  -0.23039
 Alpha  occ. eigenvalues --   -0.22790  -0.20392  -0.19466  -0.18743  -0.17980
 Alpha  occ. eigenvalues --   -0.17856  -0.17323  -0.16969  -0.16494  -0.15931
 Alpha  occ. eigenvalues --   -0.15807  -0.15041  -0.13879  -0.10256  -0.05082
 Alpha virt. eigenvalues --    0.02370   0.04597   0.05808   0.06238   0.06923
 Alpha virt. eigenvalues --    0.07303   0.07616   0.08574   0.08950   0.09114
 Alpha virt. eigenvalues --    0.09628   0.10180   0.10329   0.10407   0.10700

  Beta  occ. eigenvalues --  -88.80188 -88.77879 -19.08642 -19.07957 -18.99561
  Beta  occ. eigenvalues --  -18.99400 -18.99003 -18.98927 -14.26649 -14.26278
  Beta  occ. eigenvalues --  -10.18175 -10.17906 -10.17843 -10.17480 -10.16270
  Beta  occ. eigenvalues --  -10.16044 -10.15162 -10.14830 -10.13442 -10.12701
  Beta  occ. eigenvalues --  -10.12096 -10.11981 -10.11110 -10.10810 -10.10657
  Beta  occ. eigenvalues --  -10.10438 -10.10411 -10.09964 -10.09315 -10.08637
  Beta  occ. eigenvalues --  -10.08467 -10.08395 -10.08394 -10.07888 -10.07816
  Beta  occ. eigenvalues --  -10.07547  -7.88741  -7.86456  -5.85050  -5.84668
  Beta  occ. eigenvalues --   -5.84306  -5.82790  -5.82394  -5.81962  -1.00258
  Beta  occ. eigenvalues --   -0.99326  -0.95576  -0.95281  -0.93436  -0.93000
  Beta  occ. eigenvalues --   -0.83769  -0.83343  -0.81282  -0.79497  -0.78462
  Beta  occ. eigenvalues --   -0.73793  -0.71415  -0.69717  -0.68307  -0.66828
  Beta  occ. eigenvalues --   -0.65577  -0.65294  -0.63793  -0.63517  -0.61774
  Beta  occ. eigenvalues --   -0.61109  -0.60201  -0.58169  -0.55058  -0.53909
  Beta  occ. eigenvalues --   -0.53509  -0.52304  -0.51431  -0.49852  -0.48111
  Beta  occ. eigenvalues --   -0.47316  -0.45947  -0.45651  -0.45173  -0.43080
  Beta  occ. eigenvalues --   -0.41914  -0.40791  -0.40671  -0.39691  -0.39580
  Beta  occ. eigenvalues --   -0.39265  -0.38208  -0.37925  -0.37851  -0.37454
  Beta  occ. eigenvalues --   -0.36963  -0.36701  -0.36415  -0.35080  -0.34287
  Beta  occ. eigenvalues --   -0.34119  -0.33661  -0.33257  -0.33051  -0.32601
  Beta  occ. eigenvalues --   -0.32192  -0.32050  -0.31078  -0.30442  -0.30345
  Beta  occ. eigenvalues --   -0.30253  -0.30160  -0.29533  -0.29317  -0.29084
  Beta  occ. eigenvalues --   -0.28469  -0.28093  -0.27694  -0.27151  -0.26810
  Beta  occ. eigenvalues --   -0.26004  -0.25397  -0.25199  -0.25000  -0.22878
  Beta  occ. eigenvalues --   -0.22279  -0.19956  -0.18612  -0.18528  -0.17724
  Beta  occ. eigenvalues --   -0.17410  -0.17044  -0.16647  -0.16301  -0.15678
  Beta  occ. eigenvalues --   -0.15403  -0.14776  -0.12652  -0.09723
  Beta virt. eigenvalues --   -0.00863   0.02792   0.05577   0.05809   0.06639
  Beta virt. eigenvalues --    0.06926   0.07619   0.08069   0.08576   0.08953
  Beta virt. eigenvalues --    0.09122   0.09630   0.10320   0.10339   0.10506

 Mulliken charges and spin densities:
               1          2
     1  C    0.294673   0.011656
     2  C   -0.019110   0.130045
     3  C    0.058191  -0.039949
     4  C    0.248250   0.092541
     5  C    0.208026   0.017549
     6  C   -0.048503   0.013325
     7  C    0.098490  -0.023898
     8  C    0.376402   0.131217
     9  C    0.135611   0.097807
    10  C   -0.596643   0.012330
    11  C    0.221064   0.020918
    12  C    0.176843   0.092965
    13  C   -0.474048   0.054659
    14  C   -0.615619   0.065154
    15  H    0.130240  -0.004253
    16  H    0.133630  -0.003844
    17  H    0.150660  -0.000448
    18  N   -0.062009  -0.020504
    19  N   -0.140332  -0.018214
    20  O   -0.353616   0.070348
    21  O   -0.342779   0.062021
    22  O   -0.353592   0.066867
    23  O   -0.340373   0.078867
    24  C   -0.152905   0.001771
    25  H    0.156025  -0.001120
    26  H    0.148529  -0.000819
    27  H    0.169733  -0.000384
    28  C   -0.188486   0.001046
    29  H    0.154735  -0.000853
    30  H    0.153659  -0.000817
    31  H    0.168538  -0.000308
    32  C   -0.118612  -0.063889
    33  C    0.018632   0.077630
    34  S   -0.764445   0.019488
    35  C   -0.465029  -0.017211
    36  H    0.181200  -0.002740
    37  C    0.586487   0.053363
    38  O   -0.141779  -0.001551
    39  C    0.860651  -0.019264
    40  C   -0.238811   0.000283
    41  C   -0.001067   0.027110
    42  S   -0.262605   0.002319
    43  H    0.146575   0.000004
    44  H    0.142505  -0.000323
    45  H    0.158025  -0.000299
    46  C   -0.592711  -0.011630
    47  O   -0.117951   0.002800
    48  C   -0.330125   0.028837
    49  H    0.116432   0.000559
    50  C   -0.244563  -0.000190
    51  H    0.141482  -0.001791
    52  H    0.131933   0.000418
    53  H    0.169622  -0.000021
    54  H    0.128869   0.000422
 Sum of Mulliken charges =  -1.00000   1.00000

 Dipole moment (field-independent basis, Debye):
    X=             11.2293    Y=             -0.4594    Z=             -0.3719  Tot=             11.2449
 Quadrupole moment (field-independent basis, Debye-Ang):
   XX=           -313.2174   YY=           -254.1189   ZZ=           -232.9091
   XY=             -5.5914   XZ=             -7.5912   YZ=              0.3760

 Normal termination of Gaussian 16 at Tue Oct  5 22:20:58 2021.
