 Gaussian 16, Revision C.01,
 Gaussian 16:  ES64L-G16RevC.01  3-Jul-2019

 -------------------------------------
 # opt=modredundant b3lyp/6-311+g(d,p)
 -------------------------------------

 -----------
 NDI_-55.pdb
 -----------
 Symbolic Z-matrix:
 Charge = -1 Multiplicity = 2

 SCF Done:  E(UB3LYP) =  -2359.42351386     A.U. after   23 cycles
 SCF Done:  E(UB3LYP) =  -2359.42783966     A.U. after   19 cycles
 SCF Done:  E(UB3LYP) =  -2359.42836953     A.U. after   18 cycles
 SCF Done:  E(UB3LYP) =  -2359.42861647     A.U. after   17 cycles
 SCF Done:  E(UB3LYP) =  -2359.42879375     A.U. after   14 cycles
 SCF Done:  E(UB3LYP) =  -2359.42880952     A.U. after   13 cycles
 SCF Done:  E(UB3LYP) =  -2359.42881580     A.U. after   14 cycles
 SCF Done:  E(UB3LYP) =  -2359.42882114     A.U. after   14 cycles
 SCF Done:  E(UB3LYP) =  -2359.42882446     A.U. after   15 cycles
 SCF Done:  E(UB3LYP) =  -2359.42882604     A.U. after   12 cycles
 SCF Done:  E(UB3LYP) =  -2359.42890235     A.U. after   12 cycles
 SCF Done:  E(UB3LYP) =  -2359.42890268     A.U. after   13 cycles
 SCF Done:  E(UB3LYP) =  -2359.42890281     A.U. after   12 cycles
 SCF Done:  E(UB3LYP) =  -2359.42890297     A.U. after   13 cycles
 SCF Done:  E(UB3LYP) =  -2359.42890303     A.U. after   11 cycles
 SCF Done:  E(UB3LYP) =  -2359.42890305     A.U. after    9 cycles
 SCF Done:  E(UB3LYP) =  -2359.42890309     A.U. after    9 cycles
 SCF Done:  E(UB3LYP) =  -2359.42890313     A.U. after   11 cycles
 SCF Done:  E(UB3LYP) =  -2359.42890316     A.U. after   11 cycles
 SCF Done:  E(UB3LYP) =  -2359.42890317     A.U. after   10 cycles
 Optimization completed.
    -- Stationary point found.

                         Standard orientation:
 ---------------------------------------------------------------------
 Center     Atomic      Atomic             Coordinates (Angstroms)
 Number     Number       Type             X           Y           Z
 ---------------------------------------------------------------------
      1          6           0        2.808582   -2.919906    0.553709
      2          6           0        2.396035   -1.541032    0.311541
      3          6           0        3.362541   -0.535750    0.075644
      4          6           0        4.742898   -0.843803    0.068475
      5          6           0        5.197414   -2.212212    0.308069
      6          6           0        1.037728   -1.208709    0.345985
      7          6           0        2.921311    0.809141   -0.165140
      8          6           0        1.529191    1.123077   -0.157493
      9          6           0        0.579650    0.092262    0.144797
     10          6           0        1.122143    2.479130   -0.530167
     11          6           0        3.528145    3.175760   -0.695285
     12          6           0        3.908387    1.796410   -0.417351
     13          6           0        5.276671    1.461801   -0.412511
     14          6           0        5.690645    0.167742   -0.173599
     15          1           0        6.739769   -0.099274   -0.171328
     16          1           0        5.988857    2.253828   -0.606567
     17          1           0        0.334605   -1.997044    0.581781
     18          7           0        2.149603    3.424898   -0.742747
     19          7           0        4.191551   -3.172524    0.533813
     20          8           0        2.028135   -3.848666    0.769196
     21          8           0        6.385401   -2.540098    0.317211
     22          8           0        4.341075    4.082387   -0.893568
     23          8           0       -0.040634    2.856886   -0.679602
     24          6           0        1.705234    4.777047   -1.084143
     25          1           0        1.125288    4.759172   -2.008727
     26          1           0        1.061217    5.168952   -0.294937
     27          1           0        2.591299    5.394483   -1.199014
     28          6           0        4.595260   -4.557984    0.776055
     29          1           0        4.250551   -4.881296    1.760206
     30          1           0        4.141058   -5.213529    0.030923
     31          1           0        5.678860   -4.601775    0.717211
     32          6           0       -0.870041    0.312463    0.306391
     33          6           0       -1.531289    1.177081    1.141074
     34         16           0       -1.997910   -0.723652   -0.530407
     35          6           0       -2.936665    1.020996    1.102439
     36          1           0       -1.014636    1.912509    1.737717
     37          6           0       -3.387852    0.026573    0.246071
     38          8           0       -3.842793    1.744062    1.829332
     39          6           0       -4.747887   -0.366832   -0.019127
     40          6           0       -3.365851    2.901282    2.503114
     41          6           0       -5.205732   -1.367573   -0.865252
     42         16           0       -6.131270    0.419113    0.736936
     43          1           0       -4.245257    3.387545    2.925044
     44          1           0       -2.677957    2.634300    3.313103
     45          1           0       -2.863336    3.582760    1.809427
     46          6           0       -6.621753   -1.504233   -0.906478
     47          8           0       -4.304073   -2.108214   -1.577658
     48          6           0       -7.252700   -0.606082   -0.091151
     49          1           0       -7.146569   -2.231099   -1.510215
     50          6           0       -4.787322   -3.224866   -2.303297
     51          1           0       -8.312703   -0.487958    0.072025
     52          1           0       -5.468016   -2.917598   -3.106457
     53          1           0       -3.910770   -3.701892   -2.739920
     54          1           0       -5.298808   -3.937632   -1.645713
 ---------------------------------------------------------------------

 The electronic state is 2-A.
 Alpha  occ. eigenvalues --  -88.80114 -88.78269 -19.08650 -19.08069 -18.99428
 Alpha  occ. eigenvalues --  -18.99305 -18.99111 -18.98912 -14.26375 -14.26129
 Alpha  occ. eigenvalues --  -10.17926 -10.17666 -10.17650 -10.17569 -10.16372
 Alpha  occ. eigenvalues --  -10.15928 -10.15474 -10.14981 -10.13371 -10.12621
 Alpha  occ. eigenvalues --  -10.11928 -10.11745 -10.11032 -10.10459 -10.10416
 Alpha  occ. eigenvalues --  -10.10266 -10.10235 -10.09947 -10.09309 -10.08600
 Alpha  occ. eigenvalues --  -10.08541 -10.08508 -10.08378 -10.08227 -10.07928
 Alpha  occ. eigenvalues --  -10.07866  -7.88668  -7.86827  -5.84977  -5.84594
 Alpha  occ. eigenvalues --   -5.84238  -5.83147  -5.82757  -5.82377  -1.00236
 Alpha  occ. eigenvalues --   -0.99449  -0.95496  -0.95333  -0.93424  -0.93214
 Alpha  occ. eigenvalues --   -0.83616  -0.83310  -0.81291  -0.79716  -0.78632
 Alpha  occ. eigenvalues --   -0.74059  -0.71626  -0.69806  -0.68332  -0.66825
 Alpha  occ. eigenvalues --   -0.65893  -0.65549  -0.63904  -0.63455  -0.61955
 Alpha  occ. eigenvalues --   -0.61023  -0.60331  -0.58502  -0.54978  -0.53959
 Alpha  occ. eigenvalues --   -0.53467  -0.52300  -0.51549  -0.49852  -0.48131
 Alpha  occ. eigenvalues --   -0.47467  -0.45900  -0.45801  -0.45183  -0.43030
 Alpha  occ. eigenvalues --   -0.41807  -0.40889  -0.40779  -0.39951  -0.39810
 Alpha  occ. eigenvalues --   -0.39287  -0.38214  -0.37961  -0.37867  -0.37495
 Alpha  occ. eigenvalues --   -0.36968  -0.36584  -0.36538  -0.34995  -0.34360
 Alpha  occ. eigenvalues --   -0.34157  -0.33755  -0.33326  -0.32941  -0.32620
 Alpha  occ. eigenvalues --   -0.32477  -0.32250  -0.31492  -0.30522  -0.30405
 Alpha  occ. eigenvalues --   -0.30212  -0.29952  -0.29858  -0.29474  -0.29252
 Alpha  occ. eigenvalues --   -0.29146  -0.28728  -0.27787  -0.27272  -0.27046
 Alpha  occ. eigenvalues --   -0.26047  -0.25585  -0.24949  -0.24366  -0.24050
 Alpha  occ. eigenvalues --   -0.22882  -0.20130  -0.19471  -0.18483  -0.17862
 Alpha  occ. eigenvalues --   -0.17703  -0.17165  -0.16896  -0.16255  -0.16049
 Alpha  occ. eigenvalues --   -0.15791  -0.14567  -0.13889  -0.10221  -0.05115
 Alpha virt. eigenvalues --    0.03230   0.04680   0.05771   0.06443   0.06831
 Alpha virt. eigenvalues --    0.07356   0.07446   0.08604   0.08998   0.09059
 Alpha virt. eigenvalues --    0.09163   0.09482   0.09938   0.10208   0.10651

  Beta  occ. eigenvalues --  -88.80113 -88.78263 -19.08644 -19.08073 -18.99242
  Beta  occ. eigenvalues --  -18.99102 -18.98924 -18.98698 -14.26425 -14.26181
  Beta  occ. eigenvalues --  -10.17878 -10.17622 -10.17600 -10.17523 -10.16373
  Beta  occ. eigenvalues --  -10.15911 -10.15473 -10.14998 -10.13382 -10.12605
  Beta  occ. eigenvalues --  -10.11890 -10.11775 -10.11039 -10.10458 -10.10302
  Beta  occ. eigenvalues --  -10.10290 -10.10265 -10.10004 -10.09127 -10.08444
  Beta  occ. eigenvalues --  -10.08359 -10.08350 -10.08341 -10.08180 -10.07844
  Beta  occ. eigenvalues --  -10.07784  -7.88667  -7.86820  -5.84976  -5.84593
  Beta  occ. eigenvalues --   -5.84234  -5.83142  -5.82752  -5.82363  -1.00222
  Beta  occ. eigenvalues --   -0.99457  -0.95256  -0.95087  -0.93093  -0.92875
  Beta  occ. eigenvalues --   -0.83498  -0.83193  -0.81271  -0.79610  -0.78537
  Beta  occ. eigenvalues --   -0.73743  -0.71320  -0.69722  -0.68294  -0.66738
  Beta  occ. eigenvalues --   -0.65778  -0.65142  -0.63826  -0.63398  -0.61928
  Beta  occ. eigenvalues --   -0.60971  -0.60088  -0.58219  -0.54833  -0.53758
  Beta  occ. eigenvalues --   -0.53377  -0.52119  -0.51520  -0.49805  -0.48114
  Beta  occ. eigenvalues --   -0.47403  -0.45875  -0.45688  -0.45060  -0.42872
  Beta  occ. eigenvalues --   -0.41700  -0.40869  -0.40750  -0.39953  -0.39789
  Beta  occ. eigenvalues --   -0.39125  -0.37983  -0.37910  -0.37682  -0.37471
  Beta  occ. eigenvalues --   -0.36873  -0.36527  -0.36425  -0.34917  -0.34239
  Beta  occ. eigenvalues --   -0.34047  -0.33653  -0.33270  -0.32893  -0.32456
  Beta  occ. eigenvalues --   -0.32245  -0.31957  -0.31393  -0.30219  -0.30153
  Beta  occ. eigenvalues --   -0.30086  -0.29781  -0.29624  -0.29121  -0.28978
  Beta  occ. eigenvalues --   -0.28666  -0.28250  -0.27743  -0.27046  -0.26774
  Beta  occ. eigenvalues --   -0.26001  -0.25555  -0.24865  -0.24262  -0.24009
  Beta  occ. eigenvalues --   -0.22103  -0.19865  -0.18537  -0.18296  -0.17540
  Beta  occ. eigenvalues --   -0.17205  -0.16804  -0.16707  -0.16011  -0.15681
  Beta  occ. eigenvalues --   -0.15527  -0.14419  -0.12422  -0.09992
  Beta virt. eigenvalues --   -0.00672   0.03451   0.05744   0.05774   0.06825
  Beta virt. eigenvalues --    0.06896   0.07386   0.08189   0.08611   0.09008
  Beta virt. eigenvalues --    0.09166   0.09254   0.09493   0.09948   0.10215

 Mulliken charges and spin densities:
               1          2
     1  C    0.335806   0.015744
     2  C   -0.165961   0.133687
     3  C    0.089412  -0.040842
     4  C    0.207579   0.108433
     5  C    0.191102   0.017296
     6  C   -0.768881   0.040291
     7  C    0.187952  -0.034391
     8  C    0.175636   0.136585
     9  C    0.633992   0.076245
    10  C   -0.389396   0.020447
    11  C    0.301478   0.020484
    12  C    0.114554   0.106953
    13  C   -0.532566   0.061039
    14  C   -0.619329   0.063198
    15  H    0.129968  -0.004491
    16  H    0.131920  -0.004333
    17  H    0.158450  -0.002522
    18  N   -0.138850  -0.020726
    19  N   -0.143546  -0.020237
    20  O   -0.354906   0.076309
    21  O   -0.346463   0.069560
    22  O   -0.350485   0.070141
    23  O   -0.230955   0.079982
    24  C   -0.181255   0.001330
    25  H    0.157364  -0.001023
    26  H    0.151041  -0.000872
    27  H    0.170455  -0.000361
    28  C   -0.190299   0.001237
    29  H    0.153224  -0.000941
    30  H    0.153176  -0.000892
    31  H    0.169290  -0.000347
    32  C    0.148252  -0.030938
    33  C   -0.294770   0.024511
    34  S   -0.491677   0.011342
    35  C   -0.435332  -0.006427
    36  H    0.114458  -0.002098
    37  C    0.563849   0.027996
    38  O   -0.122362  -0.000743
    39  C    0.903808  -0.009734
    40  C   -0.250364   0.000415
    41  C   -0.047940   0.010261
    42  S   -0.268971   0.001194
    43  H    0.146525  -0.000002
    44  H    0.135961  -0.000108
    45  H    0.161281  -0.000043
    46  C   -0.470341  -0.005228
    47  O   -0.122072   0.001372
    48  C   -0.304500   0.011273
    49  H    0.115322   0.000225
    50  C   -0.245891   0.000137
    51  H    0.140713  -0.000700
    52  H    0.127181   0.000132
    53  H    0.161902   0.000017
    54  H    0.135461   0.000161
 Sum of Mulliken charges =  -1.00000   1.00000

 Dipole moment (field-independent basis, Debye):
    X=            -11.3120    Y=             -0.3377    Z=              0.4844  Tot=             11.3274
 Quadrupole moment (field-independent basis, Debye-Ang):
   XX=           -317.8184   YY=           -261.2980   ZZ=           -223.5238
   XY=              4.8305   XZ=              6.0280   YZ=             20.6767

 Normal termination of Gaussian 16 at Tue Oct  5 15:15:18 2021.
