 Gaussian 16, Revision C.01,
 Gaussian 16:  ES64L-G16RevC.01  3-Jul-2019

 -------------------------------------
 # opt=modredundant b3lyp/6-311+g(d,p)
 -------------------------------------

 -----------
 NDI_-30.pdb
 -----------
 Symbolic Z-matrix:
 Charge = -1 Multiplicity = 2

 SCF Done:  E(UB3LYP) =  -2359.42284030     A.U. after   24 cycles
 SCF Done:  E(UB3LYP) =  -2359.42510063     A.U. after   23 cycles
 SCF Done:  E(UB3LYP) =  -2359.42730144     A.U. after   20 cycles
 SCF Done:  E(UB3LYP) =  -2359.42804840     A.U. after   19 cycles
 SCF Done:  E(UB3LYP) =  -2359.42817925     A.U. after   17 cycles
 SCF Done:  E(UB3LYP) =  -2359.42828450     A.U. after   17 cycles
 SCF Done:  E(UB3LYP) =  -2359.42831527     A.U. after   17 cycles
 SCF Done:  E(UB3LYP) =  -2359.42833329     A.U. after   16 cycles
 SCF Done:  E(UB3LYP) =  -2359.42833876     A.U. after   14 cycles
 SCF Done:  E(UB3LYP) =  -2359.42834064     A.U. after   14 cycles
 SCF Done:  E(UB3LYP) =  -2359.42835754     A.U. after   11 cycles
 SCF Done:  E(UB3LYP) =  -2359.42835787     A.U. after   11 cycles
 SCF Done:  E(UB3LYP) =  -2359.42835851     A.U. after   13 cycles
 SCF Done:  E(UB3LYP) =  -2359.42835897     A.U. after   14 cycles
 SCF Done:  E(UB3LYP) =  -2359.42835918     A.U. after   11 cycles
 SCF Done:  E(UB3LYP) =  -2359.42835930     A.U. after   11 cycles
 SCF Done:  E(UB3LYP) =  -2359.42835934     A.U. after   10 cycles
 SCF Done:  E(UB3LYP) =  -2359.42835939     A.U. after   10 cycles
 SCF Done:  E(UB3LYP) =  -2359.42835945     A.U. after   10 cycles
 SCF Done:  E(UB3LYP) =  -2359.42835949     A.U. after   10 cycles
 Optimization completed.
    -- Stationary point found.

                         Standard orientation:
 ---------------------------------------------------------------------
 Center     Atomic      Atomic             Coordinates (Angstroms)
 Number     Number       Type             X           Y           Z
 ---------------------------------------------------------------------
      1          6           0        2.660038   -2.994259    0.302772
      2          6           0        2.317631   -1.584461    0.136839
      3          6           0        3.333936   -0.602491    0.071004
      4          6           0        4.696413   -0.963515    0.167902
      5          6           0        5.081769   -2.364732    0.335763
      6          6           0        0.977092   -1.200808    0.103023
      7          6           0        2.955757    0.771149   -0.103843
      8          6           0        1.578250    1.138662   -0.205130
      9          6           0        0.565258    0.127039   -0.042321
     10          6           0        1.273124    2.514246   -0.601081
     11          6           0        3.693542    3.142394   -0.397479
     12          6           0        3.996334    1.732977   -0.184195
     13          6           0        5.346068    1.347139   -0.071792
     14          6           0        5.695841    0.024235    0.101115
     15          1           0        6.730736   -0.282717    0.182025
     16          1           0        6.096894    2.124780   -0.132823
     17          1           0        0.242257   -1.981448    0.252056
     18          7           0        2.341282    3.440359   -0.603420
     19          7           0        4.029586   -3.299842    0.386639
     20          8           0        1.832990   -3.904497    0.371040
     21          8           0        6.252011   -2.738195    0.428339
     22          8           0        4.549300    4.030791   -0.424630
     23          8           0        0.165052    2.931288   -0.944466
     24          6           0        1.985170    4.819893   -0.938397
     25          1           0        1.596955    4.873796   -1.957595
     26          1           0        1.203663    5.175665   -0.265416
     27          1           0        2.883129    5.423088   -0.841025
     28          6           0        4.364149   -4.715128    0.549032
     29          1           0        3.925363   -5.100013    1.471703
     30          1           0        3.954111   -5.291426   -0.282116
     31          1           0        5.446666   -4.797964    0.577879
     32          6           0       -0.871374    0.381057    0.127682
     33          6           0       -1.523658    1.448165    0.700008
     34         16           0       -2.032622   -0.818197   -0.415118
     35          6           0       -2.927644    1.300685    0.724809
     36          1           0       -1.002964    2.312285    1.075451
     37          6           0       -3.401261    0.123121    0.162142
     38          8           0       -3.816558    2.199625    1.246756
     39          6           0       -4.766830   -0.312333    0.033778
     40          6           0       -3.310319    3.470185    1.636460
     41          6           0       -5.247371   -1.491255   -0.521831
     42         16           0       -6.130452    0.650087    0.598839
     43          1           0       -4.177989    4.062832    1.925697
     44          1           0       -2.631592    3.381167    2.491885
     45          1           0       -2.787440    3.957946    0.807983
     46          6           0       -6.663781   -1.623195   -0.492516
     47          8           0       -4.365532   -2.392684   -1.048232
     48          6           0       -7.273054   -0.543410    0.084442
     49          1           0       -7.204374   -2.474938   -0.880554
     50          6           0       -4.861798   -3.663804   -1.430179
     51          1           0       -8.328600   -0.379570    0.236680
     52          1           0       -5.569168   -3.584250   -2.264532
     53          1           0       -3.995076   -4.241237   -1.749203
     54          1           0       -5.347254   -4.171822   -0.588655
 ---------------------------------------------------------------------

 The electronic state is 2-A.
 Alpha  occ. eigenvalues --  -88.80137 -88.78141 -19.08641 -19.08035 -18.99584
 Alpha  occ. eigenvalues --  -18.99445 -18.99119 -18.98915 -14.26491 -14.26142
 Alpha  occ. eigenvalues --  -10.18080 -10.17803 -10.17683 -10.17562 -10.16322
 Alpha  occ. eigenvalues --  -10.15974 -10.15349 -10.14954 -10.13395 -10.12661
 Alpha  occ. eigenvalues --  -10.12028 -10.11745 -10.11049 -10.10574 -10.10560
 Alpha  occ. eigenvalues --  -10.10347 -10.10288 -10.09937 -10.09288 -10.08697
 Alpha  occ. eigenvalues --  -10.08593 -10.08526 -10.08320 -10.08259 -10.07951
 Alpha  occ. eigenvalues --  -10.07889  -7.88690  -7.86706  -5.84999  -5.84616
 Alpha  occ. eigenvalues --   -5.84260  -5.83027  -5.82638  -5.82255  -1.00240
 Alpha  occ. eigenvalues --   -0.99414  -0.95649  -0.95365  -0.93584  -0.93228
 Alpha  occ. eigenvalues --   -0.83745  -0.83334  -0.81302  -0.79692  -0.78616
 Alpha  occ. eigenvalues --   -0.74086  -0.71661  -0.69817  -0.68340  -0.66882
 Alpha  occ. eigenvalues --   -0.65821  -0.65613  -0.63911  -0.63513  -0.61928
 Alpha  occ. eigenvalues --   -0.61087  -0.60373  -0.58462  -0.55078  -0.54008
 Alpha  occ. eigenvalues --   -0.53540  -0.52377  -0.51508  -0.49872  -0.48129
 Alpha  occ. eigenvalues --   -0.47431  -0.45984  -0.45760  -0.45226  -0.43115
 Alpha  occ. eigenvalues --   -0.41944  -0.40865  -0.40722  -0.39845  -0.39706
 Alpha  occ. eigenvalues --   -0.39312  -0.38303  -0.37980  -0.37898  -0.37491
 Alpha  occ. eigenvalues --   -0.37014  -0.36658  -0.36558  -0.35055  -0.34243
 Alpha  occ. eigenvalues --   -0.34208  -0.33784  -0.33242  -0.32999  -0.32680
 Alpha  occ. eigenvalues --   -0.32597  -0.32254  -0.31361  -0.30638  -0.30538
 Alpha  occ. eigenvalues --   -0.30303  -0.30034  -0.29896  -0.29569  -0.29344
 Alpha  occ. eigenvalues --   -0.29077  -0.28614  -0.27730  -0.27412  -0.27023
 Alpha  occ. eigenvalues --   -0.26073  -0.25562  -0.25103  -0.24740  -0.23779
 Alpha  occ. eigenvalues --   -0.22826  -0.20303  -0.19428  -0.18604  -0.17929
 Alpha  occ. eigenvalues --   -0.17780  -0.17232  -0.16974  -0.16388  -0.15974
 Alpha  occ. eigenvalues --   -0.15857  -0.14584  -0.13861  -0.10208  -0.05120
 Alpha virt. eigenvalues --    0.02815   0.04656   0.05793   0.06316   0.06874
 Alpha virt. eigenvalues --    0.07377   0.07488   0.08610   0.08938   0.09145
 Alpha virt. eigenvalues --    0.09514   0.09667   0.10147   0.10237   0.10626

  Beta  occ. eigenvalues --  -88.80134 -88.78129 -19.08629 -19.08042 -18.99409
  Beta  occ. eigenvalues --  -18.99248 -18.98938 -18.98709 -14.26539 -14.26193
  Beta  occ. eigenvalues --  -10.18035 -10.17761 -10.17629 -10.17518 -10.16322
  Beta  occ. eigenvalues --  -10.15944 -10.15348 -10.14984 -10.13416 -10.12631
  Beta  occ. eigenvalues --  -10.11963 -10.11792 -10.11061 -10.10559 -10.10445
  Beta  occ. eigenvalues --  -10.10346 -10.10340 -10.09994 -10.09112 -10.08550
  Beta  occ. eigenvalues --  -10.08415 -10.08375 -10.08286 -10.08203 -10.07872
  Beta  occ. eigenvalues --  -10.07809  -7.88688  -7.86694  -5.84997  -5.84615
  Beta  occ. eigenvalues --   -5.84253  -5.83021  -5.82632  -5.82219  -1.00214
  Beta  occ. eigenvalues --   -0.99430  -0.95419  -0.95125  -0.93267  -0.92898
  Beta  occ. eigenvalues --   -0.83633  -0.83220  -0.81272  -0.79579  -0.78523
  Beta  occ. eigenvalues --   -0.73777  -0.71366  -0.69724  -0.68292  -0.66789
  Beta  occ. eigenvalues --   -0.65712  -0.65229  -0.63820  -0.63454  -0.61887
  Beta  occ. eigenvalues --   -0.61037  -0.60122  -0.58198  -0.54933  -0.53815
  Beta  occ. eigenvalues --   -0.53449  -0.52205  -0.51465  -0.49825  -0.48105
  Beta  occ. eigenvalues --   -0.47368  -0.45922  -0.45677  -0.45109  -0.42962
  Beta  occ. eigenvalues --   -0.41847  -0.40832  -0.40683  -0.39856  -0.39674
  Beta  occ. eigenvalues --   -0.39152  -0.38086  -0.37912  -0.37735  -0.37461
  Beta  occ. eigenvalues --   -0.36914  -0.36600  -0.36454  -0.34967  -0.34135
  Beta  occ. eigenvalues --   -0.34098  -0.33689  -0.33179  -0.32916  -0.32521
  Beta  occ. eigenvalues --   -0.32353  -0.31993  -0.31255  -0.30365  -0.30244
  Beta  occ. eigenvalues --   -0.30161  -0.29940  -0.29621  -0.29194  -0.29025
  Beta  occ. eigenvalues --   -0.28580  -0.28308  -0.27659  -0.27179  -0.26771
  Beta  occ. eigenvalues --   -0.25993  -0.25520  -0.24991  -0.24613  -0.23702
  Beta  occ. eigenvalues --   -0.22198  -0.19916  -0.18543  -0.18418  -0.17609
  Beta  occ. eigenvalues --   -0.17335  -0.16907  -0.16728  -0.16164  -0.15709
  Beta  occ. eigenvalues --   -0.15485  -0.14359  -0.12541  -0.09800
  Beta virt. eigenvalues --   -0.00825   0.03163   0.05657   0.05795   0.06729
  Beta virt. eigenvalues --    0.06882   0.07479   0.08137   0.08617   0.08943
  Beta virt. eigenvalues --    0.09152   0.09545   0.09865   0.10165   0.10250

 Mulliken charges and spin densities:
               1          2
     1  C    0.260354   0.015184
     2  C   -0.166639   0.130461
     3  C    0.133611  -0.038519
     4  C    0.205188   0.099791
     5  C    0.180845   0.017789
     6  C   -0.265471   0.025770
     7  C    0.215792  -0.031694
     8  C    0.440130   0.134682
     9  C    0.363582   0.090755
    10  C   -0.643647   0.016367
    11  C    0.184409   0.019086
    12  C    0.128828   0.100051
    13  C   -0.481419   0.057137
    14  C   -0.580160   0.063034
    15  H    0.129940  -0.004357
    16  H    0.132166  -0.004122
    17  H    0.155489  -0.001352
    18  N   -0.077907  -0.020456
    19  N   -0.140427  -0.019331
    20  O   -0.357916   0.073793
    21  O   -0.343121   0.065521
    22  O   -0.349761   0.068161
    23  O   -0.285500   0.077606
    24  C   -0.168432   0.001592
    25  H    0.156862  -0.001070
    26  H    0.147829  -0.000791
    27  H    0.169220  -0.000367
    28  C   -0.191867   0.001127
    29  H    0.153524  -0.000900
    30  H    0.153547  -0.000851
    31  H    0.168488  -0.000329
    32  C    0.048147  -0.037527
    33  C   -0.432045   0.041105
    34  S   -0.654913   0.021271
    35  C   -0.230496  -0.015743
    36  H    0.128002  -0.003158
    37  C    0.687867   0.039920
    38  O   -0.130335  -0.001168
    39  C    0.842793  -0.014818
    40  C   -0.243114   0.000179
    41  C   -0.040298   0.020701
    42  S   -0.284114   0.001876
    43  H    0.146384   0.000003
    44  H    0.136898  -0.000216
    45  H    0.164264  -0.000143
    46  C   -0.582828  -0.008633
    47  O   -0.119812   0.001875
    48  C   -0.299494   0.021075
    49  H    0.115530   0.000415
    50  C   -0.246740  -0.000070
    51  H    0.141037  -0.001309
    52  H    0.125208   0.000237
    53  H    0.164115   0.000008
    54  H    0.136407   0.000350
 Sum of Mulliken charges =  -1.00000   1.00000

 Dipole moment (field-independent basis, Debye):
    X=            -11.2573    Y=             -0.3649    Z=              0.5992  Tot=             11.2792
 Quadrupole moment (field-independent basis, Debye-Ang):
   XX=           -316.4744   YY=           -257.1715   ZZ=           -228.1753
   XY=              5.3233   XZ=              0.6365   YZ=             14.4730

 Normal termination of Gaussian 16 at Tue Oct  5 14:34:29 2021.
