 Gaussian 16, Revision C.01,
 Gaussian 16:  ES64L-G16RevC.01  3-Jul-2019

 -------------------------------------
 # opt=modredundant b3lyp/6-311+g(d,p)
 -------------------------------------

 ----------
 NDI_55.pdb
 ----------
 Symbolic Z-matrix:
 Charge = -1 Multiplicity = 2

 SCF Done:  E(UB3LYP) =  -2359.42087788     A.U. after   23 cycles
 SCF Done:  E(UB3LYP) =  -2359.42693369     A.U. after   20 cycles
 SCF Done:  E(UB3LYP) =  -2359.42798351     A.U. after   20 cycles
 SCF Done:  E(UB3LYP) =  -2359.42807811     A.U. after   18 cycles
 SCF Done:  E(UB3LYP) =  -2359.42843846     A.U. after   15 cycles
 SCF Done:  E(UB3LYP) =  -2359.42860680     A.U. after   17 cycles
 SCF Done:  E(UB3LYP) =  -2359.42868940     A.U. after   17 cycles
 SCF Done:  E(UB3LYP) =  -2359.42874685     A.U. after   15 cycles
 SCF Done:  E(UB3LYP) =  -2359.42878606     A.U. after   16 cycles
 SCF Done:  E(UB3LYP) =  -2359.42880186     A.U. after   16 cycles
 SCF Done:  E(UB3LYP) =  -2359.42890296     A.U. after   12 cycles
 SCF Done:  E(UB3LYP) =  -2359.42890334     A.U. after   12 cycles
 SCF Done:  E(UB3LYP) =  -2359.42890359     A.U. after   12 cycles
 SCF Done:  E(UB3LYP) =  -2359.42890370     A.U. after   11 cycles
 SCF Done:  E(UB3LYP) =  -2359.42890384     A.U. after   11 cycles
 SCF Done:  E(UB3LYP) =  -2359.42890396     A.U. after   10 cycles
 SCF Done:  E(UB3LYP) =  -2359.42890405     A.U. after   11 cycles
 SCF Done:  E(UB3LYP) =  -2359.42890411     A.U. after   11 cycles
 SCF Done:  E(UB3LYP) =  -2359.42890414     A.U. after   11 cycles
 SCF Done:  E(UB3LYP) =  -2359.42890415     A.U. after    9 cycles
 Optimization completed.
    -- Stationary point found.

                         Standard orientation:
 ---------------------------------------------------------------------
 Center     Atomic      Atomic             Coordinates (Angstroms)
 Number     Number       Type             X           Y           Z
 ---------------------------------------------------------------------
      1          6           0       -2.808369   -2.920036    0.553434
      2          6           0       -2.395930   -1.541115    0.311330
      3          6           0       -3.362506   -0.535853    0.075664
      4          6           0       -4.742841   -0.844004    0.068665
      5          6           0       -5.197240   -2.212465    0.308184
      6          6           0       -1.037635   -1.208726    0.345648
      7          6           0       -2.921374    0.809053   -0.165091
      8          6           0       -1.529270    1.123073   -0.157597
      9          6           0       -0.579637    0.092273    0.144538
     10          6           0       -1.122351    2.479151   -0.530317
     11          6           0       -3.528384    3.175658   -0.695061
     12          6           0       -3.908523    1.796290   -0.417109
     13          6           0       -5.276800    1.461608   -0.412093
     14          6           0       -5.690677    0.167516   -0.173220
     15          1           0       -6.739784   -0.099585   -0.170828
     16          1           0       -5.989042    2.253626   -0.606002
     17          1           0       -0.334485   -1.997089    0.581314
     18          7           0       -2.149878    3.424888   -0.742722
     19          7           0       -4.191335   -3.172714    0.533943
     20          8           0       -2.027820   -3.848794    0.768588
     21          8           0       -6.385211   -2.540424    0.317346
     22          8           0       -4.341401    4.082282   -0.893093
     23          8           0        0.040388    2.856940   -0.679961
     24          6           0       -1.705645    4.777077   -1.084085
     25          1           0       -1.061142    5.168750   -0.295164
     26          1           0       -1.126238    4.759391   -2.009017
     27          1           0       -2.591764    5.394554   -1.198337
     28          6           0       -4.594940   -4.558168    0.776328
     29          1           0       -4.143047   -5.213512    0.029579
     30          1           0       -4.247657   -4.882140    1.759330
     31          1           0       -5.678705   -4.601488    0.720194
     32          6           0        0.870031    0.312569    0.306161
     33          6           0        1.531237    1.177455    1.140591
     34         16           0        1.997962   -0.723705   -0.530397
     35          6           0        2.936636    1.021441    1.101948
     36          1           0        1.014548    1.913039    1.737002
     37          6           0        3.387860    0.026803    0.245851
     38          8           0        3.842748    1.744724    1.828639
     39          6           0        4.747938   -0.366693   -0.019084
     40          6           0        3.365759    2.902071    2.502167
     41          6           0        5.205862   -1.367392   -0.865234
     42         16           0        6.131217    0.418850    0.737523
     43          1           0        4.245148    3.388489    2.923959
     44          1           0        2.863177    3.583353    1.808332
     45          1           0        2.677906    2.635229    3.312240
     46          6           0        6.621871   -1.504336   -0.906008
     47          8           0        4.304291   -2.107697   -1.578106
     48          6           0        7.252727   -0.606471   -0.090292
     49          1           0        7.146764   -2.231179   -1.509704
     50          6           0        4.787437   -3.224943   -2.302917
     51          1           0        8.312709   -0.488487    0.073146
     52          1           0        5.298249   -3.937589   -1.644680
     53          1           0        3.910911   -3.701801   -2.739779
     54          1           0        5.468703   -2.918386   -3.105866
 ---------------------------------------------------------------------

 The electronic state is 2-A.
 Alpha  occ. eigenvalues --  -88.80115 -88.78269 -19.08650 -19.08069 -18.99428
 Alpha  occ. eigenvalues --  -18.99305 -18.99111 -18.98912 -14.26376 -14.26129
 Alpha  occ. eigenvalues --  -10.17926 -10.17666 -10.17650 -10.17569 -10.16372
 Alpha  occ. eigenvalues --  -10.15928 -10.15474 -10.14981 -10.13371 -10.12621
 Alpha  occ. eigenvalues --  -10.11928 -10.11745 -10.11032 -10.10460 -10.10416
 Alpha  occ. eigenvalues --  -10.10267 -10.10235 -10.09946 -10.09309 -10.08600
 Alpha  occ. eigenvalues --  -10.08541 -10.08508 -10.08378 -10.08227 -10.07928
 Alpha  occ. eigenvalues --  -10.07866  -7.88668  -7.86827  -5.84977  -5.84594
 Alpha  occ. eigenvalues --   -5.84238  -5.83147  -5.82757  -5.82377  -1.00235
 Alpha  occ. eigenvalues --   -0.99449  -0.95496  -0.95333  -0.93424  -0.93214
 Alpha  occ. eigenvalues --   -0.83616  -0.83310  -0.81291  -0.79717  -0.78633
 Alpha  occ. eigenvalues --   -0.74059  -0.71626  -0.69805  -0.68332  -0.66825
 Alpha  occ. eigenvalues --   -0.65893  -0.65549  -0.63904  -0.63456  -0.61955
 Alpha  occ. eigenvalues --   -0.61023  -0.60331  -0.58502  -0.54978  -0.53959
 Alpha  occ. eigenvalues --   -0.53467  -0.52300  -0.51549  -0.49852  -0.48131
 Alpha  occ. eigenvalues --   -0.47467  -0.45900  -0.45801  -0.45183  -0.43030
 Alpha  occ. eigenvalues --   -0.41807  -0.40889  -0.40778  -0.39951  -0.39810
 Alpha  occ. eigenvalues --   -0.39287  -0.38215  -0.37961  -0.37867  -0.37495
 Alpha  occ. eigenvalues --   -0.36969  -0.36585  -0.36538  -0.34995  -0.34360
 Alpha  occ. eigenvalues --   -0.34157  -0.33755  -0.33326  -0.32941  -0.32620
 Alpha  occ. eigenvalues --   -0.32477  -0.32251  -0.31492  -0.30522  -0.30405
 Alpha  occ. eigenvalues --   -0.30212  -0.29952  -0.29858  -0.29474  -0.29252
 Alpha  occ. eigenvalues --   -0.29146  -0.28728  -0.27788  -0.27273  -0.27046
 Alpha  occ. eigenvalues --   -0.26047  -0.25584  -0.24948  -0.24367  -0.24050
 Alpha  occ. eigenvalues --   -0.22882  -0.20131  -0.19471  -0.18483  -0.17862
 Alpha  occ. eigenvalues --   -0.17703  -0.17165  -0.16896  -0.16255  -0.16049
 Alpha  occ. eigenvalues --   -0.15791  -0.14567  -0.13889  -0.10222  -0.05116
 Alpha virt. eigenvalues --    0.03229   0.04680   0.05771   0.06443   0.06832
 Alpha virt. eigenvalues --    0.07356   0.07446   0.08605   0.08998   0.09059
 Alpha virt. eigenvalues --    0.09163   0.09482   0.09938   0.10208   0.10651

  Beta  occ. eigenvalues --  -88.80113 -88.78263 -19.08644 -19.08073 -18.99242
  Beta  occ. eigenvalues --  -18.99102 -18.98924 -18.98698 -14.26426 -14.26181
  Beta  occ. eigenvalues --  -10.17878 -10.17622 -10.17601 -10.17523 -10.16372
  Beta  occ. eigenvalues --  -10.15911 -10.15473 -10.14998 -10.13382 -10.12604
  Beta  occ. eigenvalues --  -10.11890 -10.11775 -10.11039 -10.10459 -10.10302
  Beta  occ. eigenvalues --  -10.10290 -10.10266 -10.10003 -10.09127 -10.08444
  Beta  occ. eigenvalues --  -10.08359 -10.08350 -10.08342 -10.08180 -10.07845
  Beta  occ. eigenvalues --  -10.07784  -7.88667  -7.86820  -5.84976  -5.84593
  Beta  occ. eigenvalues --   -5.84234  -5.83142  -5.82752  -5.82363  -1.00222
  Beta  occ. eigenvalues --   -0.99457  -0.95256  -0.95087  -0.93093  -0.92875
  Beta  occ. eigenvalues --   -0.83499  -0.83194  -0.81271  -0.79610  -0.78537
  Beta  occ. eigenvalues --   -0.73743  -0.71321  -0.69722  -0.68293  -0.66738
  Beta  occ. eigenvalues --   -0.65778  -0.65142  -0.63826  -0.63399  -0.61927
  Beta  occ. eigenvalues --   -0.60972  -0.60088  -0.58219  -0.54833  -0.53758
  Beta  occ. eigenvalues --   -0.53377  -0.52119  -0.51520  -0.49805  -0.48114
  Beta  occ. eigenvalues --   -0.47404  -0.45874  -0.45688  -0.45060  -0.42872
  Beta  occ. eigenvalues --   -0.41701  -0.40869  -0.40750  -0.39953  -0.39789
  Beta  occ. eigenvalues --   -0.39125  -0.37983  -0.37910  -0.37683  -0.37471
  Beta  occ. eigenvalues --   -0.36873  -0.36528  -0.36425  -0.34917  -0.34239
  Beta  occ. eigenvalues --   -0.34047  -0.33653  -0.33270  -0.32892  -0.32456
  Beta  occ. eigenvalues --   -0.32246  -0.31957  -0.31393  -0.30219  -0.30153
  Beta  occ. eigenvalues --   -0.30086  -0.29781  -0.29624  -0.29121  -0.28979
  Beta  occ. eigenvalues --   -0.28666  -0.28250  -0.27743  -0.27046  -0.26774
  Beta  occ. eigenvalues --   -0.26001  -0.25555  -0.24865  -0.24263  -0.24009
  Beta  occ. eigenvalues --   -0.22103  -0.19865  -0.18537  -0.18296  -0.17540
  Beta  occ. eigenvalues --   -0.17205  -0.16804  -0.16707  -0.16011  -0.15680
  Beta  occ. eigenvalues --   -0.15527  -0.14419  -0.12422  -0.09992
  Beta virt. eigenvalues --   -0.00673   0.03451   0.05744   0.05774   0.06825
  Beta virt. eigenvalues --    0.06896   0.07386   0.08189   0.08612   0.09008
  Beta virt. eigenvalues --    0.09166   0.09254   0.09493   0.09949   0.10214

 Mulliken charges and spin densities:
               1          2
     1  C    0.335643   0.015739
     2  C   -0.166046   0.133692
     3  C    0.089410  -0.040845
     4  C    0.207625   0.108428
     5  C    0.190922   0.017292
     6  C   -0.768782   0.040266
     7  C    0.187974  -0.034384
     8  C    0.175744   0.136583
     9  C    0.633829   0.076259
    10  C   -0.389272   0.020445
    11  C    0.301646   0.020484
    12  C    0.114546   0.106945
    13  C   -0.532595   0.061042
    14  C   -0.619431   0.063192
    15  H    0.129969  -0.004490
    16  H    0.131924  -0.004333
    17  H    0.158456  -0.002521
    18  N   -0.138795  -0.020725
    19  N   -0.143517  -0.020235
    20  O   -0.354915   0.076308
    21  O   -0.346462   0.069558
    22  O   -0.350494   0.070142
    23  O   -0.231002   0.079981
    24  C   -0.181204   0.001331
    25  H    0.151048  -0.000871
    26  H    0.157356  -0.001023
    27  H    0.170457  -0.000361
    28  C   -0.190267   0.001237
    29  H    0.153133  -0.000894
    30  H    0.153264  -0.000939
    31  H    0.169295  -0.000347
    32  C    0.148368  -0.030947
    33  C   -0.294601   0.024542
    34  S   -0.491972   0.011353
    35  C   -0.435501  -0.006436
    36  H    0.114482  -0.002099
    37  C    0.563887   0.028000
    38  O   -0.122318  -0.000744
    39  C    0.903713  -0.009738
    40  C   -0.250324   0.000415
    41  C   -0.048140   0.010267
    42  S   -0.268824   0.001195
    43  H    0.146527  -0.000002
    44  H    0.161272  -0.000043
    45  H    0.135963  -0.000108
    46  C   -0.469921  -0.005231
    47  O   -0.122070   0.001372
    48  C   -0.304598   0.011276
    49  H    0.115317   0.000225
    50  C   -0.245975   0.000138
    51  H    0.140715  -0.000700
    52  H    0.135496   0.000161
    53  H    0.161892   0.000017
    54  H    0.127155   0.000132
 Sum of Mulliken charges =  -1.00000   1.00000

 Dipole moment (field-independent basis, Debye):
    X=             11.3118    Y=             -0.3376    Z=              0.4859  Tot=             11.3273
 Quadrupole moment (field-independent basis, Debye-Ang):
   XX=           -317.8188   YY=           -261.2950   ZZ=           -223.5279
   XY=             -4.8315   XZ=             -6.0233   YZ=             20.6672

 Normal termination of Gaussian 16 at Tue Oct  5 22:28:54 2021.
