 Gaussian 16, Revision C.01,
 Gaussian 16:  ES64L-G16RevC.01  3-Jul-2019

 -------------------------------------
 # opt=modredundant b3lyp/6-311+g(d,p)
 -------------------------------------

 -----------
 NDI_155.pdb
 -----------
 Symbolic Z-matrix:
 Charge = -1 Multiplicity = 2

 SCF Done:  E(UB3LYP) =  -2359.39475135     A.U. after   24 cycles
 SCF Done:  E(UB3LYP) =  -2359.41053619     A.U. after   23 cycles
 SCF Done:  E(UB3LYP) =  -2359.41841009     A.U. after   21 cycles
 SCF Done:  E(UB3LYP) =  -2359.42234965     A.U. after   20 cycles
 SCF Done:  E(UB3LYP) =  -2359.42357707     A.U. after   20 cycles
 SCF Done:  E(UB3LYP) =  -2359.42424837     A.U. after   22 cycles
 SCF Done:  E(UB3LYP) =  -2359.42450043     A.U. after   19 cycles
 SCF Done:  E(UB3LYP) =  -2359.42488563     A.U. after   17 cycles
 SCF Done:  E(UB3LYP) =  -2359.42514423     A.U. after   20 cycles
 SCF Done:  E(UB3LYP) =  -2359.42389429     A.U. after   22 cycles
 SCF Done:  E(UB3LYP) =  -2359.42619196     A.U. after   15 cycles
 SCF Done:  E(UB3LYP) =  -2359.42619394     A.U. after   12 cycles
 SCF Done:  E(UB3LYP) =  -2359.42619416     A.U. after   10 cycles
 SCF Done:  E(UB3LYP) =  -2359.42619441     A.U. after   10 cycles
 SCF Done:  E(UB3LYP) =  -2359.42619453     A.U. after    9 cycles
 SCF Done:  E(UB3LYP) =  -2359.42619477     A.U. after   10 cycles
 SCF Done:  E(UB3LYP) =  -2359.42619495     A.U. after    9 cycles
 SCF Done:  E(UB3LYP) =  -2359.42619517     A.U. after    9 cycles
 SCF Done:  E(UB3LYP) =  -2359.42619528     A.U. after   10 cycles
 SCF Done:  E(UB3LYP) =  -2359.42619534     A.U. after   10 cycles
 Optimization completed.
    -- Stationary point found.

                         Standard orientation:
 ---------------------------------------------------------------------
 Center     Atomic      Atomic             Coordinates (Angstroms)
 Number     Number       Type             X           Y           Z
 ---------------------------------------------------------------------
      1          6           0       -3.493640   -2.687965   -0.294549
      2          6           0       -2.768069   -1.449906   -0.029777
      3          6           0       -3.428821   -0.201606   -0.116415
      4          6           0       -4.795520   -0.123910   -0.465036
      5          6           0       -5.556902   -1.340807   -0.742446
      6          6           0       -1.399928   -1.496922    0.248251
      7          6           0       -2.685383    0.991893    0.166145
      8          6           0       -1.307714    0.914270    0.523433
      9          6           0       -0.639233   -0.355022    0.509392
     10          6           0       -0.671313    2.122985    1.044388
     11          6           0       -2.678109    3.480205    0.407743
     12          6           0       -3.367957    2.233519    0.093820
     13          6           0       -4.727781    2.282906   -0.268646
     14          6           0       -5.432780    1.128764   -0.544146
     15          1           0       -6.479953    1.157451   -0.817169
     16          1           0       -5.200774    3.255700   -0.316980
     17          1           0       -0.920205   -2.464561    0.192259
     18          7           0       -1.361069    3.342201    0.865908
     19          7           0       -4.851379   -2.556803   -0.633682
     20          8           0       -2.990751   -3.812096   -0.236244
     21          8           0       -6.749027   -1.338901   -1.053391
     22          8           0       -3.199870    4.593792    0.312360
     23          8           0        0.407259    2.148834    1.636834
     24          6           0       -0.656828    4.545474    1.310767
     25          1           0       -0.572447    4.559323    2.400397
     26          1           0        0.351636    4.550493    0.897614
     27          1           0       -1.226381    5.405816    0.971053
     28          6           0       -5.571673   -3.803107   -0.896754
     29          1           0       -5.106798   -4.334914   -1.729148
     30          1           0       -5.527466   -4.451027   -0.019464
     31          1           0       -6.600193   -3.546939   -1.133562
     32          6           0        0.816129   -0.565561    0.585618
     33          6           0        1.437613   -1.708574    1.051213
     34         16           0        1.969089    0.456290   -0.231949
     35          6           0        2.822821   -1.748765    0.777124
     36          1           0        0.903154   -2.478095    1.588290
     37          6           0        3.298972   -0.655092    0.068125
     38          8           0        3.691372   -2.737425    1.155078
     39          6           0        4.654969   -0.384905   -0.335633
     40          6           0        3.155899   -3.852682    1.851032
     41          6           0        5.139149    0.697095   -1.058516
     42         16           0        5.997653   -1.457594    0.054345
     43          1           0        3.996460   -4.518713    2.044537
     44          1           0        2.705949   -3.549361    2.802806
     45          1           0        2.407295   -4.377260    1.247362
     46          6           0        6.544077    0.675353   -1.284539
     47          8           0        4.268886    1.650282   -1.507033
     48          6           0        7.139685   -0.427988   -0.739781
     49          1           0        7.084954    1.437953   -1.827110
     50          6           0        4.808018    2.882504   -1.954641
     51          1           0        8.183855   -0.698976   -0.763196
     52          1           0        5.390605    2.755648   -2.875213
     53          1           0        3.954623    3.527926   -2.158910
     54          1           0        5.437908    3.343795   -1.185361
 ---------------------------------------------------------------------

 The electronic state is 2-A.
 Alpha  occ. eigenvalues --  -88.80124 -88.77920 -19.08508 -19.08258 -18.99522
 Alpha  occ. eigenvalues --  -18.99440 -18.99062 -18.98865 -14.26466 -14.25996
 Alpha  occ. eigenvalues --  -10.18017 -10.17788 -10.17514 -10.17474 -10.16224
 Alpha  occ. eigenvalues --  -10.15907 -10.15764 -10.15020 -10.13362 -10.12660
 Alpha  occ. eigenvalues --  -10.11959 -10.11929 -10.11012 -10.10546 -10.10425
 Alpha  occ. eigenvalues --  -10.10174 -10.10136 -10.09885 -10.09050 -10.08668
 Alpha  occ. eigenvalues --  -10.08622 -10.08558 -10.08476 -10.08370 -10.07924
 Alpha  occ. eigenvalues --  -10.07863  -7.88679  -7.86469  -5.84988  -5.84605
 Alpha  occ. eigenvalues --   -5.84249  -5.82796  -5.82397  -5.82011  -1.00119
 Alpha  occ. eigenvalues --   -0.99641  -0.95585  -0.95262  -0.93522  -0.93161
 Alpha  occ. eigenvalues --   -0.83694  -0.83265  -0.81280  -0.79702  -0.78617
 Alpha  occ. eigenvalues --   -0.74075  -0.71612  -0.69854  -0.68282  -0.66731
 Alpha  occ. eigenvalues --   -0.66213  -0.65459  -0.63868  -0.63423  -0.61957
 Alpha  occ. eigenvalues --   -0.61011  -0.60301  -0.58593  -0.54922  -0.54018
 Alpha  occ. eigenvalues --   -0.53396  -0.52437  -0.51454  -0.49801  -0.48046
 Alpha  occ. eigenvalues --   -0.47590  -0.46052  -0.45802  -0.45165  -0.43058
 Alpha  occ. eigenvalues --   -0.42092  -0.40765  -0.40376  -0.40165  -0.39892
 Alpha  occ. eigenvalues --   -0.39208  -0.38286  -0.38020  -0.37869  -0.37478
 Alpha  occ. eigenvalues --   -0.36965  -0.36616  -0.36488  -0.35317  -0.34328
 Alpha  occ. eigenvalues --   -0.34006  -0.33701  -0.33424  -0.32942  -0.32586
 Alpha  occ. eigenvalues --   -0.32489  -0.32249  -0.31563  -0.30537  -0.30429
 Alpha  occ. eigenvalues --   -0.30267  -0.29955  -0.29802  -0.29679  -0.29281
 Alpha  occ. eigenvalues --   -0.28901  -0.28596  -0.27734  -0.27543  -0.26924
 Alpha  occ. eigenvalues --   -0.26001  -0.25507  -0.25124  -0.24449  -0.23996
 Alpha  occ. eigenvalues --   -0.22673  -0.20165  -0.19388  -0.18578  -0.17897
 Alpha  occ. eigenvalues --   -0.17689  -0.17165  -0.16848  -0.16344  -0.15930
 Alpha  occ. eigenvalues --   -0.15825  -0.14540  -0.13828  -0.10203  -0.05059
 Alpha virt. eigenvalues --    0.02917   0.04763   0.05832   0.06260   0.06796
 Alpha virt. eigenvalues --    0.07390   0.07447   0.08601   0.08891   0.09096
 Alpha virt. eigenvalues --    0.09342   0.09593   0.10134   0.10410   0.10619

  Beta  occ. eigenvalues --  -88.80122 -88.77913 -19.08497 -19.08266 -18.99344
  Beta  occ. eigenvalues --  -18.99244 -18.98878 -18.98657 -14.26515 -14.26046
  Beta  occ. eigenvalues --  -10.17970 -10.17742 -10.17471 -10.17428 -10.16224
  Beta  occ. eigenvalues --  -10.15879 -10.15764 -10.15048 -10.13382 -10.12632
  Beta  occ. eigenvalues --  -10.11971 -10.11901 -10.11023 -10.10545 -10.10309
  Beta  occ. eigenvalues --  -10.10191 -10.10173 -10.09939 -10.08862 -10.08612
  Beta  occ. eigenvalues --  -10.08479 -10.08392 -10.08322 -10.08313 -10.07844
  Beta  occ. eigenvalues --  -10.07780  -7.88677  -7.86463  -5.84987  -5.84604
  Beta  occ. eigenvalues --   -5.84243  -5.82790  -5.82392  -5.81994  -1.00095
  Beta  occ. eigenvalues --   -0.99657  -0.95354  -0.95020  -0.93204  -0.92829
  Beta  occ. eigenvalues --   -0.83583  -0.83151  -0.81252  -0.79593  -0.78522
  Beta  occ. eigenvalues --   -0.73767  -0.71312  -0.69756  -0.68245  -0.66658
  Beta  occ. eigenvalues --   -0.66083  -0.65056  -0.63791  -0.63364  -0.61925
  Beta  occ. eigenvalues --   -0.60960  -0.60070  -0.58302  -0.54776  -0.53842
  Beta  occ. eigenvalues --   -0.53273  -0.52329  -0.51379  -0.49736  -0.48021
  Beta  occ. eigenvalues --   -0.47536  -0.46012  -0.45698  -0.45044  -0.42912
  Beta  occ. eigenvalues --   -0.41999  -0.40735  -0.40332  -0.40174  -0.39847
  Beta  occ. eigenvalues --   -0.39065  -0.38064  -0.37961  -0.37682  -0.37448
  Beta  occ. eigenvalues --   -0.36884  -0.36497  -0.36428  -0.35229  -0.34173
  Beta  occ. eigenvalues --   -0.33955  -0.33581  -0.33360  -0.32861  -0.32430
  Beta  occ. eigenvalues --   -0.32257  -0.32005  -0.31427  -0.30331  -0.30202
  Beta  occ. eigenvalues --   -0.30098  -0.29810  -0.29588  -0.29073  -0.29010
  Beta  occ. eigenvalues --   -0.28605  -0.28188  -0.27656  -0.27287  -0.26689
  Beta  occ. eigenvalues --   -0.25905  -0.25474  -0.24987  -0.24354  -0.23924
  Beta  occ. eigenvalues --   -0.22027  -0.19814  -0.18471  -0.18385  -0.17535
  Beta  occ. eigenvalues --   -0.17289  -0.16868  -0.16615  -0.16135  -0.15617
  Beta  occ. eigenvalues --   -0.15431  -0.14360  -0.12461  -0.09846
  Beta virt. eigenvalues --   -0.00728   0.03268   0.05772   0.05833   0.06643
  Beta virt. eigenvalues --    0.06802   0.07401   0.08201   0.08605   0.08897
  Beta virt. eigenvalues --    0.09125   0.09381   0.09772   0.10144   0.10418

 Mulliken charges and spin densities:
               1          2
     1  C    0.301035   0.018674
     2  C   -0.072975   0.124672
     3  C    0.116006  -0.038876
     4  C    0.242451   0.098583
     5  C    0.159679   0.019126
     6  C   -0.053156   0.030128
     7  C    0.146584  -0.035882
     8  C    0.184775   0.143047
     9  C    0.240126   0.079599
    10  C   -0.547195   0.013396
    11  C    0.280700   0.018966
    12  C    0.081810   0.108362
    13  C   -0.483018   0.052071
    14  C   -0.571329   0.068662
    15  H    0.129818  -0.004779
    16  H    0.131756  -0.003848
    17  H    0.138977  -0.001687
    18  N   -0.036059  -0.019930
    19  N   -0.143588  -0.019945
    20  O   -0.360389   0.073179
    21  O   -0.345249   0.066422
    22  O   -0.352563   0.068855
    23  O   -0.282633   0.079293
    24  C   -0.176080   0.001555
    25  H    0.155200  -0.001119
    26  H    0.159029  -0.000665
    27  H    0.168403  -0.000389
    28  C   -0.185834   0.001277
    29  H    0.153634  -0.000914
    30  H    0.152195  -0.000880
    31  H    0.168928  -0.000335
    32  C    0.112849  -0.017053
    33  C   -0.712778   0.041082
    34  S   -0.685525   0.012913
    35  C   -0.113613  -0.019881
    36  H    0.125720  -0.001894
    37  C    0.707460   0.029140
    38  O   -0.139809  -0.001042
    39  C    0.855264  -0.012514
    40  C   -0.223068   0.000189
    41  C   -0.079993   0.019560
    42  S   -0.270276   0.001420
    43  H    0.149169   0.000000
    44  H    0.141864  -0.000218
    45  H    0.148083  -0.000152
    46  C   -0.502149  -0.008806
    47  O   -0.120578   0.001603
    48  C   -0.315313   0.019624
    49  H    0.114140   0.000387
    50  C   -0.258854  -0.000294
    51  H    0.141262  -0.001219
    52  H    0.123827   0.000202
    53  H    0.160908   0.000031
    54  H    0.140368   0.000306
 Sum of Mulliken charges =  -1.00000   1.00000

 Dipole moment (field-independent basis, Debye):
    X=             11.1735    Y=             -1.2723    Z=             -0.2507  Tot=             11.2485
 Quadrupole moment (field-independent basis, Debye-Ang):
   XX=           -312.1617   YY=           -258.9418   ZZ=           -229.3842
   XY=              9.8773   XZ=            -12.7790   YZ=            -14.6603

 Normal termination of Gaussian 16 at Tue Oct  5 21:23:12 2021.
