 Gaussian 16, Revision C.01,
 Gaussian 16:  ES64L-G16RevC.01  3-Jul-2019

 -------------------------------------
 # opt=modredundant b3lyp/6-311+g(d,p)
 -------------------------------------

 ---------
 NDI_0.pdb
 ---------
 Symbolic Z-matrix:
 Charge =  0 Multiplicity = 1

 SCF Done:  E(RB3LYP) =  -2359.32049243     A.U. after   16 cycles
 SCF Done:  E(RB3LYP) =  -2359.31439327     A.U. after   17 cycles
 SCF Done:  E(RB3LYP) =  -2359.33146009     A.U. after   15 cycles
 SCF Done:  E(RB3LYP) =  -2359.33415663     A.U. after   17 cycles
 SCF Done:  E(RB3LYP) =  -2359.33469548     A.U. after   13 cycles
 SCF Done:  E(RB3LYP) =  -2359.33513956     A.U. after   13 cycles
 SCF Done:  E(RB3LYP) =  -2359.33521996     A.U. after   13 cycles
 SCF Done:  E(RB3LYP) =  -2359.33532876     A.U. after   13 cycles
 SCF Done:  E(RB3LYP) =  -2359.33536019     A.U. after   12 cycles
 SCF Done:  E(RB3LYP) =  -2359.33537947     A.U. after   12 cycles
 SCF Done:  E(RB3LYP) =  -2359.33540227     A.U. after   11 cycles
 SCF Done:  E(RB3LYP) =  -2359.33540705     A.U. after   12 cycles
 SCF Done:  E(RB3LYP) =  -2359.33540866     A.U. after   11 cycles
 SCF Done:  E(RB3LYP) =  -2359.33540923     A.U. after   10 cycles
 SCF Done:  E(RB3LYP) =  -2359.33540954     A.U. after   10 cycles
 SCF Done:  E(RB3LYP) =  -2359.33540967     A.U. after    9 cycles
 SCF Done:  E(RB3LYP) =  -2359.33540975     A.U. after    9 cycles
 SCF Done:  E(RB3LYP) =  -2359.33540981     A.U. after    8 cycles
 SCF Done:  E(RB3LYP) =  -2359.33540985     A.U. after    9 cycles
 SCF Done:  E(RB3LYP) =  -2359.33540987     A.U. after    9 cycles
 Optimization completed.
    -- Stationary point found.

                         Standard orientation:
 ---------------------------------------------------------------------
 Center     Atomic      Atomic             Coordinates (Angstroms)
 Number     Number       Type             X           Y           Z
 ---------------------------------------------------------------------
      1          6           0       -2.388832   -3.034686    0.174528
      2          6           0       -2.165255   -1.565036    0.149224
      3          6           0       -3.250515   -0.675886   -0.020386
      4          6           0       -4.556365   -1.168917   -0.202658
      5          6           0       -4.815177   -2.633558   -0.202389
      6          6           0       -0.892930   -1.080590    0.257248
      7          6           0       -2.986623    0.720754    0.008082
      8          6           0       -1.657490    1.220980    0.197932
      9          6           0       -0.556076    0.312273    0.236794
     10          6           0       -1.540856    2.677371    0.453440
     11          6           0       -3.922359    3.053173   -0.171387
     12          6           0       -4.095412    1.586427   -0.177363
     13          6           0       -5.374427    1.083002   -0.376960
     14          6           0       -5.615346   -0.292014   -0.383918
     15          1           0       -6.611698   -0.688970   -0.528270
     16          1           0       -6.180513    1.790380   -0.525264
     17          1           0       -0.114161   -1.825533    0.350023
     18          7           0       -2.641164    3.499789    0.152010
     19          7           0       -3.704687   -3.472960   -0.004853
     20          8           0       -1.487845   -3.837581    0.337407
     21          8           0       -5.930429   -3.093310   -0.360024
     22          8           0       -4.833547    3.829648   -0.403315
     23          8           0       -0.554120    3.213978    0.934628
     24          6           0       -2.435409    4.944768    0.323858
     25          1           0       -2.273432    5.179975    1.376733
     26          1           0       -1.555999    5.257643   -0.237602
     27          1           0       -3.324180    5.449317   -0.041936
     28          6           0       -3.916253   -4.927218    0.014038
     29          1           0       -3.325616   -5.395158   -0.773866
     30          1           0       -3.594558   -5.333445    0.973297
     31          1           0       -4.974151   -5.112593   -0.142213
     32          6           0        0.874898    0.592533    0.150846
     33          6           0        1.601045    1.766518    0.010852
     34         16           0        1.998285   -0.780232    0.155142
     35          6           0        2.985926    1.574095   -0.102422
     36          1           0        1.139999    2.735622    0.020106
     37          6           0        3.395867    0.240331   -0.038411
     38          8           0        3.923975    2.544648   -0.248229
     39          6           0        4.733143   -0.271257   -0.103432
     40          6           0        3.485008    3.902184   -0.274076
     41          6           0        5.138948   -1.601753   -0.025927
     42         16           0        6.146888    0.759558   -0.300427
     43          1           0        4.387004    4.503418   -0.371491
     44          1           0        2.828601    4.084731   -1.130521
     45          1           0        2.964335    4.164390    0.651560
     46          6           0        6.544666   -1.786725   -0.121255
     47          8           0        4.205418   -2.571913    0.126304
     48          6           0        7.206435   -0.599073   -0.271777
     49          1           0        7.041390   -2.744937   -0.080990
     50          6           0        4.642567   -3.926472    0.214334
     51          1           0        8.270775   -0.447675   -0.367901
     52          1           0        5.295666   -4.072206    1.080351
     53          1           0        3.739939   -4.522150    0.334958
     54          1           0        5.162116   -4.230942   -0.699531
 ---------------------------------------------------------------------

 The electronic state is 1-A.
 Alpha  occ. eigenvalues --  -88.88956 -88.88687 -19.17721 -19.17239 -19.12133
 Alpha  occ. eigenvalues --  -19.12125 -19.11645 -19.11360 -14.38317 -14.37842
 Alpha  occ. eigenvalues --  -10.30719 -10.30587 -10.30452 -10.29900 -10.25516
 Alpha  occ. eigenvalues --  -10.24960 -10.24226 -10.24079 -10.23714 -10.23070
 Alpha  occ. eigenvalues --  -10.22652 -10.22550 -10.22315 -10.22279 -10.21977
 Alpha  occ. eigenvalues --  -10.21788 -10.21779 -10.21652 -10.21460 -10.21195
 Alpha  occ. eigenvalues --  -10.20821 -10.20620 -10.20548 -10.20453 -10.19506
 Alpha  occ. eigenvalues --  -10.18739  -7.97506  -7.97265  -5.93815  -5.93584
 Alpha  occ. eigenvalues --   -5.93425  -5.93188  -5.93074  -5.92807  -1.09311
 Alpha  occ. eigenvalues --   -1.08806  -1.08393  -1.08041  -1.06576  -1.06036
 Alpha  occ. eigenvalues --   -0.95959  -0.95449  -0.92044  -0.90755  -0.89143
 Alpha  occ. eigenvalues --   -0.86388  -0.83846  -0.80508  -0.78245  -0.77878
 Alpha  occ. eigenvalues --   -0.76749  -0.75685  -0.74919  -0.73579  -0.72264
 Alpha  occ. eigenvalues --   -0.71806  -0.70656  -0.68894  -0.66967  -0.65600
 Alpha  occ. eigenvalues --   -0.65479  -0.64407  -0.61372  -0.60160  -0.58571
 Alpha  occ. eigenvalues --   -0.57310  -0.56873  -0.56716  -0.55403  -0.55017
 Alpha  occ. eigenvalues --   -0.53317  -0.51455  -0.50519  -0.49815  -0.49525
 Alpha  occ. eigenvalues --   -0.49284  -0.49218  -0.48667  -0.48646  -0.48448
 Alpha  occ. eigenvalues --   -0.48192  -0.47083  -0.46504  -0.46153  -0.46009
 Alpha  occ. eigenvalues --   -0.45743  -0.44741  -0.44354  -0.43980  -0.43169
 Alpha  occ. eigenvalues --   -0.43063  -0.42627  -0.42464  -0.42090  -0.41918
 Alpha  occ. eigenvalues --   -0.41607  -0.41062  -0.41008  -0.40417  -0.39934
 Alpha  occ. eigenvalues --   -0.39413  -0.39132  -0.38976  -0.37848  -0.37365
 Alpha  occ. eigenvalues --   -0.36721  -0.36330  -0.34734  -0.34396  -0.33716
 Alpha  occ. eigenvalues --   -0.33442  -0.31820  -0.30792  -0.30458  -0.29649
 Alpha  occ. eigenvalues --   -0.29156  -0.28577  -0.28507  -0.27749  -0.27324
 Alpha  occ. eigenvalues --   -0.26059  -0.25047  -0.25024  -0.19821
 Alpha virt. eigenvalues --   -0.12739  -0.08081  -0.06244  -0.04237  -0.03554
 Alpha virt. eigenvalues --   -0.00861  -0.00428  -0.00257  -0.00154   0.00370
 Alpha virt. eigenvalues --    0.00833   0.01240   0.01345   0.01838   0.01914

 Mulliken charges:
               1
     1  C    0.352784
     2  C    0.000913
     3  C    0.073341
     4  C    0.275345
     5  C    0.293411
     6  C   -0.033500
     7  C    0.114062
     8  C    0.347988
     9  C    0.170677
    10  C   -0.591360
    11  C    0.274502
    12  C    0.184304
    13  C   -0.489350
    14  C   -0.654178
    15  H    0.158111
    16  H    0.161073
    17  H    0.168779
    18  N   -0.066819
    19  N   -0.141004
    20  O   -0.286762
    21  O   -0.269529
    22  O   -0.283442
    23  O   -0.272093
    24  C   -0.160946
    25  H    0.177910
    26  H    0.165137
    27  H    0.183402
    28  C   -0.195121
    29  H    0.173464
    30  H    0.173291
    31  H    0.181872
    32  C    0.015237
    33  C    0.063419
    34  S   -0.679503
    35  C   -0.680913
    36  H    0.174874
    37  C    0.526593
    38  O   -0.132751
    39  C    0.978754
    40  C   -0.240762
    41  C    0.019214
    42  S   -0.219127
    43  H    0.166925
    44  H    0.147414
    45  H    0.161744
    46  C   -0.565167
    47  O   -0.125872
    48  C   -0.318324
    49  H    0.134048
    50  C   -0.243683
    51  H    0.163872
    52  H    0.146838
    53  H    0.174404
    54  H    0.146504
 Sum of Mulliken charges =  -0.00000

 Dipole moment (field-independent basis, Debye):
    X=              5.9130    Y=             -0.7539    Z=             -0.4365  Tot=              5.9769
 Quadrupole moment (field-independent basis, Debye-Ang):
   XX=           -214.3203   YY=           -206.5322   ZZ=           -225.2458
   XY=             -5.1721   XZ=             -4.4059   YZ=             -1.9381

 Normal termination of Gaussian 16 at Tue Nov 17 17:13:05 2020.
