 Gaussian 16, Revision C.01,
 Gaussian 16:  ES64L-G16RevC.01  3-Jul-2019

 -------------------------------------
 # opt=modredundant b3lyp/6-311+g(d,p)
 -------------------------------------

 ------------
 NDI_-100.pdb
 ------------
 Symbolic Z-matrix:
 Charge =  0 Multiplicity = 1

 SCF Done:  E(RB3LYP) =  -2359.32928934     A.U. after   19 cycles
 SCF Done:  E(RB3LYP) =  -2359.33364644     A.U. after   16 cycles
 SCF Done:  E(RB3LYP) =  -2359.33413705     A.U. after   16 cycles
 SCF Done:  E(RB3LYP) =  -2359.33428259     A.U. after   15 cycles
 SCF Done:  E(RB3LYP) =  -2359.33442905     A.U. after   14 cycles
 SCF Done:  E(RB3LYP) =  -2359.33445699     A.U. after   15 cycles
 SCF Done:  E(RB3LYP) =  -2359.33448855     A.U. after   14 cycles
 SCF Done:  E(RB3LYP) =  -2359.33449612     A.U. after   14 cycles
 SCF Done:  E(RB3LYP) =  -2359.33450149     A.U. after   13 cycles
 SCF Done:  E(RB3LYP) =  -2359.33450432     A.U. after   11 cycles
 SCF Done:  E(RB3LYP) =  -2359.33450653     A.U. after   11 cycles
 SCF Done:  E(RB3LYP) =  -2359.33451004     A.U. after   12 cycles
 SCF Done:  E(RB3LYP) =  -2359.33445758     A.U. after   11 cycles
 SCF Done:  E(RB3LYP) =  -2359.33446057     A.U. after   11 cycles
 SCF Done:  E(RB3LYP) =  -2359.33446229     A.U. after   10 cycles
 SCF Done:  E(RB3LYP) =  -2359.33446308     A.U. after   10 cycles
 SCF Done:  E(RB3LYP) =  -2359.33446329     A.U. after   10 cycles
 SCF Done:  E(RB3LYP) =  -2359.33446335     A.U. after    9 cycles
 SCF Done:  E(RB3LYP) =  -2359.33446335     A.U. after    8 cycles
 Optimization completed.
    -- Stationary point found.

                         Standard orientation:
 ---------------------------------------------------------------------
 Center     Atomic      Atomic             Coordinates (Angstroms)
 Number     Number       Type             X           Y           Z
 ---------------------------------------------------------------------
      1          6           0        3.365661   -2.815221   -0.072293
      2          6           0        2.685243   -1.497827    0.042833
      3          6           0        3.424756   -0.301608   -0.078485
      4          6           0        4.817135   -0.335831   -0.319684
      5          6           0        5.527369   -1.637857   -0.448094
      6          6           0        1.326124   -1.445749    0.259848
      7          6           0        2.752070    0.944279    0.048011
      8          6           0        1.350896    0.979592    0.292704
      9          6           0        0.629314   -0.216713    0.375832
     10          6           0        0.696211    2.308423    0.494865
     11          6           0        2.860353    3.464425    0.038257
     12          6           0        3.510617    2.133808   -0.079538
     13          6           0        4.872466    2.077135   -0.319419
     14          6           0        5.529505    0.843248   -0.438821
     15          1           0        6.594980    0.795195   -0.624756
     16          1           0        5.417930    3.007625   -0.413581
     17          1           0        0.771507   -2.372680    0.332625
     18          7           0        1.490244    3.455748    0.309630
     19          7           0        4.745698   -2.796275   -0.313233
     20          8           0        2.773658   -3.872211    0.034635
     21          8           0        6.723771   -1.701696   -0.657476
     22          8           0        3.482733    4.503225   -0.087326
     23          8           0       -0.466663    2.442330    0.814220
     24          6           0        0.801907    4.744835    0.475743
     25          1           0       -0.066753    4.780099   -0.180629
     26          1           0        0.459639    4.854829    1.505512
     27          1           0        1.505980    5.532249    0.226463
     28          6           0        5.403411   -4.106374   -0.428686
     29          1           0        5.265802   -4.669496    0.494570
     30          1           0        4.956121   -4.671031   -1.246878
     31          1           0        6.458518   -3.934948   -0.616354
     32          6           0       -0.834654   -0.309542    0.580448
     33          6           0       -1.499263   -0.566219    1.747967
     34         16           0       -1.928753   -0.151560   -0.761210
     35          6           0       -2.909532   -0.615904    1.571922
     36          1           0       -0.996819   -0.685198    2.697030
     37          6           0       -3.330534   -0.416593    0.266884
     38          8           0       -3.833430   -0.844056    2.546921
     39          6           0       -4.678663   -0.430572   -0.245653
     40          6           0       -3.371548   -1.001633    3.882975
     41          6           0       -5.094150   -0.237006   -1.554653
     42         16           0       -6.083899   -0.707452    0.774771
     43          1           0       -4.261564   -1.155067    4.490973
     44          1           0       -2.715112   -1.873520    3.975438
     45          1           0       -2.845661   -0.105148    4.227816
     46          6           0       -6.503980   -0.306646   -1.737704
     47          8           0       -4.163960   -0.008412   -2.525096
     48          6           0       -7.161055   -0.554383   -0.565334
     49          1           0       -7.005879   -0.180129   -2.685933
     50          6           0       -4.624241    0.214305   -3.852173
     51          1           0       -8.224344   -0.655635   -0.411946
     52          1           0       -5.270497    1.096897   -3.904442
     53          1           0       -3.732876    0.383176   -4.454197
     54          1           0       -5.161501   -0.659015   -4.236991
 ---------------------------------------------------------------------

 The electronic state is 1-A.
 Alpha  occ. eigenvalues --  -88.87610 -88.87362 -19.16137 -19.16127 -19.12890
 Alpha  occ. eigenvalues --  -19.12827 -19.12532 -19.12471 -14.39020 -14.38681
 Alpha  occ. eigenvalues --  -10.31516 -10.31303 -10.31168 -10.31137 -10.23894
 Alpha  occ. eigenvalues --  -10.23652 -10.23530 -10.23519 -10.23474 -10.23299
 Alpha  occ. eigenvalues --  -10.23218 -10.23184 -10.22944 -10.22885 -10.22860
 Alpha  occ. eigenvalues --  -10.21937 -10.21858 -10.21848 -10.21351 -10.21349
 Alpha  occ. eigenvalues --  -10.21064 -10.20836 -10.20682 -10.19838 -10.18259
 Alpha  occ. eigenvalues --  -10.17993  -7.96154  -7.95917  -5.92480  -5.92227
 Alpha  occ. eigenvalues --   -5.92089  -5.91838  -5.91692  -5.91486  -1.09127
 Alpha  occ. eigenvalues --   -1.08914  -1.07682  -1.07605  -1.07328  -1.07085
 Alpha  occ. eigenvalues --   -0.96692  -0.96315  -0.93089  -0.89662  -0.88188
 Alpha  occ. eigenvalues --   -0.86845  -0.84875  -0.80497  -0.79014  -0.77115
 Alpha  occ. eigenvalues --   -0.75819  -0.75585  -0.74451  -0.72993  -0.72548
 Alpha  occ. eigenvalues --   -0.71742  -0.69833  -0.68618  -0.67547  -0.66406
 Alpha  occ. eigenvalues --   -0.65878  -0.65059  -0.60811  -0.59466  -0.58567
 Alpha  occ. eigenvalues --   -0.57830  -0.56570  -0.55596  -0.55475  -0.54062
 Alpha  occ. eigenvalues --   -0.53932  -0.52114  -0.50622  -0.50246  -0.50087
 Alpha  occ. eigenvalues --   -0.49144  -0.49027  -0.48868  -0.48068  -0.47824
 Alpha  occ. eigenvalues --   -0.47650  -0.47517  -0.47006  -0.46643  -0.45552
 Alpha  occ. eigenvalues --   -0.45343  -0.45112  -0.44876  -0.44618  -0.44118
 Alpha  occ. eigenvalues --   -0.43076  -0.42819  -0.42451  -0.42021  -0.41809
 Alpha  occ. eigenvalues --   -0.41541  -0.41223  -0.41010  -0.40668  -0.40262
 Alpha  occ. eigenvalues --   -0.39979  -0.38855  -0.38127  -0.37863  -0.36901
 Alpha  occ. eigenvalues --   -0.35837  -0.35518  -0.33601  -0.33202  -0.33043
 Alpha  occ. eigenvalues --   -0.32965  -0.32717  -0.31418  -0.30526  -0.30033
 Alpha  occ. eigenvalues --   -0.29513  -0.29320  -0.28831  -0.28723  -0.27225
 Alpha  occ. eigenvalues --   -0.26775  -0.24145  -0.23771  -0.18595
 Alpha virt. eigenvalues --   -0.13562  -0.07281  -0.06171  -0.05103  -0.04343
 Alpha virt. eigenvalues --   -0.01121  -0.00100  -0.00031   0.00274   0.00568
 Alpha virt. eigenvalues --    0.00610   0.00789   0.01068   0.01159   0.01724

 Mulliken charges:
               1
     1  C    0.392318
     2  C    0.045991
     3  C    0.197066
     4  C    0.207564
     5  C    0.276062
     6  C   -0.596799
     7  C    0.182356
     8  C   -0.047459
     9  C    0.417032
    10  C   -0.352739
    11  C    0.229291
    12  C    0.201725
    13  C   -0.516498
    14  C   -0.620163
    15  H    0.162200
    16  H    0.163280
    17  H    0.163495
    18  N   -0.144304
    19  N   -0.145917
    20  O   -0.267565
    21  O   -0.269520
    22  O   -0.270626
    23  O   -0.111501
    24  C   -0.208513
    25  H    0.179337
    26  H    0.177048
    27  H    0.183685
    28  C   -0.201277
    29  H    0.175413
    30  H    0.176130
    31  H    0.182827
    32  C    0.300679
    33  C   -0.431365
    34  S   -0.171620
    35  C   -0.135144
    36  H    0.112233
    37  C    0.218469
    38  O   -0.135511
    39  C    0.810392
    40  C   -0.224495
    41  C    0.042185
    42  S   -0.286070
    43  H    0.164902
    44  H    0.144416
    45  H    0.149805
    46  C   -0.543904
    47  O   -0.149835
    48  C   -0.322138
    49  H    0.128170
    50  C   -0.235238
    51  H    0.156285
    52  H    0.143815
    53  H    0.162024
    54  H    0.142003
 Sum of Mulliken charges =  -0.00000

 Dipole moment (field-independent basis, Debye):
    X=             -1.2389    Y=              0.0974    Z=             -0.0548  Tot=              1.2440
 Quadrupole moment (field-independent basis, Debye-Ang):
   XX=           -221.0595   YY=           -234.0520   ZZ=           -197.0070
   XY=             -4.3291   XZ=             10.3102   YZ=             -3.5138

 Normal termination of Gaussian 16 at Tue Nov 17 13:44:49 2020.
