 Gaussian 16, Revision C.01,
 Gaussian 16:  ES64L-G16RevC.01  3-Jul-2019

 -------------------------------------
 # opt=modredundant b3lyp/6-311+g(d,p)
 -------------------------------------

 ------------
 NDI_-110.pdb
 ------------
 Symbolic Z-matrix:
 Charge =  0 Multiplicity = 1

 SCF Done:  E(RB3LYP) =  -2359.32921676     A.U. after   18 cycles
 SCF Done:  E(RB3LYP) =  -2359.33388580     A.U. after   18 cycles
 SCF Done:  E(RB3LYP) =  -2359.33443037     A.U. after   15 cycles
 SCF Done:  E(RB3LYP) =  -2359.33485714     A.U. after   14 cycles
 SCF Done:  E(RB3LYP) =  -2359.33503444     A.U. after   14 cycles
 SCF Done:  E(RB3LYP) =  -2359.33511476     A.U. after   15 cycles
 SCF Done:  E(RB3LYP) =  -2359.33514912     A.U. after   13 cycles
 SCF Done:  E(RB3LYP) =  -2359.33516046     A.U. after   13 cycles
 SCF Done:  E(RB3LYP) =  -2359.33516931     A.U. after   12 cycles
 SCF Done:  E(RB3LYP) =  -2359.33517566     A.U. after   12 cycles
 SCF Done:  E(RB3LYP) =  -2359.33520713     A.U. after   11 cycles
 SCF Done:  E(RB3LYP) =  -2359.33520748     A.U. after   11 cycles
 SCF Done:  E(RB3LYP) =  -2359.33520767     A.U. after   11 cycles
 SCF Done:  E(RB3LYP) =  -2359.33520793     A.U. after   11 cycles
 SCF Done:  E(RB3LYP) =  -2359.33520822     A.U. after   11 cycles
 SCF Done:  E(RB3LYP) =  -2359.33520842     A.U. after   12 cycles
 SCF Done:  E(RB3LYP) =  -2359.33520855     A.U. after   11 cycles
 SCF Done:  E(RB3LYP) =  -2359.33520861     A.U. after   11 cycles
 SCF Done:  E(RB3LYP) =  -2359.33520863     A.U. after    9 cycles
 SCF Done:  E(RB3LYP) =  -2359.33520864     A.U. after    8 cycles
 Optimization completed.
    -- Stationary point found.

                         Standard orientation:
 ---------------------------------------------------------------------
 Center     Atomic      Atomic             Coordinates (Angstroms)
 Number     Number       Type             X           Y           Z
 ---------------------------------------------------------------------
      1          6           0       -3.473830   -2.750080    0.335560
      2          6           0       -2.743267   -1.478693    0.089877
      3          6           0       -3.432937   -0.246257    0.108978
      4          6           0       -4.820178   -0.199611    0.372379
      5          6           0       -5.578922   -1.453072    0.633665
      6          6           0       -1.385289   -1.502430   -0.136078
      7          6           0       -2.713819    0.952670   -0.148352
      8          6           0       -1.317290    0.906853   -0.415728
      9          6           0       -0.639186   -0.318110   -0.364306
     10          6           0       -0.632646    2.170243   -0.822537
     11          6           0       -2.720507    3.462921   -0.384196
     12          6           0       -3.421678    2.179332   -0.125360
     13          6           0       -4.780034    2.202637    0.141671
     14          6           0       -5.483082    1.014644    0.389126
     15          1           0       -6.545887    1.028518    0.594779
     16          1           0       -5.285639    3.159940    0.155360
     17          1           0       -0.868098   -2.453337   -0.114205
     18          7           0       -1.364236    3.367128   -0.704528
     19          7           0       -4.846918   -2.651037    0.594998
     20          8           0       -2.927456   -3.836871    0.316997
     21          8           0       -6.772602   -1.448086    0.867314
     22          8           0       -3.292497    4.536795   -0.334290
     23          8           0        0.499246    2.210404   -1.259270
     24          6           0       -0.639940    4.600528   -1.045756
     25          1           0        0.306100    4.622917   -0.507324
     26          1           0       -0.428313    4.629138   -2.115922
     27          1           0       -1.265900    5.442294   -0.766884
     28          6           0       -5.554655   -3.915997    0.841912
     29          1           0       -5.462821   -4.565167   -0.029131
     30          1           0       -5.111057   -4.423746    1.698483
     31          1           0       -6.597039   -3.683309    1.034676
     32          6           0        0.819274   -0.483629   -0.522631
     33          6           0        1.482348   -1.054672   -1.576816
     34         16           0        1.918757    0.032807    0.721946
     35          6           0        2.890706   -1.059300   -1.396651
     36          1           0        0.977033   -1.423608   -2.457750
     37          6           0        3.315271   -0.512266   -0.193963
     38          8           0        3.812673   -1.545908   -2.272511
     39          6           0        4.662838   -0.406666    0.305768
     40          6           0        3.345845   -2.095830   -3.498979
     41          6           0        5.083394    0.139259    1.510390
     42         16           0        6.062116   -0.982189   -0.591107
     43          1           0        4.234256   -2.417763   -4.039576
     44          1           0        2.694860   -2.958913   -3.323722
     45          1           0        2.812518   -1.344683   -4.090887
     46          6           0        6.491768    0.100465    1.710176
     47          8           0        4.158890    0.644748    2.374165
     48          6           0        7.142517   -0.477227    0.656204
     49          1           0        6.997315    0.479576    2.586340
     50          6           0        4.624531    1.234584    3.582175
     51          1           0        8.203898   -0.633998    0.540768
     52          1           0        5.281924    2.086407    3.378866
     53          1           0        3.736366    1.580735    4.108164
     54          1           0        5.151157    0.502035    4.202844
 ---------------------------------------------------------------------

 The electronic state is 1-A.
 Alpha  occ. eigenvalues --  -88.87755 -88.87606 -19.16396 -19.16355 -19.12749
 Alpha  occ. eigenvalues --  -19.12692 -19.12328 -19.12273 -14.38888 -14.38485
 Alpha  occ. eigenvalues --  -10.31370 -10.31170 -10.30966 -10.30926 -10.23917
 Alpha  occ. eigenvalues --  -10.23830 -10.23752 -10.23410 -10.23337 -10.23303
 Alpha  occ. eigenvalues --  -10.23194 -10.23093 -10.22748 -10.22688 -10.22655
 Alpha  occ. eigenvalues --  -10.21758 -10.21716 -10.21642 -10.21521 -10.21248
 Alpha  occ. eigenvalues --  -10.21176 -10.20941 -10.20939 -10.20112 -10.18490
 Alpha  occ. eigenvalues --  -10.18228  -7.96304  -7.96161  -5.92630  -5.92470
 Alpha  occ. eigenvalues --   -5.92238  -5.92082  -5.91841  -5.91729  -1.08984
 Alpha  occ. eigenvalues --   -1.08702  -1.07934  -1.07859  -1.07184  -1.06868
 Alpha  occ. eigenvalues --   -0.96547  -0.96130  -0.92908  -0.89818  -0.88315
 Alpha  occ. eigenvalues --   -0.86832  -0.84697  -0.80463  -0.78841  -0.77251
 Alpha  occ. eigenvalues --   -0.75987  -0.75463  -0.74685  -0.72906  -0.72638
 Alpha  occ. eigenvalues --   -0.71694  -0.70017  -0.68685  -0.67412  -0.66244
 Alpha  occ. eigenvalues --   -0.65744  -0.64997  -0.60809  -0.59581  -0.58594
 Alpha  occ. eigenvalues --   -0.57702  -0.56644  -0.55746  -0.55391  -0.54262
 Alpha  occ. eigenvalues --   -0.53903  -0.51983  -0.50484  -0.50106  -0.49940
 Alpha  occ. eigenvalues --   -0.49320  -0.48890  -0.48771  -0.48240  -0.47984
 Alpha  occ. eigenvalues --   -0.47692  -0.47513  -0.46867  -0.46573  -0.45604
 Alpha  occ. eigenvalues --   -0.45313  -0.45047  -0.44909  -0.44551  -0.44097
 Alpha  occ. eigenvalues --   -0.42969  -0.42658  -0.42269  -0.42098  -0.41726
 Alpha  occ. eigenvalues --   -0.41498  -0.41338  -0.41061  -0.40744  -0.40155
 Alpha  occ. eigenvalues --   -0.39808  -0.38888  -0.38319  -0.37817  -0.37093
 Alpha  occ. eigenvalues --   -0.35926  -0.35647  -0.33784  -0.33341  -0.33237
 Alpha  occ. eigenvalues --   -0.33170  -0.32552  -0.31287  -0.30420  -0.29905
 Alpha  occ. eigenvalues --   -0.29371  -0.29166  -0.28815  -0.28476  -0.27385
 Alpha  occ. eigenvalues --   -0.26550  -0.24347  -0.23956  -0.18800
 Alpha virt. eigenvalues --   -0.13405  -0.07161  -0.06167  -0.05003  -0.04294
 Alpha virt. eigenvalues --   -0.01033  -0.00283  -0.00143   0.00179   0.00606
 Alpha virt. eigenvalues --    0.00682   0.00889   0.01036   0.01193   0.01778

 Mulliken charges:
               1
     1  C    0.401730
     2  C   -0.047910
     3  C    0.126791
     4  C    0.254289
     5  C    0.257241
     6  C   -0.636464
     7  C    0.147426
     8  C    0.058881
     9  C    0.439765
    10  C   -0.273666
    11  C    0.298496
    12  C    0.212788
    13  C   -0.510807
    14  C   -0.661960
    15  H    0.161710
    16  H    0.163010
    17  H    0.162750
    18  N   -0.098379
    19  N   -0.143190
    20  O   -0.270618
    21  O   -0.271097
    22  O   -0.275164
    23  O   -0.143408
    24  C   -0.189464
    25  H    0.179203
    26  H    0.178492
    27  H    0.182938
    28  C   -0.200926
    29  H    0.175050
    30  H    0.175805
    31  H    0.182934
    32  C    0.554682
    33  C   -0.833468
    34  S   -0.296121
    35  C   -0.279455
    36  H    0.117584
    37  C    0.349805
    38  O   -0.118231
    39  C    0.972869
    40  C   -0.245697
    41  C    0.003809
    42  S   -0.256471
    43  H    0.165696
    44  H    0.147538
    45  H    0.148984
    46  C   -0.522181
    47  O   -0.144548
    48  C   -0.300494
    49  H    0.129044
    50  C   -0.236801
    51  H    0.157566
    52  H    0.144389
    53  H    0.162768
    54  H    0.142487
 Sum of Mulliken charges =  -0.00000

 Dipole moment (field-independent basis, Debye):
    X=              1.9793    Y=             -0.0483    Z=              0.1606  Tot=              1.9864
 Quadrupole moment (field-independent basis, Debye-Ang):
   XX=           -219.2390   YY=           -230.6392   ZZ=           -201.4928
   XY=              6.3902   XZ=             10.3653   YZ=             11.0713

 Normal termination of Gaussian 16 at Tue Nov 17 14:30:19 2020.
