 Gaussian 16, Revision C.01,
 Gaussian 16:  ES64L-G16RevC.01  3-Jul-2019

 -------------------------------------
 # opt=modredundant b3lyp/6-311+g(d,p)
 -------------------------------------

 -----------
 NDI_-70.pdb
 -----------
 Symbolic Z-matrix:
 Charge =  0 Multiplicity = 1

 SCF Done:  E(RB3LYP) =  -2359.33298888     A.U. after   19 cycles
 SCF Done:  E(RB3LYP) =  -2359.33532995     A.U. after   16 cycles
 SCF Done:  E(RB3LYP) =  -2359.33580624     A.U. after   14 cycles
 SCF Done:  E(RB3LYP) =  -2359.33581624     A.U. after   14 cycles
 SCF Done:  E(RB3LYP) =  -2359.33589634     A.U. after   13 cycles
 SCF Done:  E(RB3LYP) =  -2359.33589914     A.U. after   12 cycles
 SCF Done:  E(RB3LYP) =  -2359.33590294     A.U. after   12 cycles
 SCF Done:  E(RB3LYP) =  -2359.33590364     A.U. after   11 cycles
 SCF Done:  E(RB3LYP) =  -2359.33590444     A.U. after   10 cycles
 SCF Done:  E(RB3LYP) =  -2359.33590521     A.U. after   12 cycles
 SCF Done:  E(RB3LYP) =  -2359.33590801     A.U. after   12 cycles
 SCF Done:  E(RB3LYP) =  -2359.33590824     A.U. after   12 cycles
 SCF Done:  E(RB3LYP) =  -2359.33590835     A.U. after   12 cycles
 SCF Done:  E(RB3LYP) =  -2359.33590852     A.U. after    9 cycles
 SCF Done:  E(RB3LYP) =  -2359.33590865     A.U. after   10 cycles
 SCF Done:  E(RB3LYP) =  -2359.33590874     A.U. after   12 cycles
 SCF Done:  E(RB3LYP) =  -2359.33590883     A.U. after   12 cycles
 SCF Done:  E(RB3LYP) =  -2359.33590887     A.U. after   12 cycles
 SCF Done:  E(RB3LYP) =  -2359.33590890     A.U. after   10 cycles
 SCF Done:  E(RB3LYP) =  -2359.33590890     A.U. after    9 cycles
 Optimization completed.
    -- Stationary point found.

                         Standard orientation:
 ---------------------------------------------------------------------
 Center     Atomic      Atomic             Coordinates (Angstroms)
 Number     Number       Type             X           Y           Z
 ---------------------------------------------------------------------
      1          6           0        2.839496   -2.897738    0.621199
      2          6           0        2.398587   -1.499054    0.374152
      3          6           0        3.346353   -0.493887    0.078213
      4          6           0        4.722568   -0.801550    0.007460
      5          6           0        5.198388   -2.189063    0.258729
      6          6           0        1.062103   -1.184891    0.444357
      7          6           0        2.892812    0.832332   -0.162359
      8          6           0        1.505353    1.144918   -0.081917
      9          6           0        0.583164    0.139946    0.256970
     10          6           0        1.074001    2.536182   -0.404772
     11          6           0        3.447443    3.208956   -0.793385
     12          6           0        3.857652    1.815759   -0.493061
     13          6           0        5.203440    1.492583   -0.556819
     14          6           0        5.641060    0.186219   -0.303355
     15          1           0        6.691469   -0.070725   -0.352799
     16          1           0        5.907346    2.274589   -0.812120
     17          1           0        0.358004   -1.970873    0.685661
     18          7           0        2.074144    3.461281   -0.760504
     19          7           0        4.215240   -3.149469    0.546800
     20          8           0        2.062031   -3.797436    0.877937
     21          8           0        6.377683   -2.484470    0.216289
     22          8           0        4.253296    4.081535   -1.063973
     23          8           0       -0.083512    2.907151   -0.391415
     24          6           0        1.606124    4.816088   -1.087981
     25          1           0        0.870429    4.763889   -1.889817
     26          1           0        1.132270    5.268324   -0.215864
     27          1           0        2.468385    5.400328   -1.393007
     28          6           0        4.637206   -4.535431    0.797006
     29          1           0        4.333511   -4.837498    1.799594
     30          1           0        4.159265   -5.200213    0.077335
     31          1           0        5.717073   -4.578805    0.697590
     32          6           0       -0.870445    0.330227    0.403040
     33          6           0       -1.551662    1.009031    1.381304
     34         16           0       -1.959292   -0.610729   -0.584293
     35          6           0       -2.951296    0.810912    1.317365
     36          1           0       -1.058847    1.637737    2.107736
     37          6           0       -3.365162   -0.037151    0.296521
     38          8           0       -3.881191    1.360168    2.145785
     39          6           0       -4.710726   -0.394792   -0.067127
     40          6           0       -3.449797    2.361925    3.061511
     41          6           0       -5.117514   -1.272183   -1.064114
     42         16           0       -6.127616    0.271377    0.735071
     43          1           0       -4.348845    2.714428    3.564150
     44          1           0       -2.760094    1.947493    3.804375
     45          1           0       -2.971444    3.194797    2.536481
     46          6           0       -6.528626   -1.406957   -1.183411
     47          8           0       -4.178685   -1.905396   -1.818993
     48          6           0       -7.195030   -0.631430   -0.276092
     49          1           0       -7.025234   -2.044609   -1.900098
     50          6           0       -4.624146   -2.815214   -2.818994
     51          1           0       -8.261991   -0.544969   -0.139540
     52          1           0       -5.234914   -2.306294   -3.571852
     53          1           0       -3.723800   -3.207405   -3.288648
     54          1           0       -5.192785   -3.640075   -2.377353
 ---------------------------------------------------------------------

 The electronic state is 1-A.
 Alpha  occ. eigenvalues --  -88.88085 -88.87876 -19.16670 -19.16470 -19.12598
 Alpha  occ. eigenvalues --  -19.12534 -19.12133 -19.12050 -14.38744 -14.38381
 Alpha  occ. eigenvalues --  -10.31214 -10.31014 -10.30854 -10.30727 -10.24176
 Alpha  occ. eigenvalues --  -10.24106 -10.23773 -10.23567 -10.23363 -10.23152
 Alpha  occ. eigenvalues --  -10.22999 -10.22876 -10.22545 -10.22509 -10.22399
 Alpha  occ. eigenvalues --  -10.21673 -10.21588 -10.21551 -10.21454 -10.21400
 Alpha  occ. eigenvalues --  -10.21229 -10.21134 -10.20874 -10.20430 -10.18576
 Alpha  occ. eigenvalues --  -10.18491  -7.96636  -7.96430  -5.92957  -5.92740
 Alpha  occ. eigenvalues --   -5.92567  -5.92351  -5.92180  -5.91998  -1.08838
 Alpha  occ. eigenvalues --   -1.08536  -1.08196  -1.08003  -1.07032  -1.06675
 Alpha  occ. eigenvalues --   -0.96402  -0.95966  -0.92712  -0.90019  -0.88481
 Alpha  occ. eigenvalues --   -0.86763  -0.84514  -0.80424  -0.78669  -0.77412
 Alpha  occ. eigenvalues --   -0.76130  -0.75348  -0.74920  -0.72940  -0.72532
 Alpha  occ. eigenvalues --   -0.71833  -0.70072  -0.68743  -0.67309  -0.66093
 Alpha  occ. eigenvalues --   -0.65700  -0.64833  -0.60926  -0.59653  -0.58605
 Alpha  occ. eigenvalues --   -0.57553  -0.56623  -0.55955  -0.55504  -0.54427
 Alpha  occ. eigenvalues --   -0.53654  -0.51859  -0.50369  -0.49973  -0.49876
 Alpha  occ. eigenvalues --   -0.49434  -0.48769  -0.48675  -0.48401  -0.48096
 Alpha  occ. eigenvalues --   -0.47876  -0.47281  -0.46734  -0.46443  -0.45720
 Alpha  occ. eigenvalues --   -0.45308  -0.45050  -0.44761  -0.44463  -0.43940
 Alpha  occ. eigenvalues --   -0.42763  -0.42636  -0.42244  -0.42164  -0.41806
 Alpha  occ. eigenvalues --   -0.41413  -0.41297  -0.41207  -0.40685  -0.39920
 Alpha  occ. eigenvalues --   -0.39739  -0.39098  -0.38560  -0.37697  -0.37262
 Alpha  occ. eigenvalues --   -0.36052  -0.35584  -0.34078  -0.33596  -0.33516
 Alpha  occ. eigenvalues --   -0.33091  -0.32414  -0.31180  -0.30377  -0.29879
 Alpha  occ. eigenvalues --   -0.29363  -0.29136  -0.28782  -0.28340  -0.27276
 Alpha  occ. eigenvalues --   -0.26362  -0.24408  -0.24268  -0.19009
 Alpha virt. eigenvalues --   -0.13271  -0.07094  -0.06251  -0.04911  -0.04222
 Alpha virt. eigenvalues --   -0.00992  -0.00247  -0.00219   0.00104   0.00611
 Alpha virt. eigenvalues --    0.00693   0.00999   0.01125   0.01313   0.01831

 Mulliken charges:
               1
     1  C    0.382900
     2  C   -0.040333
     3  C    0.115896
     4  C    0.224397
     5  C    0.231694
     6  C   -0.709182
     7  C    0.216219
     8  C    0.173148
     9  C    0.616870
    10  C   -0.374860
    11  C    0.311575
    12  C    0.108256
    13  C   -0.511606
    14  C   -0.640942
    15  H    0.160586
    16  H    0.162105
    17  H    0.179842
    18  N   -0.165801
    19  N   -0.146063
    20  O   -0.272540
    21  O   -0.269276
    22  O   -0.276285
    23  O   -0.129317
    24  C   -0.203648
    25  H    0.178088
    26  H    0.174128
    27  H    0.183766
    28  C   -0.198235
    29  H    0.175409
    30  H    0.174706
    31  H    0.182965
    32  C    0.112529
    33  C   -0.341533
    34  S   -0.416106
    35  C   -0.363251
    36  H    0.120688
    37  C    0.565366
    38  O   -0.126450
    39  C    0.879852
    40  C   -0.241477
    41  C   -0.004345
    42  S   -0.250309
    43  H    0.164490
    44  H    0.142597
    45  H    0.158265
    46  C   -0.496673
    47  O   -0.135530
    48  C   -0.286506
    49  H    0.130133
    50  C   -0.238668
    51  H    0.158884
    52  H    0.144819
    53  H    0.164608
    54  H    0.144156
 Sum of Mulliken charges =  -0.00000

 Dipole moment (field-independent basis, Debye):
    X=             -2.7347    Y=             -0.2488    Z=              0.0117  Tot=              2.7460
 Quadrupole moment (field-independent basis, Debye-Ang):
   XX=           -220.2495   YY=           -221.7115   ZZ=           -208.2321
   XY=              2.2145   XZ=              7.8408   YZ=             16.8302

 Normal termination of Gaussian 16 at Tue Nov 17 17:21:23 2020.
