 Gaussian 16, Revision C.01,
 Gaussian 16:  ES64L-G16RevC.01  3-Jul-2019

 -------------------------------------
 # opt=modredundant b3lyp/6-311+g(d,p)
 -------------------------------------

 ------------
 NDI_-120.pdb
 ------------
 Symbolic Z-matrix:
 Charge =  0 Multiplicity = 1

 SCF Done:  E(RB3LYP) =  -2359.32871658     A.U. after   17 cycles
 SCF Done:  E(RB3LYP) =  -2359.33293700     A.U. after   18 cycles
 SCF Done:  E(RB3LYP) =  -2359.33465519     A.U. after   15 cycles
 SCF Done:  E(RB3LYP) =  -2359.33521949     A.U. after   15 cycles
 SCF Done:  E(RB3LYP) =  -2359.33562221     A.U. after   15 cycles
 SCF Done:  E(RB3LYP) =  -2359.33578319     A.U. after   13 cycles
 SCF Done:  E(RB3LYP) =  -2359.33585833     A.U. after   13 cycles
 SCF Done:  E(RB3LYP) =  -2359.33588975     A.U. after   13 cycles
 SCF Done:  E(RB3LYP) =  -2359.33590064     A.U. after   12 cycles
 SCF Done:  E(RB3LYP) =  -2359.33591275     A.U. after   13 cycles
 SCF Done:  E(RB3LYP) =  -2359.33590947     A.U. after   10 cycles
 SCF Done:  E(RB3LYP) =  -2359.33589467     A.U. after   12 cycles
 SCF Done:  E(RB3LYP) =  -2359.33591023     A.U. after   13 cycles
 SCF Done:  E(RB3LYP) =  -2359.33589685     A.U. after   12 cycles
 SCF Done:  E(RB3LYP) =  -2359.33592049     A.U. after   13 cycles
 SCF Done:  E(RB3LYP) =  -2359.33591083     A.U. after   12 cycles
 SCF Done:  E(RB3LYP) =  -2359.33591109     A.U. after    9 cycles
 SCF Done:  E(RB3LYP) =  -2359.33589724     A.U. after   13 cycles
 SCF Done:  E(RB3LYP) =  -2359.33592111     A.U. after   13 cycles
 SCF Done:  E(RB3LYP) =  -2359.33591115     A.U. after   12 cycles
 Optimization completed.
    -- Stationary point found.

                         Standard orientation:
 ---------------------------------------------------------------------
 Center     Atomic      Atomic             Coordinates (Angstroms)
 Number     Number       Type             X           Y           Z
 ---------------------------------------------------------------------
      1          6           0       -3.517530   -2.710460    0.436367
      2          6           0       -2.766153   -1.462655    0.139700
      3          6           0       -3.433584   -0.217075    0.120983
      4          6           0       -4.815879   -0.134513    0.396840
      5          6           0       -5.594241   -1.363012    0.711807
      6          6           0       -1.410317   -1.519268   -0.088250
      7          6           0       -2.695005    0.956998   -0.190144
      8          6           0       -1.302545    0.875179   -0.469843
      9          6           0       -0.641713   -0.357430   -0.360461
     10          6           0       -0.615510    2.097745   -0.978759
     11          6           0       -2.658436    3.454250   -0.527080
     12          6           0       -3.380064    2.196524   -0.207581
     13          6           0       -4.734713    2.255982    0.075260
     14          6           0       -5.456549    1.092450    0.375712
     15          1           0       -6.516359    1.134009    0.592541
     16          1           0       -5.221888    3.222762    0.058515
     17          1           0       -0.910687   -2.477678   -0.024466
     18          7           0       -1.314181    3.316238   -0.881372
     19          7           0       -4.885339   -2.575956    0.706416
     20          8           0       -2.992172   -3.807998    0.449628
     21          8           0       -6.784621   -1.327736    0.959534
     22          8           0       -3.204819    4.542530   -0.501705
     23          8           0        0.488197    2.087202   -1.485337
     24          6           0       -0.581320    4.517313   -1.307825
     25          1           0        0.403233    4.519721   -0.843679
     26          1           0       -0.452073    4.516944   -2.391684
     27          1           0       -1.157953    5.385330   -1.003751
     28          6           0       -5.614154   -3.817523    1.004805
     29          1           0       -5.541831   -4.499400    0.157236
     30          1           0       -5.172837   -4.302371    1.875758
     31          1           0       -6.650327   -3.558415    1.197376
     32          6           0        0.811323   -0.553254   -0.482575
     33          6           0        1.466242   -1.335036   -1.401858
     34         16           0        1.922470    0.175291    0.640570
     35          6           0        2.872096   -1.327204   -1.222828
     36          1           0        0.953606   -1.862558   -2.193420
     37          6           0        3.306837   -0.563240   -0.146165
     38          8           0        3.786375   -1.986487   -1.985414
     39          6           0        4.655484   -0.388844    0.326791
     40          6           0        3.309076   -2.777630   -3.068013
     41          6           0        5.087083    0.373272    1.404474
     42         16           0        6.043125   -1.156074   -0.435174
     43          1           0        4.192247   -3.213725   -3.531532
     44          1           0        2.651701   -3.578283   -2.713041
     45          1           0        2.779343   -2.162376   -3.802688
     46          6           0        6.494066    0.346106    1.613239
     47          8           0        4.173365    1.053927    2.149531
     48          6           0        7.132500   -0.439115    0.694372
     49          1           0        7.007487    0.878369    2.400621
     50          6           0        4.650657    1.868327    3.214602
     51          1           0        8.190569   -0.636288    0.616106
     52          1           0        5.321838    2.650024    2.844054
     53          1           0        3.769015    2.328252    3.657692
     54          1           0        5.165545    1.267409    3.971414
 ---------------------------------------------------------------------

 The electronic state is 1-A.
 Alpha  occ. eigenvalues --  -88.87921 -88.87855 -19.16656 -19.16577 -19.12619
 Alpha  occ. eigenvalues --  -19.12570 -19.12131 -19.12074 -14.38765 -14.38298
 Alpha  occ. eigenvalues --  -10.31234 -10.31049 -10.30773 -10.30723 -10.24176
 Alpha  occ. eigenvalues --  -10.24138 -10.23641 -10.23597 -10.23493 -10.23107
 Alpha  occ. eigenvalues --  -10.22905 -10.22887 -10.22559 -10.22525 -10.22426
 Alpha  occ. eigenvalues --  -10.21705 -10.21670 -10.21532 -10.21496 -10.21436
 Alpha  occ. eigenvalues --  -10.21200 -10.21153 -10.20829 -10.20393 -10.18729
 Alpha  occ. eigenvalues --  -10.18467  -7.96474  -7.96409  -5.92799  -5.92719
 Alpha  occ. eigenvalues --   -5.92408  -5.92330  -5.92011  -5.91977  -1.08853
 Alpha  occ. eigenvalues --   -1.08499  -1.08193  -1.08104  -1.07052  -1.06658
 Alpha  occ. eigenvalues --   -0.96413  -0.95951  -0.92736  -0.90003  -0.88470
 Alpha  occ. eigenvalues --   -0.86791  -0.84525  -0.80456  -0.78678  -0.77389
 Alpha  occ. eigenvalues --   -0.76172  -0.75333  -0.74923  -0.72962  -0.72634
 Alpha  occ. eigenvalues --   -0.71630  -0.70206  -0.68763  -0.67279  -0.66091
 Alpha  occ. eigenvalues --   -0.65634  -0.64925  -0.60845  -0.59707  -0.58608
 Alpha  occ. eigenvalues --   -0.57584  -0.56708  -0.55969  -0.55260  -0.54486
 Alpha  occ. eigenvalues --   -0.53852  -0.51856  -0.50363  -0.49988  -0.49825
 Alpha  occ. eigenvalues --   -0.49454  -0.48785  -0.48661  -0.48438  -0.48172
 Alpha  occ. eigenvalues --   -0.47871  -0.47338  -0.46745  -0.46493  -0.45711
 Alpha  occ. eigenvalues --   -0.45332  -0.45031  -0.44883  -0.44443  -0.44031
 Alpha  occ. eigenvalues --   -0.42880  -0.42519  -0.42227  -0.42088  -0.41729
 Alpha  occ. eigenvalues --   -0.41531  -0.41273  -0.41226  -0.40712  -0.40057
 Alpha  occ. eigenvalues --   -0.39655  -0.38964  -0.38499  -0.37786  -0.37267
 Alpha  occ. eigenvalues --   -0.36118  -0.35719  -0.33958  -0.33557  -0.33406
 Alpha  occ. eigenvalues --   -0.33352  -0.32361  -0.31161  -0.30327  -0.29801
 Alpha  occ. eigenvalues --   -0.29293  -0.29015  -0.28795  -0.28267  -0.27485
 Alpha  occ. eigenvalues --   -0.26349  -0.24550  -0.24134  -0.19003
 Alpha virt. eigenvalues --   -0.13256  -0.07091  -0.06243  -0.04892  -0.04162
 Alpha virt. eigenvalues --   -0.00942  -0.00426  -0.00238   0.00104   0.00589
 Alpha virt. eigenvalues --    0.00711   0.00957   0.01079   0.01314   0.01829

 Mulliken charges:
               1
     1  C    0.389231
     2  C   -0.086167
     3  C    0.125112
     4  C    0.211294
     5  C    0.251152
     6  C   -0.420215
     7  C    0.156618
     8  C    0.073112
     9  C    0.305782
    10  C   -0.409113
    11  C    0.282010
    12  C    0.124115
    13  C   -0.441894
    14  C   -0.613478
    15  H    0.160843
    16  H    0.162013
    17  H    0.161793
    18  N   -0.064972
    19  N   -0.142632
    20  O   -0.274459
    21  O   -0.271433
    22  O   -0.278608
    23  O   -0.172600
    24  C   -0.177548
    25  H    0.178334
    26  H    0.178451
    27  H    0.182548
    28  C   -0.199057
    29  H    0.174318
    30  H    0.175505
    31  H    0.182836
    32  C    0.484361
    33  C   -0.524836
    34  S   -0.410305
    35  C   -0.164865
    36  H    0.123351
    37  C    0.374459
    38  O   -0.129651
    39  C    0.854552
    40  C   -0.223545
    41  C    0.016487
    42  S   -0.275522
    43  H    0.165843
    44  H    0.148650
    45  H    0.148838
    46  C   -0.573605
    47  O   -0.141024
    48  C   -0.298014
    49  H    0.129791
    50  C   -0.238269
    51  H    0.158435
    52  H    0.145214
    53  H    0.163784
    54  H    0.142983
 Sum of Mulliken charges =  -0.00000

 Dipole moment (field-independent basis, Debye):
    X=              2.7038    Y=             -0.2125    Z=              0.2952  Tot=              2.7281
 Quadrupole moment (field-independent basis, Debye-Ang):
   XX=           -217.4853   YY=           -226.4021   ZZ=           -206.6315
   XY=              7.6680   XZ=             10.4789   YZ=             14.2206

 Normal termination of Gaussian 16 at Tue Nov 17 17:43:32 2020.
