 Gaussian 16, Revision C.01,
 Gaussian 16:  ES64L-G16RevC.01  3-Jul-2019

 -------------------------------------
 # opt=modredundant b3lyp/6-311+g(d,p)
 -------------------------------------

 ----------
 NDI_50.pdb
 ----------
 Symbolic Z-matrix:
 Charge =  0 Multiplicity = 1

 SCF Done:  E(RB3LYP) =  -2359.33324088     A.U. after   17 cycles
 SCF Done:  E(RB3LYP) =  -2359.33654443     A.U. after   16 cycles
 SCF Done:  E(RB3LYP) =  -2359.33704525     A.U. after   16 cycles
 SCF Done:  E(RB3LYP) =  -2359.33762637     A.U. after   13 cycles
 SCF Done:  E(RB3LYP) =  -2359.33771065     A.U. after   13 cycles
 SCF Done:  E(RB3LYP) =  -2359.33780335     A.U. after   13 cycles
 SCF Done:  E(RB3LYP) =  -2359.33785639     A.U. after   11 cycles
 SCF Done:  E(RB3LYP) =  -2359.33789509     A.U. after   13 cycles
 SCF Done:  E(RB3LYP) =  -2359.33792169     A.U. after   11 cycles
 SCF Done:  E(RB3LYP) =  -2359.33793076     A.U. after   12 cycles
 SCF Done:  E(RB3LYP) =  -2359.33793780     A.U. after    9 cycles
 SCF Done:  E(RB3LYP) =  -2359.33793791     A.U. after    9 cycles
 SCF Done:  E(RB3LYP) =  -2359.33793795     A.U. after    9 cycles
 SCF Done:  E(RB3LYP) =  -2359.33793803     A.U. after    8 cycles
 SCF Done:  E(RB3LYP) =  -2359.33793811     A.U. after    8 cycles
 SCF Done:  E(RB3LYP) =  -2359.33793816     A.U. after    8 cycles
 SCF Done:  E(RB3LYP) =  -2359.33793820     A.U. after    9 cycles
 SCF Done:  E(RB3LYP) =  -2359.33793823     A.U. after    9 cycles
 SCF Done:  E(RB3LYP) =  -2359.33793825     A.U. after    9 cycles
 SCF Done:  E(RB3LYP) =  -2359.33793828     A.U. after    9 cycles
 Optimization completed.
    -- Stationary point found.

                         Standard orientation:
 ---------------------------------------------------------------------
 Center     Atomic      Atomic             Coordinates (Angstroms)
 Number     Number       Type             X           Y           Z
 ---------------------------------------------------------------------
      1          6           0       -2.655589   -2.956307    0.524065
      2          6           0       -2.302475   -1.529271    0.298900
      3          6           0       -3.315043   -0.564917    0.092251
      4          6           0       -4.674026   -0.942137    0.093626
      5          6           0       -5.063372   -2.358723    0.328713
      6          6           0       -0.984700   -1.150557    0.310895
      7          6           0       -2.937000    0.788161   -0.132708
      8          6           0       -1.562404    1.172786   -0.118922
      9          6           0       -0.567396    0.202161    0.141393
     10          6           0       -1.233468    2.585181   -0.455687
     11          6           0       -3.658577    3.141812   -0.671743
     12          6           0       -3.972015    1.724918   -0.379457
     13          6           0       -5.302851    1.334380   -0.371645
     14          6           0       -5.660743    0.003923   -0.131084
     15          1           0       -6.697837   -0.305753   -0.125358
     16          1           0       -6.056902    2.087307   -0.563150
     17          1           0       -0.241156   -1.913206    0.502077
     18          7           0       -2.301334    3.461526   -0.730124
     19          7           0       -4.018115   -3.276423    0.525535
     20          8           0       -1.819205   -3.822448    0.700938
     21          8           0       -6.226706   -2.714140    0.348642
     22          8           0       -4.523800    3.978401   -0.865255
     23          8           0       -0.100084    3.025921   -0.524030
     24          6           0       -1.926277    4.841446   -1.070683
     25          1           0       -1.412821    5.308167   -0.229088
     26          1           0       -1.249966    4.836132   -1.924789
     27          1           0       -2.837035    5.384123   -1.302941
     28          6           0       -4.355047   -4.688826    0.754424
     29          1           0       -3.896293   -5.305948   -0.018352
     30          1           0       -3.969363   -5.006875    1.723300
     31          1           0       -5.435876   -4.783070    0.725602
     32          6           0        0.873511    0.435718    0.255150
     33          6           0        1.562218    1.365840    1.001643
     34         16           0        1.981535   -0.721398   -0.459435
     35          6           0        2.956829    1.169251    0.987408
     36          1           0        1.072828    2.166668    1.531357
     37          6           0        3.378283    0.080171    0.224512
     38          8           0        3.885886    1.927242    1.628322
     39          6           0        4.725548   -0.345506   -0.033002
     40          6           0        3.443770    3.117265    2.276553
     41          6           0        5.141549   -1.450704   -0.767996
     42         16           0        6.136042    0.517366    0.569789
     43          1           0        4.342036    3.601484    2.655464
     44          1           0        2.935223    3.782066    1.571649
     45          1           0        2.777053    2.884727    3.113382
     46          6           0        6.553197   -1.600957   -0.845955
     47          8           0        4.210297   -2.263129   -1.331814
     48          6           0        7.210420   -0.610206   -0.170420
     49          1           0        7.056954   -2.398922   -1.371480
     50          6           0        4.661358   -3.404801   -2.054750
     51          1           0        8.276544   -0.482857   -0.061417
     52          1           0        5.232061   -4.079552   -1.408782
     53          1           0        3.763014   -3.910743   -2.403470
     54          1           0        5.271147   -3.110334   -2.914877
 ---------------------------------------------------------------------

 The electronic state is 1-A.
 Alpha  occ. eigenvalues --  -88.88390 -88.88371 -19.17176 -19.16827 -19.12350
 Alpha  occ. eigenvalues --  -19.12306 -19.11700 -19.11650 -14.38515 -14.38053
 Alpha  occ. eigenvalues --  -10.30952 -10.30781 -10.30542 -10.30281 -10.24793
 Alpha  occ. eigenvalues --  -10.24531 -10.23900 -10.23734 -10.23537 -10.22838
 Alpha  occ. eigenvalues --  -10.22568 -10.22454 -10.22279 -10.22169 -10.22163
 Alpha  occ. eigenvalues --  -10.21950 -10.21915 -10.21738 -10.21316 -10.20995
 Alpha  occ. eigenvalues --  -10.20990 -10.20962 -10.20934 -10.20650 -10.18962
 Alpha  occ. eigenvalues --  -10.18858  -7.96951  -7.96923  -5.93269  -5.93233
 Alpha  occ. eigenvalues --   -5.92880  -5.92844  -5.92497  -5.92491  -1.08724
 Alpha  occ. eigenvalues --   -1.08600  -1.08383  -1.08169  -1.06787  -1.06266
 Alpha  occ. eigenvalues --   -0.96163  -0.95610  -0.92348  -0.90359  -0.88793
 Alpha  occ. eigenvalues --   -0.86580  -0.84159  -0.80414  -0.78355  -0.77684
 Alpha  occ. eigenvalues --   -0.76420  -0.75331  -0.75092  -0.73191  -0.72385
 Alpha  occ. eigenvalues --   -0.71772  -0.70350  -0.68823  -0.67072  -0.65794
 Alpha  occ. eigenvalues --   -0.65541  -0.64613  -0.61092  -0.59871  -0.58558
 Alpha  occ. eigenvalues --   -0.57331  -0.56734  -0.56375  -0.55263  -0.54812
 Alpha  occ. eigenvalues --   -0.53451  -0.51617  -0.50226  -0.49878  -0.49692
 Alpha  occ. eigenvalues --   -0.49394  -0.48793  -0.48628  -0.48462  -0.48356
 Alpha  occ. eigenvalues --   -0.48127  -0.46995  -0.46524  -0.46253  -0.45845
 Alpha  occ. eigenvalues --   -0.45593  -0.44924  -0.44469  -0.44199  -0.43663
 Alpha  occ. eigenvalues --   -0.42746  -0.42527  -0.42346  -0.41997  -0.41805
 Alpha  occ. eigenvalues --   -0.41631  -0.41211  -0.41091  -0.40464  -0.39738
 Alpha  occ. eigenvalues --   -0.39579  -0.39170  -0.38849  -0.37683  -0.37455
 Alpha  occ. eigenvalues --   -0.36420  -0.35717  -0.34354  -0.33981  -0.33745
 Alpha  occ. eigenvalues --   -0.33455  -0.32067  -0.30959  -0.30332  -0.29754
 Alpha  occ. eigenvalues --   -0.29255  -0.28829  -0.28609  -0.28039  -0.27267
 Alpha  occ. eigenvalues --   -0.26078  -0.24703  -0.24564  -0.19390
 Alpha virt. eigenvalues --   -0.13013  -0.07238  -0.06383  -0.04582  -0.03851
 Alpha virt. eigenvalues --   -0.00874  -0.00419  -0.00303   0.00056   0.00464
 Alpha virt. eigenvalues --    0.00751   0.01133   0.01492   0.01498   0.01799

 Mulliken charges:
               1
     1  C    0.300981
     2  C   -0.072885
     3  C    0.155086
     4  C    0.199064
     5  C    0.239083
     6  C   -0.463958
     7  C    0.213328
     8  C    0.270942
     9  C    0.531387
    10  C   -0.357639
    11  C    0.183045
    12  C    0.162018
    13  C   -0.466239
    14  C   -0.579050
    15  H    0.158866
    16  H    0.160862
    17  H    0.182859
    18  N   -0.150800
    19  N   -0.143476
    20  O   -0.278148
    21  O   -0.268867
    22  O   -0.277135
    23  O   -0.197189
    24  C   -0.211708
    25  H    0.170864
    26  H    0.175856
    27  H    0.182282
    28  C   -0.197855
    29  H    0.173723
    30  H    0.174498
    31  H    0.182302
    32  C    0.069357
    33  C   -0.458943
    34  S   -0.537255
    35  C   -0.139560
    36  H    0.135291
    37  C    0.694469
    38  O   -0.133566
    39  C    0.781884
    40  C   -0.240675
    41  C   -0.058583
    42  S   -0.265549
    43  H    0.164613
    44  H    0.161155
    45  H    0.143958
    46  C   -0.580616
    47  O   -0.130349
    48  C   -0.269646
    49  H    0.131882
    50  C   -0.240015
    51  H    0.160861
    52  H    0.146066
    53  H    0.167865
    54  H    0.145260
 Sum of Mulliken charges =  -0.00000

 Dipole moment (field-independent basis, Debye):
    X=              4.2485    Y=             -0.5400    Z=              0.1191  Tot=              4.2843
 Quadrupole moment (field-independent basis, Debye-Ang):
   XX=           -218.0947   YY=           -215.2675   ZZ=           -215.0727
   XY=             -3.6647   XZ=             -5.5054   YZ=             15.7080

 Normal termination of Gaussian 16 at Tue Nov 17 17:02:56 2020.
