 Gaussian 16, Revision C.01,
 Gaussian 16:  ES64L-G16RevC.01  3-Jul-2019

 -------------------------------------
 # opt=modredundant b3lyp/6-311+g(d,p)
 -------------------------------------

 ----------
 NDI_20.pdb
 ----------
 Symbolic Z-matrix:
 Charge =  0 Multiplicity = 1

 SCF Done:  E(RB3LYP) =  -2359.32409776     A.U. after   17 cycles
 SCF Done:  E(RB3LYP) =  -2359.31779834     A.U. after   17 cycles
 SCF Done:  E(RB3LYP) =  -2359.33215812     A.U. after   14 cycles
 SCF Done:  E(RB3LYP) =  -2359.33494051     A.U. after   15 cycles
 SCF Done:  E(RB3LYP) =  -2359.33541044     A.U. after   14 cycles
 SCF Done:  E(RB3LYP) =  -2359.33592274     A.U. after   13 cycles
 SCF Done:  E(RB3LYP) =  -2359.33610636     A.U. after   14 cycles
 SCF Done:  E(RB3LYP) =  -2359.33632758     A.U. after   16 cycles
 SCF Done:  E(RB3LYP) =  -2359.33650665     A.U. after   14 cycles
 SCF Done:  E(RB3LYP) =  -2359.33678566     A.U. after   16 cycles
 SCF Done:  E(RB3LYP) =  -2359.33740326     A.U. after   13 cycles
 SCF Done:  E(RB3LYP) =  -2359.33741030     A.U. after   13 cycles
 SCF Done:  E(RB3LYP) =  -2359.33741384     A.U. after   12 cycles
 SCF Done:  E(RB3LYP) =  -2359.33741547     A.U. after   12 cycles
 SCF Done:  E(RB3LYP) =  -2359.33741586     A.U. after   11 cycles
 SCF Done:  E(RB3LYP) =  -2359.33741651     A.U. after   10 cycles
 SCF Done:  E(RB3LYP) =  -2359.33741677     A.U. after   10 cycles
 SCF Done:  E(RB3LYP) =  -2359.33741688     A.U. after    9 cycles
 SCF Done:  E(RB3LYP) =  -2359.33741690     A.U. after   10 cycles
 SCF Done:  E(RB3LYP) =  -2359.33741690     A.U. after    8 cycles
 Optimization completed.
    -- Stationary point found.

                         Standard orientation:
 ---------------------------------------------------------------------
 Center     Atomic      Atomic             Coordinates (Angstroms)
 Number     Number       Type             X           Y           Z
 ---------------------------------------------------------------------
      1          6           0       -2.533992   -3.025839    0.188601
      2          6           0       -2.240607   -1.572695    0.075376
      3          6           0       -3.291960   -0.627156    0.063720
      4          6           0       -4.632186   -1.046370    0.174476
      5          6           0       -4.961575   -2.491228    0.302714
      6          6           0       -0.939591   -1.152770    0.025629
      7          6           0       -2.964757    0.750234   -0.073703
      8          6           0       -1.603988    1.175978   -0.179602
      9          6           0       -0.556402    0.221526   -0.065226
     10          6           0       -1.372746    2.596897   -0.549971
     11          6           0       -3.794280    3.121815   -0.254673
     12          6           0       -4.041255    1.673111   -0.093256
     13          6           0       -5.355094    1.242747    0.032557
     14          6           0       -5.658767   -0.114477    0.164584
     15          1           0       -6.681775   -0.455702    0.255519
     16          1           0       -6.138614    1.989834    0.020968
     17          1           0       -0.178174   -1.918305    0.100017
     18          7           0       -2.467137    3.481093   -0.493936
     19          7           0       -3.880654   -3.389725    0.293909
     20          8           0       -1.663287   -3.876880    0.192515
     21          8           0       -6.107423   -2.886508    0.407231
     22          8           0       -4.686133    3.952138   -0.210760
     23          8           0       -0.300268    3.044465   -0.921107
     24          6           0       -2.174059    4.888227   -0.800298
     25          1           0       -1.389471    5.253325   -0.137964
     26          1           0       -1.825093    4.981736   -1.829272
     27          1           0       -3.088856    5.454520   -0.656862
     28          6           0       -4.160178   -4.828080    0.408958
     29          1           0       -3.766442   -5.349700   -0.463593
     30          1           0       -3.672875   -5.228192    1.298471
     31          1           0       -5.236027   -4.954708    0.475572
     32          6           0        0.870231    0.478429    0.086155
     33          6           0        1.555503    1.600729    0.512906
     34         16           0        2.014378   -0.810453   -0.291124
     35          6           0        2.948136    1.428912    0.556803
     36          1           0        1.066334    2.518338    0.785744
     37          6           0        3.390439    0.170371    0.138728
     38          8           0        3.863901    2.351339    0.949317
     39          6           0        4.742904   -0.296584    0.042832
     40          6           0        3.397317    3.658495    1.278454
     41          6           0        5.179968   -1.555418   -0.361548
     42         16           0        6.135679    0.704322    0.439897
     43          1           0        4.286848    4.242942    1.505999
     44          1           0        2.864877    4.108113    0.435029
     45          1           0        2.744661    3.631678    2.156939
     46          6           0        6.592560   -1.711189   -0.352552
     47          8           0        4.266343   -2.491983   -0.717825
     48          6           0        7.228953   -0.572217    0.057869
     49          1           0        7.111753   -2.615598   -0.633676
     50          6           0        4.735269   -3.779092   -1.112844
     51          1           0        8.291619   -0.412889    0.159056
     52          1           0        5.287329   -4.262008   -0.300519
     53          1           0        3.845464   -4.361603   -1.343436
     54          1           0        5.367949   -3.709963   -2.003277
 ---------------------------------------------------------------------

 The electronic state is 1-A.
 Alpha  occ. eigenvalues --  -88.88809 -88.88692 -19.17600 -19.17224 -19.12159
 Alpha  occ. eigenvalues --  -19.12135 -19.11450 -19.11442 -14.38337 -14.37839
 Alpha  occ. eigenvalues --  -10.30750 -10.30603 -10.30353 -10.29997 -10.25327
 Alpha  occ. eigenvalues --  -10.24970 -10.24165 -10.23783 -10.23768 -10.22917
 Alpha  occ. eigenvalues --  -10.22570 -10.22319 -10.22197 -10.22180 -10.22089
 Alpha  occ. eigenvalues --  -10.21879 -10.21861 -10.21547 -10.21476 -10.21204
 Alpha  occ. eigenvalues --  -10.20828 -10.20652 -10.20590 -10.20558 -10.19370
 Alpha  occ. eigenvalues --  -10.19033  -7.97360  -7.97261  -5.93670  -5.93578
 Alpha  occ. eigenvalues --   -5.93280  -5.93187  -5.92928  -5.92809  -1.09173
 Alpha  occ. eigenvalues --   -1.08800  -1.08413  -1.07956  -1.06597  -1.06021
 Alpha  occ. eigenvalues --   -0.95976  -0.95406  -0.92102  -0.90687  -0.89089
 Alpha  occ. eigenvalues --   -0.86430  -0.83894  -0.80481  -0.78228  -0.77853
 Alpha  occ. eigenvalues --   -0.76685  -0.75679  -0.74921  -0.73511  -0.72269
 Alpha  occ. eigenvalues --   -0.71784  -0.70595  -0.68900  -0.66934  -0.65592
 Alpha  occ. eigenvalues --   -0.65476  -0.64433  -0.61301  -0.60113  -0.58526
 Alpha  occ. eigenvalues --   -0.57284  -0.56807  -0.56698  -0.55281  -0.55050
 Alpha  occ. eigenvalues --   -0.53362  -0.51475  -0.50379  -0.49800  -0.49524
 Alpha  occ. eigenvalues --   -0.49225  -0.49134  -0.48709  -0.48623  -0.48388
 Alpha  occ. eigenvalues --   -0.48184  -0.46945  -0.46521  -0.46179  -0.45937
 Alpha  occ. eigenvalues --   -0.45711  -0.44715  -0.44351  -0.43963  -0.43358
 Alpha  occ. eigenvalues --   -0.43012  -0.42672  -0.42454  -0.42017  -0.41908
 Alpha  occ. eigenvalues --   -0.41635  -0.41004  -0.40962  -0.40370  -0.39998
 Alpha  occ. eigenvalues --   -0.39367  -0.39230  -0.38973  -0.37874  -0.37406
 Alpha  occ. eigenvalues --   -0.36680  -0.36184  -0.34631  -0.34337  -0.33752
 Alpha  occ. eigenvalues --   -0.33665  -0.31845  -0.30816  -0.30401  -0.29591
 Alpha  occ. eigenvalues --   -0.29154  -0.28654  -0.28518  -0.27814  -0.27227
 Alpha  occ. eigenvalues --   -0.25977  -0.24968  -0.24853  -0.19694
 Alpha virt. eigenvalues --   -0.12822  -0.07781  -0.06257  -0.04291  -0.03641
 Alpha virt. eigenvalues --   -0.00861  -0.00486  -0.00328  -0.00090   0.00366
 Alpha virt. eigenvalues --    0.00825   0.01268   0.01418   0.01769   0.01952

 Mulliken charges:
               1
     1  C    0.277613
     2  C   -0.064183
     3  C    0.198269
     4  C    0.199992
     5  C    0.237291
     6  C    0.065863
     7  C    0.228907
     8  C    0.517310
     9  C    0.223318
    10  C   -0.795363
    11  C    0.220992
    12  C    0.129331
    13  C   -0.477623
    14  C   -0.581089
    15  H    0.157776
    16  H    0.160489
    17  H    0.168029
    18  N   -0.077028
    19  N   -0.141104
    20  O   -0.286019
    21  O   -0.268241
    22  O   -0.280411
    23  O   -0.245142
    24  C   -0.166480
    25  H    0.165271
    26  H    0.177760
    27  H    0.183127
    28  C   -0.199014
    29  H    0.173001
    30  H    0.173851
    31  H    0.181686
    32  C   -0.037918
    33  C   -0.358767
    34  S   -0.673246
    35  C   -0.298018
    36  H    0.145401
    37  C    0.701018
    38  O   -0.126770
    39  C    0.908445
    40  C   -0.242207
    41  C    0.006302
    42  S   -0.239813
    43  H    0.166507
    44  H    0.164521
    45  H    0.145471
    46  C   -0.622847
    47  O   -0.127955
    48  C   -0.288793
    49  H    0.133670
    50  C   -0.241043
    51  H    0.163176
    52  H    0.147199
    53  H    0.171775
    54  H    0.145709
 Sum of Mulliken charges =  -0.00000

 Dipole moment (field-independent basis, Debye):
    X=              5.5421    Y=             -0.6664    Z=              0.3863  Tot=              5.5954
 Quadrupole moment (field-independent basis, Debye-Ang):
   XX=           -215.1218   YY=           -209.5979   ZZ=           -221.7716
   XY=             -4.7588   XZ=             -0.1345   YZ=              9.9009

 Normal termination of Gaussian 16 at Tue Nov 17 20:53:48 2020.
