 Gaussian 16, Revision C.01,
 Gaussian 16:  ES64L-G16RevC.01  3-Jul-2019

 -------------------------------------
 # opt=modredundant b3lyp/6-311+g(d,p)
 -------------------------------------

 -----------
 NDI_130.pdb
 -----------
 Symbolic Z-matrix:
 Charge =  0 Multiplicity = 1

 SCF Done:  E(RB3LYP) =  -2359.32933826     A.U. after   18 cycles
 SCF Done:  E(RB3LYP) =  -2359.32972299     A.U. after   17 cycles
 SCF Done:  E(RB3LYP) =  -2359.33481009     A.U. after   17 cycles
 SCF Done:  E(RB3LYP) =  -2359.33535925     A.U. after   13 cycles
 SCF Done:  E(RB3LYP) =  -2359.33616774     A.U. after   15 cycles
 SCF Done:  E(RB3LYP) =  -2359.33630244     A.U. after   13 cycles
 SCF Done:  E(RB3LYP) =  -2359.33637527     A.U. after   13 cycles
 SCF Done:  E(RB3LYP) =  -2359.33640763     A.U. after   12 cycles
 SCF Done:  E(RB3LYP) =  -2359.33642741     A.U. after   11 cycles
 SCF Done:  E(RB3LYP) =  -2359.33643792     A.U. after   11 cycles
 SCF Done:  E(RB3LYP) =  -2359.33648100     A.U. after   12 cycles
 SCF Done:  E(RB3LYP) =  -2359.33648675     A.U. after   11 cycles
 SCF Done:  E(RB3LYP) =  -2359.33648961     A.U. after   11 cycles
 SCF Done:  E(RB3LYP) =  -2359.33649098     A.U. after    9 cycles
 SCF Done:  E(RB3LYP) =  -2359.33649156     A.U. after    9 cycles
 SCF Done:  E(RB3LYP) =  -2359.33649250     A.U. after   10 cycles
 SCF Done:  E(RB3LYP) =  -2359.33649299     A.U. after   10 cycles
 SCF Done:  E(RB3LYP) =  -2359.33649334     A.U. after    9 cycles
 SCF Done:  E(RB3LYP) =  -2359.33649343     A.U. after    9 cycles
 SCF Done:  E(RB3LYP) =  -2359.33649345     A.U. after    8 cycles
 Optimization completed.
    -- Stationary point found.

                         Standard orientation:
 ---------------------------------------------------------------------
 Center     Atomic      Atomic             Coordinates (Angstroms)
 Number     Number       Type             X           Y           Z
 ---------------------------------------------------------------------
      1          6           0        3.525533   -2.696338    0.443719
      2          6           0        2.769942   -1.453644    0.137455
      3          6           0        3.430286   -0.203455    0.124292
      4          6           0        4.807876   -0.111620    0.416159
      5          6           0        5.589799   -1.334568    0.742548
      6          6           0        1.416957   -1.518904   -0.098346
      7          6           0        2.686952    0.964224   -0.199288
      8          6           0        1.297991    0.873153   -0.494245
      9          6           0        0.639886   -0.362693   -0.378234
     10          6           0        0.622365    2.081950   -1.045479
     11          6           0        2.640464    3.458749   -0.549269
     12          6           0        3.365016    2.207689   -0.213344
     13          6           0        4.715944    2.276923    0.087288
     14          6           0        5.441563    1.119822    0.400186
     15          1           0        6.498272    1.168716    0.629985
     16          1           0        5.196546    3.247047    0.073573
     17          1           0        0.924345   -2.480374   -0.027717
     18          7           0        1.306407    3.307860   -0.935498
     19          7           0        4.888914   -2.552630    0.729456
     20          8           0        3.007197   -3.797588    0.451726
     21          8           0        6.776751   -1.292045    1.005296
     22          8           0        3.176323    4.552269   -0.514262
     23          8           0       -0.458742    2.055211   -1.599362
     24          6           0        0.578698    4.498913   -1.396674
     25          1           0        0.498853    4.496867   -2.485410
     26          1           0       -0.425826    4.488741   -0.977860
     27          1           0        1.129949    5.374532   -1.068076
     28          6           0        5.622508   -3.788936    1.037363
     29          1           0        5.174578   -4.276067    1.903680
     30          1           0        5.564527   -4.472063    0.189679
     31          1           0        6.654634   -3.522681    1.241582
     32          6           0       -0.808642   -0.570843   -0.477496
     33          6           0       -1.451802   -1.501456   -1.261562
     34         16           0       -1.934723    0.288960    0.533432
     35          6           0       -2.854091   -1.499366   -1.076838
     36          1           0       -0.930142   -2.133399   -1.966011
     37          6           0       -3.302322   -0.592917   -0.120459
     38          8           0       -3.756876   -2.283152   -1.726071
     39          6           0       -4.652382   -0.380593    0.328539
     40          6           0       -3.265693   -3.223208   -2.675737
     41          6           0       -5.097873    0.520819    1.287643
     42         16           0       -6.025277   -1.279331   -0.306653
     43          1           0       -4.140894   -3.742005   -3.062741
     44          1           0       -2.748705   -2.718687   -3.498529
     45          1           0       -2.592690   -3.946679   -2.203833
     46          6           0       -6.503159    0.494506    1.505517
     47          8           0       -4.197770    1.320234    1.920871
     48          6           0       -7.126202   -0.429134    0.713304
     49          1           0       -7.026329    1.124060    2.210325
     50          6           0       -4.689137    2.271983    2.858722
     51          1           0       -8.179939   -0.658122    0.670920
     52          1           0       -5.189947    1.777391    3.697368
     53          1           0       -3.815823    2.808511    3.225389
     54          1           0       -5.376562    2.977772    2.381318
 ---------------------------------------------------------------------

 The electronic state is 1-A.
 Alpha  occ. eigenvalues --  -88.88084 -88.88076 -19.16894 -19.16769 -19.12509
 Alpha  occ. eigenvalues --  -19.12471 -19.11955 -19.11888 -14.38663 -14.38135
 Alpha  occ. eigenvalues --  -10.31118 -10.30949 -10.30602 -10.30541 -10.24423
 Alpha  occ. eigenvalues --  -10.24395 -10.23765 -10.23630 -10.23571 -10.22939
 Alpha  occ. eigenvalues --  -10.22698 -10.22650 -10.22391 -10.22381 -10.22218
 Alpha  occ. eigenvalues --  -10.21874 -10.21864 -10.21591 -10.21439 -10.21298
 Alpha  occ. eigenvalues --  -10.21245 -10.21074 -10.20732 -10.20651 -10.18942
 Alpha  occ. eigenvalues --  -10.18686  -7.96638  -7.96632  -5.92956  -5.92948
 Alpha  occ. eigenvalues --   -5.92564  -5.92559  -5.92206  -5.92169  -1.08744
 Alpha  occ. eigenvalues --   -1.08435  -1.08322  -1.08309  -1.06942  -1.06472
 Alpha  occ. eigenvalues --   -0.96302  -0.95792  -0.92584  -0.90180  -0.88627
 Alpha  occ. eigenvalues --   -0.86733  -0.84371  -0.80470  -0.78535  -0.77509
 Alpha  occ. eigenvalues --   -0.76335  -0.75238  -0.75119  -0.73107  -0.72558
 Alpha  occ. eigenvalues --   -0.71564  -0.70380  -0.68834  -0.67162  -0.65960
 Alpha  occ. eigenvalues --   -0.65550  -0.64853  -0.60899  -0.59826  -0.58609
 Alpha  occ. eigenvalues --   -0.57491  -0.56752  -0.56172  -0.55151  -0.54690
 Alpha  occ. eigenvalues --   -0.53804  -0.51740  -0.50272  -0.49924  -0.49757
 Alpha  occ. eigenvalues --   -0.49479  -0.48720  -0.48625  -0.48551  -0.48342
 Alpha  occ. eigenvalues --   -0.48023  -0.47186  -0.46661  -0.46410  -0.45803
 Alpha  occ. eigenvalues --   -0.45434  -0.44995  -0.44797  -0.44348  -0.43941
 Alpha  occ. eigenvalues --   -0.42834  -0.42434  -0.42293  -0.41962  -0.41843
 Alpha  occ. eigenvalues --   -0.41529  -0.41345  -0.41182  -0.40654  -0.39980
 Alpha  occ. eigenvalues --   -0.39538  -0.39052  -0.38649  -0.37765  -0.37384
 Alpha  occ. eigenvalues --   -0.36313  -0.35811  -0.34103  -0.33765  -0.33547
 Alpha  occ. eigenvalues --   -0.33499  -0.32190  -0.31050  -0.30267  -0.29731
 Alpha  occ. eigenvalues --   -0.29273  -0.28882  -0.28760  -0.28097  -0.27517
 Alpha  occ. eigenvalues --   -0.26186  -0.24726  -0.24276  -0.19181
 Alpha virt. eigenvalues --   -0.13130  -0.07111  -0.06315  -0.04769  -0.04013
 Alpha virt. eigenvalues --   -0.00889  -0.00525  -0.00310   0.00003   0.00515
 Alpha virt. eigenvalues --    0.00720   0.01024   0.01134   0.01445   0.01865

 Mulliken charges:
               1
     1  C    0.385247
     2  C   -0.116937
     3  C    0.109792
     4  C    0.225630
     5  C    0.242051
     6  C   -0.350662
     7  C    0.144840
     8  C    0.126984
     9  C    0.316245
    10  C   -0.437899
    11  C    0.282662
    12  C    0.103642
    13  C   -0.440468
    14  C   -0.595010
    15  H    0.160198
    16  H    0.161457
    17  H    0.161904
    18  N   -0.044551
    19  N   -0.143212
    20  O   -0.277342
    21  O   -0.271041
    22  O   -0.280739
    23  O   -0.192910
    24  C   -0.174513
    25  H    0.178286
    26  H    0.177164
    27  H    0.182281
    28  C   -0.197890
    29  H    0.175172
    30  H    0.173858
    31  H    0.182621
    32  C    0.432079
    33  C   -0.584269
    34  S   -0.509782
    35  C   -0.110868
    36  H    0.129713
    37  C    0.469381
    38  O   -0.131338
    39  C    0.867027
    40  C   -0.224050
    41  C    0.015412
    42  S   -0.268327
    43  H    0.166383
    44  H    0.148550
    45  H    0.150225
    46  C   -0.594532
    47  O   -0.138484
    48  C   -0.288670
    49  H    0.130575
    50  C   -0.239796
    51  H    0.159498
    52  H    0.143535
    53  H    0.164784
    54  H    0.146094
 Sum of Mulliken charges =  -0.00000

 Dipole moment (field-independent basis, Debye):
    X=             -3.3523    Y=             -0.3683    Z=              0.4353  Tot=              3.4004
 Quadrupole moment (field-independent basis, Debye-Ang):
   XX=           -215.8934   YY=           -222.8592   ZZ=           -210.9404
   XY=             -8.5545   XZ=            -10.7047   YZ=             14.9457

 Normal termination of Gaussian 16 at Tue Nov 17 17:08:48 2020.
