 Gaussian 16, Revision C.01,
 Gaussian 16:  ES64L-G16RevC.01  3-Jul-2019

 -------------------------------------
 # opt=modredundant b3lyp/6-311+g(d,p)
 -------------------------------------

 -----------
 NDI_150.pdb
 -----------
 Symbolic Z-matrix:
 Charge =  0 Multiplicity = 1

 SCF Done:  E(RB3LYP) =  -2359.31440884     A.U. after   18 cycles
 SCF Done:  E(RB3LYP) =  -2359.32322623     A.U. after   17 cycles
 SCF Done:  E(RB3LYP) =  -2359.32927953     A.U. after   17 cycles
 SCF Done:  E(RB3LYP) =  -2359.33200551     A.U. after   16 cycles
 SCF Done:  E(RB3LYP) =  -2359.33301264     A.U. after   19 cycles
 SCF Done:  E(RB3LYP) =  -2359.33297568     A.U. after   17 cycles
 SCF Done:  E(RB3LYP) =  -2359.33480991     A.U. after   14 cycles
 SCF Done:  E(RB3LYP) =  -2359.33557483     A.U. after   13 cycles
 SCF Done:  E(RB3LYP) =  -2359.33562743     A.U. after   12 cycles
 SCF Done:  E(RB3LYP) =  -2359.33567403     A.U. after   12 cycles
 SCF Done:  E(RB3LYP) =  -2359.33573607     A.U. after   12 cycles
 SCF Done:  E(RB3LYP) =  -2359.33575810     A.U. after   12 cycles
 SCF Done:  E(RB3LYP) =  -2359.33576900     A.U. after   12 cycles
 SCF Done:  E(RB3LYP) =  -2359.33577902     A.U. after   11 cycles
 SCF Done:  E(RB3LYP) =  -2359.33578179     A.U. after   11 cycles
 SCF Done:  E(RB3LYP) =  -2359.33578336     A.U. after   11 cycles
 SCF Done:  E(RB3LYP) =  -2359.33578496     A.U. after   11 cycles
 SCF Done:  E(RB3LYP) =  -2359.33578611     A.U. after   10 cycles
 SCF Done:  E(RB3LYP) =  -2359.33578702     A.U. after   10 cycles
 SCF Done:  E(RB3LYP) =  -2359.33578733     A.U. after   10 cycles
 Optimization completed.
    -- Stationary point found.

                         Standard orientation:
 ---------------------------------------------------------------------
 Center     Atomic      Atomic             Coordinates (Angstroms)
 Number     Number       Type             X           Y           Z
 ---------------------------------------------------------------------
      1          6           0        3.414701   -2.684133    0.488860
      2          6           0        2.730979   -1.386072    0.247322
      3          6           0        3.482289   -0.197874    0.101152
      4          6           0        4.889173   -0.226249    0.153105
      5          6           0        5.606516   -1.507817    0.386945
      6          6           0        1.365982   -1.351602    0.164311
      7          6           0        2.781775    1.022425   -0.093867
      8          6           0        1.353314    1.053647   -0.121538
      9          6           0        0.608700   -0.152956   -0.049584
     10          6           0        0.715884    2.380866   -0.220069
     11          6           0        2.910611    3.498764   -0.548610
     12          6           0        3.557269    2.195008   -0.282261
     13          6           0        4.944268    2.145596   -0.245304
     14          6           0        5.616587    0.941949   -0.017336
     15          1           0        6.697413    0.900741    0.021415
     16          1           0        5.490745    3.066987   -0.402230
     17          1           0        0.844784   -2.285651    0.311355
     18          7           0        1.515337    3.490623   -0.537211
     19          7           0        4.812025   -2.657325    0.547588
     20          8           0        2.811703   -3.733455    0.625641
     21          8           0        6.820138   -1.569712    0.441124
     22          8           0        3.543212    4.519821   -0.757233
     23          8           0       -0.476666    2.563896   -0.032251
     24          6           0        0.811749    4.767794   -0.720975
     25          1           0       -0.020914    4.624042   -1.407150
     26          1           0        0.416998    5.124305    0.232203
     27          1           0        1.524702    5.483975   -1.117574
     28          6           0        5.479234   -3.945188    0.786128
     29          1           0        5.131671   -4.369557    1.728129
     30          1           0        5.234909   -4.641617   -0.016514
     31          1           0        6.549041   -3.765607    0.820165
     32          6           0       -0.827929   -0.398362   -0.213991
     33          6           0       -1.309075   -1.609270   -0.711199
     34         16           0       -2.177130    0.606578    0.289373
     35          6           0       -2.703801   -1.730603   -0.674001
     36          1           0       -0.664071   -2.371194   -1.120869
     37          6           0       -3.348533   -0.625020   -0.114315
     38          8           0       -3.442491   -2.779575   -1.124312
     39          6           0       -4.761596   -0.450609    0.080175
     40          6           0       -2.750383   -3.926986   -1.607237
     41          6           0       -5.414785    0.645753    0.636162
     42         16           0       -5.952365   -1.666212   -0.374267
     43          1           0       -3.519511   -4.647277   -1.879926
     44          1           0       -2.151587   -3.683103   -2.490917
     45          1           0       -2.107163   -4.354720   -0.831439
     46          6           0       -6.829274    0.514153    0.694194
     47          8           0       -4.686144    1.706287    1.063300
     48          6           0       -7.252349   -0.682318    0.184905
     49          1           0       -7.498627    1.262554    1.092364
     50          6           0       -5.377560    2.836279    1.587065
     51          1           0       -8.266779   -1.042641    0.107376
     52          1           0       -5.944556    2.569574    2.484768
     53          1           0       -4.607820    3.560817    1.845655
     54          1           0       -6.049346    3.268266    0.838477
 ---------------------------------------------------------------------

 The electronic state is 1-A.
 Alpha  occ. eigenvalues --  -88.88429 -88.88210 -19.17122 -19.17055 -19.12318
 Alpha  occ. eigenvalues --  -19.12314 -19.11916 -19.11491 -14.38494 -14.37974
 Alpha  occ. eigenvalues --  -10.30902 -10.30784 -10.30353 -10.30075 -10.24895
 Alpha  occ. eigenvalues --  -10.24578 -10.23963 -10.23818 -10.23816 -10.22676
 Alpha  occ. eigenvalues --  -10.22363 -10.22350 -10.22206 -10.22039 -10.21999
 Alpha  occ. eigenvalues --  -10.21972 -10.21729 -10.21725 -10.21254 -10.21113
 Alpha  occ. eigenvalues --  -10.20959 -10.20790 -10.20730 -10.20618 -10.19073
 Alpha  occ. eigenvalues --  -10.19014  -7.96982  -7.96658  -5.93291  -5.92977
 Alpha  occ. eigenvalues --   -5.92902  -5.92565  -5.92552  -5.92217  -1.08753
 Alpha  occ. eigenvalues --   -1.08609  -1.08567  -1.08188  -1.06757  -1.06194
 Alpha  occ. eigenvalues --   -0.96124  -0.95635  -0.92197  -0.90269  -0.88748
 Alpha  occ. eigenvalues --   -0.86468  -0.84044  -0.80475  -0.78214  -0.77546
 Alpha  occ. eigenvalues --   -0.76514  -0.75399  -0.75059  -0.73301  -0.72412
 Alpha  occ. eigenvalues --   -0.71474  -0.70524  -0.68803  -0.66968  -0.65785
 Alpha  occ. eigenvalues --   -0.65396  -0.64760  -0.60904  -0.59926  -0.58606
 Alpha  occ. eigenvalues --   -0.57367  -0.56708  -0.56324  -0.55215  -0.54745
 Alpha  occ. eigenvalues --   -0.53637  -0.51486  -0.50091  -0.50005  -0.49501
 Alpha  occ. eigenvalues --   -0.49391  -0.48824  -0.48681  -0.48552  -0.48359
 Alpha  occ. eigenvalues --   -0.48112  -0.47133  -0.46623  -0.46191  -0.45989
 Alpha  occ. eigenvalues --   -0.45571  -0.45034  -0.44373  -0.44057  -0.43549
 Alpha  occ. eigenvalues --   -0.42945  -0.42502  -0.42166  -0.41870  -0.41693
 Alpha  occ. eigenvalues --   -0.41666  -0.41316  -0.41070  -0.40512  -0.39715
 Alpha  occ. eigenvalues --   -0.39427  -0.39135  -0.38926  -0.37634  -0.37164
 Alpha  occ. eigenvalues --   -0.36306  -0.35857  -0.34335  -0.34063  -0.33611
 Alpha  occ. eigenvalues --   -0.33103  -0.31972  -0.30815  -0.30102  -0.29826
 Alpha  occ. eigenvalues --   -0.29268  -0.28724  -0.28644  -0.27902  -0.27347
 Alpha  occ. eigenvalues --   -0.26003  -0.24802  -0.24418  -0.19521
 Alpha virt. eigenvalues --   -0.12769  -0.07440  -0.06376  -0.04392  -0.03738
 Alpha virt. eigenvalues --   -0.00767  -0.00531  -0.00379   0.00070   0.00475
 Alpha virt. eigenvalues --    0.00907   0.01153   0.01419   0.01754   0.01997

 Mulliken charges:
               1
     1  C    0.349985
     2  C    0.002400
     3  C    0.122735
     4  C    0.202988
     5  C    0.305692
     6  C   -0.297165
     7  C    0.133822
     8  C    0.307542
     9  C    0.288831
    10  C   -0.067782
    11  C    0.131463
    12  C    0.249137
    13  C   -0.473874
    14  C   -0.608835
    15  H    0.158078
    16  H    0.160582
    17  H    0.171932
    18  N   -0.145528
    19  N   -0.141960
    20  O   -0.284509
    21  O   -0.270223
    22  O   -0.280913
    23  O   -0.231328
    24  C   -0.216897
    25  H    0.174813
    26  H    0.175606
    27  H    0.183722
    28  C   -0.197628
    29  H    0.173855
    30  H    0.173228
    31  H    0.182818
    32  C   -0.233126
    33  C   -0.759588
    34  S   -0.242701
    35  C   -0.177269
    36  H    0.141076
    37  C    0.708253
    38  O   -0.138659
    39  C    0.769116
    40  C   -0.225083
    41  C    0.019528
    42  S   -0.274321
    43  H    0.167383
    44  H    0.146024
    45  H    0.152695
    46  C   -0.600858
    47  O   -0.122637
    48  C   -0.272566
    49  H    0.132090
    50  C   -0.244785
    51  H    0.161423
    52  H    0.143582
    53  H    0.171192
    54  H    0.146642
 Sum of Mulliken charges =  -0.00000

 Dipole moment (field-independent basis, Debye):
    X=             -4.7861    Y=             -0.6664    Z=             -0.1073  Tot=              4.8334
 Quadrupole moment (field-independent basis, Debye-Ang):
   XX=           -212.6115   YY=           -216.3104   ZZ=           -219.0505
   XY=            -12.4690   XZ=             -4.3323   YZ=             11.5692

 Normal termination of Gaussian 16 at Tue Nov 17 17:26:55 2020.
