 Gaussian 16, Revision C.01,
 Gaussian 16:  ES64L-G16RevC.01  3-Jul-2019

 -------------------------------------
 # opt=modredundant b3lyp/6-311+g(d,p)
 -------------------------------------

 -----------
 NDI_180.pdb
 -----------
 Symbolic Z-matrix:
 Charge =  0 Multiplicity = 1

 SCF Done:  E(RB3LYP) =  -2359.29074986     A.U. after   17 cycles
 SCF Done:  E(RB3LYP) =  -2359.32178209     A.U. after   17 cycles
 SCF Done:  E(RB3LYP) =  -2359.33077815     A.U. after   16 cycles
 SCF Done:  E(RB3LYP) =  -2359.33287010     A.U. after   13 cycles
 SCF Done:  E(RB3LYP) =  -2359.33319974     A.U. after   13 cycles
 SCF Done:  E(RB3LYP) =  -2359.33321203     A.U. after   12 cycles
 SCF Done:  E(RB3LYP) =  -2359.33330036     A.U. after   11 cycles
 SCF Done:  E(RB3LYP) =  -2359.33331752     A.U. after   12 cycles
 SCF Done:  E(RB3LYP) =  -2359.33333362     A.U. after   11 cycles
 SCF Done:  E(RB3LYP) =  -2359.33334325     A.U. after   12 cycles
 SCF Done:  E(RB3LYP) =  -2359.33376859     A.U. after   11 cycles
 SCF Done:  E(RB3LYP) =  -2359.33376983     A.U. after   11 cycles
 SCF Done:  E(RB3LYP) =  -2359.33377042     A.U. after    9 cycles
 SCF Done:  E(RB3LYP) =  -2359.33377107     A.U. after   11 cycles
 SCF Done:  E(RB3LYP) =  -2359.33377146     A.U. after   11 cycles
 SCF Done:  E(RB3LYP) =  -2359.33377183     A.U. after   10 cycles
 SCF Done:  E(RB3LYP) =  -2359.33377212     A.U. after   10 cycles
 SCF Done:  E(RB3LYP) =  -2359.33377224     A.U. after   10 cycles
 SCF Done:  E(RB3LYP) =  -2359.33377231     A.U. after    9 cycles
 SCF Done:  E(RB3LYP) =  -2359.33377234     A.U. after    9 cycles
 Optimization completed.
    -- Stationary point found.

                         Standard orientation:
 ---------------------------------------------------------------------
 Center     Atomic      Atomic             Coordinates (Angstroms)
 Number     Number       Type             X           Y           Z
 ---------------------------------------------------------------------
      1          6           0       -3.569825   -2.653975    0.012800
      2          6           0       -2.813073   -1.377373    0.101615
      3          6           0       -3.474616   -0.139102   -0.060005
      4          6           0       -4.856222   -0.092708   -0.322311
      5          6           0       -5.643636   -1.349627   -0.426106
      6          6           0       -1.463210   -1.416978    0.306048
      7          6           0       -2.706078    1.049248    0.058143
      8          6           0       -1.300165    0.996322    0.322001
      9          6           0       -0.625232   -0.256987    0.392917
     10          6           0       -0.636789    2.283488    0.614952
     11          6           0       -2.681452    3.568946    0.014380
     12          6           0       -3.393243    2.279222   -0.105108
     13          6           0       -4.755339    2.307852   -0.377216
     14          6           0       -5.494512    1.128265   -0.484819
     15          1           0       -6.557017    1.146263   -0.689676
     16          1           0       -5.228003    3.274081   -0.500360
     17          1           0       -1.034735   -2.403256    0.371836
     18          7           0       -1.339588    3.477433    0.383586
     19          7           0       -4.940588   -2.554786   -0.242712
     20          8           0       -3.044926   -3.744993    0.151049
     21          8           0       -6.838318   -1.348693   -0.654961
     22          8           0       -3.224581    4.644731   -0.172117
     23          8           0        0.493694    2.367721    1.069793
     24          6           0       -0.597504    4.721700    0.629849
     25          1           0       -0.332389    4.796461    1.685165
     26          1           0        0.321201    4.721399    0.044182
     27          1           0       -1.237447    5.549380    0.340595
     28          6           0       -5.681604   -3.821089   -0.330024
     29          1           0       -5.277383   -4.430068   -1.139143
     30          1           0       -5.575222   -4.373846    0.603522
     31          1           0       -6.724378   -3.585322   -0.516969
     32          6           0        0.809051   -0.555883    0.443585
     33          6           0        1.325921   -1.855355    0.512288
     34         16           0        2.129851    0.565158    0.145600
     35          6           0        2.705624   -1.943274    0.311103
     36          1           0        0.730156   -2.729898    0.712202
     37          6           0        3.316339   -0.713425    0.053480
     38          8           0        3.465042   -3.070811    0.349144
     39          6           0        4.708329   -0.469882   -0.190319
     40          6           0        2.813019   -4.310942    0.606631
     41          6           0        5.330766    0.753332   -0.432951
     42         16           0        5.914895   -1.753472   -0.230727
     43          1           0        3.595116   -5.067767    0.593716
     44          1           0        2.328256   -4.304820    1.588321
     45          1           0        2.074381   -4.536797   -0.169283
     46          6           0        6.733324    0.661034   -0.642877
     47          8           0        4.587012    1.884910   -0.453238
     48          6           0        7.177986   -0.629931   -0.562511
     49          1           0        7.379927    1.502611   -0.843279
     50          6           0        5.252608    3.129348   -0.652162
     51          1           0        8.190542   -0.984522   -0.681097
     52          1           0        5.742807    3.161443   -1.630380
     53          1           0        4.476169    3.890520   -0.609367
     54          1           0        5.987152    3.312374    0.138266
 ---------------------------------------------------------------------

 The electronic state is 1-A.
 Alpha  occ. eigenvalues --  -88.88797 -88.88322 -19.17532 -19.17233 -19.12210
 Alpha  occ. eigenvalues --  -19.12177 -19.11513 -19.11295 -14.38373 -14.37768
 Alpha  occ. eigenvalues --  -10.30756 -10.30661 -10.30124 -10.29857 -10.25375
 Alpha  occ. eigenvalues --  -10.24787 -10.24142 -10.24037 -10.23957 -10.22712
 Alpha  occ. eigenvalues --  -10.22529 -10.22458 -10.22130 -10.22046 -10.21924
 Alpha  occ. eigenvalues --  -10.21770 -10.21757 -10.21536 -10.21441 -10.21170
 Alpha  occ. eigenvalues --  -10.20862 -10.20525 -10.20472 -10.20452 -10.19469
 Alpha  occ. eigenvalues --  -10.19373  -7.97349  -7.96797  -5.93658  -5.93269
 Alpha  occ. eigenvalues --   -5.93119  -5.92918  -5.92704  -5.92349  -1.09171
 Alpha  occ. eigenvalues --   -1.08799  -1.08438  -1.07940  -1.06625  -1.05955
 Alpha  occ. eigenvalues --   -0.95996  -0.95393  -0.92001  -0.90552  -0.88988
 Alpha  occ. eigenvalues --   -0.86368  -0.83818  -0.80498  -0.78040  -0.77780
 Alpha  occ. eigenvalues --   -0.76733  -0.75700  -0.74901  -0.73512  -0.72292
 Alpha  occ. eigenvalues --   -0.71432  -0.70813  -0.68924  -0.66847  -0.65663
 Alpha  occ. eigenvalues --   -0.65300  -0.64649  -0.61039  -0.60187  -0.58561
 Alpha  occ. eigenvalues --   -0.57403  -0.56811  -0.56547  -0.55457  -0.54704
 Alpha  occ. eigenvalues --   -0.53633  -0.51357  -0.50154  -0.49884  -0.49363
 Alpha  occ. eigenvalues --   -0.49236  -0.49116  -0.48769  -0.48728  -0.48317
 Alpha  occ. eigenvalues --   -0.48166  -0.47183  -0.46572  -0.46080  -0.45976
 Alpha  occ. eigenvalues --   -0.45603  -0.44892  -0.44331  -0.44009  -0.43451
 Alpha  occ. eigenvalues --   -0.43164  -0.42459  -0.42341  -0.41967  -0.41685
 Alpha  occ. eigenvalues --   -0.41586  -0.41210  -0.40972  -0.40449  -0.39866
 Alpha  occ. eigenvalues --   -0.39498  -0.39184  -0.38847  -0.37565  -0.37122
 Alpha  occ. eigenvalues --   -0.36549  -0.36292  -0.34593  -0.34300  -0.33724
 Alpha  occ. eigenvalues --   -0.33275  -0.31680  -0.30686  -0.30422  -0.29601
 Alpha  occ. eigenvalues --   -0.29181  -0.28590  -0.28418  -0.27709  -0.27242
 Alpha  occ. eigenvalues --   -0.25895  -0.25036  -0.24622  -0.19712
 Alpha virt. eigenvalues --   -0.12673  -0.07900  -0.06169  -0.04213  -0.03698
 Alpha virt. eigenvalues --   -0.00898  -0.00460  -0.00326  -0.00128   0.00404
 Alpha virt. eigenvalues --    0.00946   0.01077   0.01454   0.01966   0.02005

 Mulliken charges:
               1
     1  C    0.366238
     2  C   -0.082133
     3  C    0.106416
     4  C    0.168142
     5  C    0.267261
     6  C    0.042890
     7  C    0.067093
     8  C    0.183022
     9  C    0.376617
    10  C   -0.300617
    11  C    0.264855
    12  C    0.100040
    13  C   -0.441339
    14  C   -0.582567
    15  H    0.157214
    16  H    0.160597
    17  H    0.158160
    18  N   -0.098663
    19  N   -0.148510
    20  O   -0.287618
    21  O   -0.265366
    22  O   -0.281478
    23  O   -0.223481
    24  C   -0.170746
    25  H    0.177074
    26  H    0.170107
    27  H    0.182686
    28  C   -0.200422
    29  H    0.173321
    30  H    0.173163
    31  H    0.182234
    32  C   -0.153239
    33  C   -0.138059
    34  S   -0.632373
    35  C   -0.251719
    36  H    0.126371
    37  C    0.533031
    38  O   -0.138356
    39  C    0.787140
    40  C   -0.224197
    41  C   -0.079176
    42  S   -0.256467
    43  H    0.168953
    44  H    0.149963
    45  H    0.150515
    46  C   -0.541303
    47  O   -0.112266
    48  C   -0.299430
    49  H    0.133132
    50  C   -0.241976
    51  H    0.162923
    52  H    0.144079
    53  H    0.169963
    54  H    0.148302
 Sum of Mulliken charges =  -0.00000

 Dipole moment (field-independent basis, Debye):
    X=              5.6443    Y=             -0.8805    Z=             -0.4216  Tot=              5.7281
 Quadrupole moment (field-independent basis, Debye-Ang):
   XX=           -209.3184   YY=           -212.8705   ZZ=           -224.1129
   XY=             13.0918   XZ=             -7.7689   YZ=             -3.3388

 Normal termination of Gaussian 16 at Tue Nov 17 23:09:54 2020.
