 Gaussian 16, Revision C.01,
 Gaussian 16:  ES64L-G16RevC.01  3-Jul-2019

 -------------------------------------
 # opt=modredundant b3lyp/6-311+g(d,p)
 -------------------------------------

 -----------
 NDI_-50.pdb
 -----------
 Symbolic Z-matrix:
 Charge =  0 Multiplicity = 1

 SCF Done:  E(RB3LYP) =  -2359.33685813     A.U. after   17 cycles
 SCF Done:  E(RB3LYP) =  -2359.33717929     A.U. after   14 cycles
 SCF Done:  E(RB3LYP) =  -2359.33778990     A.U. after   13 cycles
 SCF Done:  E(RB3LYP) =  -2359.33789365     A.U. after   13 cycles
 SCF Done:  E(RB3LYP) =  -2359.33791669     A.U. after   12 cycles
 SCF Done:  E(RB3LYP) =  -2359.33792939     A.U. after   12 cycles
 SCF Done:  E(RB3LYP) =  -2359.33793189     A.U. after   11 cycles
 SCF Done:  E(RB3LYP) =  -2359.33793284     A.U. after   10 cycles
 SCF Done:  E(RB3LYP) =  -2359.33793384     A.U. after   11 cycles
 SCF Done:  E(RB3LYP) =  -2359.33793476     A.U. after   10 cycles
 SCF Done:  E(RB3LYP) =  -2359.33793551     A.U. after   10 cycles
 SCF Done:  E(RB3LYP) =  -2359.33793626     A.U. after   10 cycles
 SCF Done:  E(RB3LYP) =  -2359.33793691     A.U. after   11 cycles
 SCF Done:  E(RB3LYP) =  -2359.33793741     A.U. after   11 cycles
 SCF Done:  E(RB3LYP) =  -2359.33793763     A.U. after   10 cycles
 SCF Done:  E(RB3LYP) =  -2359.33793775     A.U. after   10 cycles
 SCF Done:  E(RB3LYP) =  -2359.33793786     A.U. after   10 cycles
 SCF Done:  E(RB3LYP) =  -2359.33793792     A.U. after    9 cycles
 SCF Done:  E(RB3LYP) =  -2359.33793794     A.U. after    9 cycles
 SCF Done:  E(RB3LYP) =  -2359.33793795     A.U. after    8 cycles
 Optimization completed.
    -- Stationary point found.

                         Standard orientation:
 ---------------------------------------------------------------------
 Center     Atomic      Atomic             Coordinates (Angstroms)
 Number     Number       Type             X           Y           Z
 ---------------------------------------------------------------------
      1          6           0        2.655626   -2.956281    0.523968
      2          6           0        2.302498   -1.529254    0.298887
      3          6           0        3.315048   -0.564877    0.092266
      4          6           0        4.674035   -0.942076    0.093641
      5          6           0        5.063397   -2.358621    0.328909
      6          6           0        0.984715   -1.150558    0.310831
      7          6           0        2.936981    0.788182   -0.132756
      8          6           0        1.562397    1.172834   -0.118792
      9          6           0        0.567394    0.202178    0.141468
     10          6           0        1.233465    2.585287   -0.455248
     11          6           0        3.658524    3.141716   -0.672310
     12          6           0        3.971982    1.724892   -0.379760
     13          6           0        5.302820    1.334352   -0.372049
     14          6           0        5.660739    0.003949   -0.131277
     15          1           0        6.697833   -0.305726   -0.125532
     16          1           0        6.056831    2.087251   -0.563818
     17          1           0        0.241171   -1.913229    0.501915
     18          7           0        2.301286    3.461573   -0.730017
     19          7           0        4.018176   -3.276273    0.526119
     20          8           0        1.819224   -3.822549    0.700182
     21          8           0        6.226741   -2.714032    0.348785
     22          8           0        4.523723    3.978140   -0.866664
     23          8           0        0.100085    3.026151   -0.523031
     24          6           0        1.926228    4.841513   -1.070493
     25          1           0        1.248797    4.836148   -1.923698
     26          1           0        1.414007    5.308658   -0.228366
     27          1           0        2.836855    5.383849   -1.304054
     28          6           0        4.355132   -4.688628    0.755237
     29          1           0        3.965065   -5.007705    1.721978
     30          1           0        3.900576   -5.305568   -0.020212
     31          1           0        5.436151   -4.782041    0.731247
     32          6           0       -0.873540    0.435664    0.255312
     33          6           0       -1.562253    1.365628    1.002010
     34         16           0       -1.981516   -0.721308   -0.459484
     35          6           0       -2.956856    1.168997    0.987763
     36          1           0       -1.072819    2.166271    1.531960
     37          6           0       -3.378289    0.080057    0.224638
     38          8           0       -3.885944    1.926828    1.628822
     39          6           0       -4.725541   -0.345610   -0.032943
     40          6           0       -3.443833    3.116739    2.277271
     41          6           0       -5.141513   -1.450755   -0.768040
     42         16           0       -6.136057    0.517291    0.569746
     43          1           0       -4.342089    3.600831    2.656364
     44          1           0       -2.777041    2.884061    3.114002
     45          1           0       -2.935355    3.781697    1.572465
     46          6           0       -6.553159   -1.600893   -0.846220
     47          8           0       -4.210228   -2.263271   -1.331669
     48          6           0       -7.210409   -0.610113   -0.170755
     49          1           0       -7.056898   -2.398817   -1.371825
     50          6           0       -4.661311   -3.404035   -2.056035
     51          1           0       -8.276540   -0.482737   -0.061856
     52          1           0       -5.270697   -3.108448   -2.916061
     53          1           0       -3.762963   -3.909837   -2.404939
     54          1           0       -5.232443   -4.079346   -1.411030
 ---------------------------------------------------------------------

 The electronic state is 1-A.
 Alpha  occ. eigenvalues --  -88.88390 -88.88371 -19.17175 -19.16827 -19.12350
 Alpha  occ. eigenvalues --  -19.12305 -19.11700 -19.11650 -14.38516 -14.38053
 Alpha  occ. eigenvalues --  -10.30952 -10.30780 -10.30542 -10.30281 -10.24793
 Alpha  occ. eigenvalues --  -10.24531 -10.23900 -10.23734 -10.23537 -10.22838
 Alpha  occ. eigenvalues --  -10.22568 -10.22454 -10.22279 -10.22169 -10.22163
 Alpha  occ. eigenvalues --  -10.21950 -10.21915 -10.21737 -10.21316 -10.20995
 Alpha  occ. eigenvalues --  -10.20990 -10.20962 -10.20934 -10.20650 -10.18962
 Alpha  occ. eigenvalues --  -10.18858  -7.96951  -7.96923  -5.93269  -5.93233
 Alpha  occ. eigenvalues --   -5.92880  -5.92844  -5.92497  -5.92491  -1.08724
 Alpha  occ. eigenvalues --   -1.08600  -1.08382  -1.08169  -1.06786  -1.06266
 Alpha  occ. eigenvalues --   -0.96163  -0.95610  -0.92348  -0.90359  -0.88794
 Alpha  occ. eigenvalues --   -0.86580  -0.84159  -0.80414  -0.78355  -0.77684
 Alpha  occ. eigenvalues --   -0.76420  -0.75331  -0.75092  -0.73191  -0.72385
 Alpha  occ. eigenvalues --   -0.71772  -0.70350  -0.68823  -0.67072  -0.65794
 Alpha  occ. eigenvalues --   -0.65541  -0.64613  -0.61092  -0.59870  -0.58558
 Alpha  occ. eigenvalues --   -0.57331  -0.56734  -0.56375  -0.55263  -0.54812
 Alpha  occ. eigenvalues --   -0.53451  -0.51617  -0.50226  -0.49878  -0.49691
 Alpha  occ. eigenvalues --   -0.49394  -0.48793  -0.48628  -0.48462  -0.48356
 Alpha  occ. eigenvalues --   -0.48127  -0.46995  -0.46524  -0.46253  -0.45845
 Alpha  occ. eigenvalues --   -0.45593  -0.44924  -0.44469  -0.44199  -0.43662
 Alpha  occ. eigenvalues --   -0.42746  -0.42528  -0.42346  -0.41997  -0.41805
 Alpha  occ. eigenvalues --   -0.41632  -0.41211  -0.41092  -0.40464  -0.39737
 Alpha  occ. eigenvalues --   -0.39579  -0.39170  -0.38849  -0.37683  -0.37455
 Alpha  occ. eigenvalues --   -0.36420  -0.35717  -0.34353  -0.33982  -0.33746
 Alpha  occ. eigenvalues --   -0.33454  -0.32067  -0.30959  -0.30332  -0.29753
 Alpha  occ. eigenvalues --   -0.29256  -0.28829  -0.28608  -0.28039  -0.27267
 Alpha  occ. eigenvalues --   -0.26078  -0.24703  -0.24564  -0.19390
 Alpha virt. eigenvalues --   -0.13013  -0.07238  -0.06383  -0.04582  -0.03851
 Alpha virt. eigenvalues --   -0.00874  -0.00420  -0.00303   0.00057   0.00464
 Alpha virt. eigenvalues --    0.00751   0.01134   0.01491   0.01498   0.01800

 Mulliken charges:
               1
     1  C    0.300590
     2  C   -0.072607
     3  C    0.155290
     4  C    0.198995
     5  C    0.238897
     6  C   -0.463945
     7  C    0.213567
     8  C    0.271017
     9  C    0.531486
    10  C   -0.357800
    11  C    0.182833
    12  C    0.162143
    13  C   -0.466103
    14  C   -0.579068
    15  H    0.158867
    16  H    0.160864
    17  H    0.182863
    18  N   -0.150901
    19  N   -0.143446
    20  O   -0.278160
    21  O   -0.268866
    22  O   -0.277127
    23  O   -0.197199
    24  C   -0.211766
    25  H    0.175842
    26  H    0.170879
    27  H    0.182281
    28  C   -0.197829
    29  H    0.174442
    30  H    0.173772
    31  H    0.182300
    32  C    0.069056
    33  C   -0.458772
    34  S   -0.537203
    35  C   -0.139270
    36  H    0.135294
    37  C    0.694312
    38  O   -0.133572
    39  C    0.781830
    40  C   -0.240674
    41  C   -0.058674
    42  S   -0.265566
    43  H    0.164610
    44  H    0.143950
    45  H    0.161167
    46  C   -0.580499
    47  O   -0.130366
    48  C   -0.269657
    49  H    0.131883
    50  C   -0.240019
    51  H    0.160859
    52  H    0.145286
    53  H    0.167870
    54  H    0.146043
 Sum of Mulliken charges =  -0.00000

 Dipole moment (field-independent basis, Debye):
    X=             -4.2484    Y=             -0.5390    Z=              0.1200  Tot=              4.2841
 Quadrupole moment (field-independent basis, Debye-Ang):
   XX=           -218.0954   YY=           -215.2796   ZZ=           -215.0612
   XY=              3.6625   XZ=              5.5255   YZ=             15.7090

 Normal termination of Gaussian 16 at Tue Nov 17 15:41:14 2020.
