 Gaussian 16, Revision C.01,
 Gaussian 16:  ES64L-G16RevC.01  3-Jul-2019

 -------------------------------------
 # opt=modredundant b3lyp/6-311+g(d,p)
 -------------------------------------

 -----------
 NDI_-80.pdb
 -----------
 Symbolic Z-matrix:
 Charge =  0 Multiplicity = 1

 SCF Done:  E(RB3LYP) =  -2359.33107368     A.U. after   17 cycles
 SCF Done:  E(RB3LYP) =  -2359.33432087     A.U. after   15 cycles
 SCF Done:  E(RB3LYP) =  -2359.33478775     A.U. after   14 cycles
 SCF Done:  E(RB3LYP) =  -2359.33480517     A.U. after   13 cycles
 SCF Done:  E(RB3LYP) =  -2359.33487680     A.U. after   13 cycles
 SCF Done:  E(RB3LYP) =  -2359.33487863     A.U. after   12 cycles
 SCF Done:  E(RB3LYP) =  -2359.33488236     A.U. after   10 cycles
 SCF Done:  E(RB3LYP) =  -2359.33488270     A.U. after   12 cycles
 SCF Done:  E(RB3LYP) =  -2359.33488305     A.U. after   10 cycles
 SCF Done:  E(RB3LYP) =  -2359.33488326     A.U. after   10 cycles
 SCF Done:  E(RB3LYP) =  -2359.33488344     A.U. after    9 cycles
 SCF Done:  E(RB3LYP) =  -2359.33488371     A.U. after   10 cycles
 SCF Done:  E(RB3LYP) =  -2359.33488394     A.U. after   10 cycles
 SCF Done:  E(RB3LYP) =  -2359.33488407     A.U. after    9 cycles
 SCF Done:  E(RB3LYP) =  -2359.33488414     A.U. after    9 cycles
 SCF Done:  E(RB3LYP) =  -2359.33488416     A.U. after    9 cycles
 Optimization completed.
    -- Stationary point found.

                         Standard orientation:
 ---------------------------------------------------------------------
 Center     Atomic      Atomic             Coordinates (Angstroms)
 Number     Number       Type             X           Y           Z
 ---------------------------------------------------------------------
      1          6           0        3.020062   -2.872561    0.541850
      2          6           0        2.496599   -1.494980    0.341376
      3          6           0        3.378898   -0.434672    0.038630
      4          6           0        4.767774   -0.665076   -0.081452
      5          6           0        5.324751   -2.031140    0.117136
      6          6           0        1.146772   -1.253276    0.460329
      7          6           0        2.850816    0.871119   -0.154192
      8          6           0        1.452146    1.104200   -0.029342
      9          6           0        0.598110    0.046104    0.307919
     10          6           0        0.932459    2.479093   -0.297958
     11          6           0        3.255766    3.297645   -0.707752
     12          6           0        3.750235    1.917020   -0.475947
     13          6           0        5.107899    1.669304   -0.587741
     14          6           0        5.620755    0.379417   -0.389562
     15          1           0        6.681462    0.181425   -0.477412
     16          1           0        5.762954    2.495317   -0.834318
     17          1           0        0.488334   -2.078051    0.701944
     18          7           0        1.873156    3.476477   -0.617156
     19          7           0        4.404233   -3.048346    0.415497
     20          8           0        2.300968   -3.817472    0.804838
     21          8           0        6.515618   -2.261454    0.026016
     22          8           0        4.005844    4.220439   -0.969590
     23          8           0       -0.245232    2.772795   -0.266366
     24          6           0        1.323032    4.816013   -0.873554
     25          1           0        0.616230    4.770509   -1.701957
     26          1           0        0.793803    5.173638    0.009964
     27          1           0        2.151412    5.475072   -1.112785
     28          6           0        4.906985   -4.415182    0.618170
     29          1           0        4.643055   -4.759273    1.618331
     30          1           0        4.449930   -5.086504   -0.109076
     31          1           0        5.984981   -4.396326    0.493919
     32          6           0       -0.862405    0.169872    0.503913
     33          6           0       -1.529380    0.626797    1.608428
     34         16           0       -1.955244   -0.523538   -0.659933
     35          6           0       -2.935248    0.457114    1.507800
     36          1           0       -1.027913    1.078555    2.451891
     37          6           0       -3.356732   -0.148154    0.333240
     38          8           0       -3.857438    0.819265    2.442640
     39          6           0       -4.705945   -0.426947   -0.089266
     40          6           0       -3.414588    1.590930    3.553419
     41          6           0       -5.119853   -1.060022   -1.252673
     42         16           0       -6.116192    0.029921    0.857096
     43          1           0       -4.307970    1.826036    4.129580
     44          1           0       -2.721005    1.020776    4.180685
     45          1           0       -2.936806    2.519035    3.223266
     46          6           0       -6.532061   -1.175638   -1.384929
     47          8           0       -4.186214   -1.502138   -2.141231
     48          6           0       -7.192346   -0.629896   -0.319946
     49          1           0       -7.033407   -1.639103   -2.222085
     50          6           0       -4.641514   -2.149588   -3.323408
     51          1           0       -8.257974   -0.583351   -0.156574
     52          1           0       -5.259849   -1.478522   -3.928788
     53          1           0       -3.746121   -2.417580   -3.881744
     54          1           0       -5.206139   -3.057139   -3.085217
 ---------------------------------------------------------------------

 The electronic state is 1-A.
 Alpha  occ. eigenvalues --  -88.87833 -88.87536 -19.16314 -19.16225 -19.12786
 Alpha  occ. eigenvalues --  -19.12714 -19.12430 -19.12344 -14.38918 -14.38615
 Alpha  occ. eigenvalues --  -10.31409 -10.31193 -10.31092 -10.31032 -10.23859
 Alpha  occ. eigenvalues --  -10.23796 -10.23751 -10.23392 -10.23324 -10.23320
 Alpha  occ. eigenvalues --  -10.23239 -10.23161 -10.22813 -10.22744 -10.22730
 Alpha  occ. eigenvalues --  -10.21778 -10.21774 -10.21706 -10.21485 -10.21268
 Alpha  occ. eigenvalues --  -10.21072 -10.21035 -10.20871 -10.20042 -10.18345
 Alpha  occ. eigenvalues --  -10.18162  -7.96376  -7.96090  -5.92701  -5.92400
 Alpha  occ. eigenvalues --   -5.92309  -5.92012  -5.91918  -5.91659  -1.09021
 Alpha  occ. eigenvalues --   -1.08809  -1.07835  -1.07737  -1.07220  -1.06971
 Alpha  occ. eigenvalues --   -0.96587  -0.96217  -0.92969  -0.89793  -0.88284
 Alpha  occ. eigenvalues --   -0.86838  -0.84760  -0.80468  -0.78904  -0.77219
 Alpha  occ. eigenvalues --   -0.75914  -0.75526  -0.74616  -0.72957  -0.72507
 Alpha  occ. eigenvalues --   -0.71852  -0.69884  -0.68669  -0.67482  -0.66308
 Alpha  occ. eigenvalues --   -0.65837  -0.64975  -0.60858  -0.59522  -0.58595
 Alpha  occ. eigenvalues --   -0.57739  -0.56539  -0.55689  -0.55619  -0.54159
 Alpha  occ. eigenvalues --   -0.53815  -0.52035  -0.50537  -0.50159  -0.50022
 Alpha  occ. eigenvalues --   -0.49260  -0.48944  -0.48808  -0.48158  -0.47908
 Alpha  occ. eigenvalues --   -0.47715  -0.47458  -0.46911  -0.46587  -0.45606
 Alpha  occ. eigenvalues --   -0.45329  -0.44978  -0.44924  -0.44602  -0.44061
 Alpha  occ. eigenvalues --   -0.42942  -0.42790  -0.42375  -0.42080  -0.41825
 Alpha  occ. eigenvalues --   -0.41483  -0.41294  -0.41002  -0.40768  -0.40146
 Alpha  occ. eigenvalues --   -0.39910  -0.38937  -0.38357  -0.37804  -0.36992
 Alpha  occ. eigenvalues --   -0.35843  -0.35573  -0.33824  -0.33363  -0.33239
 Alpha  occ. eigenvalues --   -0.32859  -0.32658  -0.31342  -0.30484  -0.29976
 Alpha  occ. eigenvalues --   -0.29443  -0.29335  -0.28902  -0.28574  -0.27208
 Alpha  occ. eigenvalues --   -0.26626  -0.24243  -0.23968  -0.18735
 Alpha virt. eigenvalues --   -0.13465  -0.07209  -0.06149  -0.05052  -0.04386
 Alpha virt. eigenvalues --   -0.01093  -0.00113  -0.00067   0.00134   0.00533
 Alpha virt. eigenvalues --    0.00774   0.00882   0.01002   0.01169   0.01769

 Mulliken charges:
               1
     1  C    0.391600
     2  C    0.000846
     3  C    0.154420
     4  C    0.182949
     5  C    0.245990
     6  C   -0.712902
     7  C    0.210006
     8  C    0.131980
     9  C    0.667018
    10  C   -0.422534
    11  C    0.292399
    12  C    0.125693
    13  C   -0.518787
    14  C   -0.632903
    15  H    0.161513
    16  H    0.162612
    17  H    0.171536
    18  N   -0.164880
    19  N   -0.147921
    20  O   -0.269025
    21  O   -0.268951
    22  O   -0.271446
    23  O   -0.088166
    24  C   -0.207337
    25  H    0.179213
    26  H    0.175200
    27  H    0.184256
    28  C   -0.198138
    29  H    0.175578
    30  H    0.175713
    31  H    0.183222
    32  C    0.201958
    33  C   -0.587165
    34  S   -0.256276
    35  C   -0.380397
    36  H    0.112353
    37  C    0.462305
    38  O   -0.129254
    39  C    0.941355
    40  C   -0.236827
    41  C    0.048272
    42  S   -0.258996
    43  H    0.164262
    44  H    0.141976
    45  H    0.155164
    46  C   -0.502257
    47  O   -0.142126
    48  C   -0.302354
    49  H    0.128970
    50  C   -0.237254
    51  H    0.157432
    52  H    0.144632
    53  H    0.163031
    54  H    0.142443
 Sum of Mulliken charges =  -0.00000

 Dipole moment (field-independent basis, Debye):
    X=             -1.7128    Y=              0.0014    Z=             -0.0017  Tot=              1.7128
 Quadrupole moment (field-independent basis, Debye-Ang):
   XX=           -221.4114   YY=           -227.2072   ZZ=           -202.7069
   XY=              0.5891   XZ=              8.8639   YZ=             14.3399

 Normal termination of Gaussian 16 at Tue Nov 17 14:24:21 2020.
