 Gaussian 16, Revision C.01,
 Gaussian 16:  ES64L-G16RevC.01  3-Jul-2019

 -------------------------------------
 # opt=modredundant b3lyp/6-311+g(d,p)
 -------------------------------------

 -----------
 NDI_-20.pdb
 -----------
 Symbolic Z-matrix:
 Charge =  0 Multiplicity = 1

 SCF Done:  E(RB3LYP) =  -2359.33332171     A.U. after   17 cycles
 SCF Done:  E(RB3LYP) =  -2359.31607951     A.U. after   17 cycles
 SCF Done:  E(RB3LYP) =  -2359.33377794     A.U. after   15 cycles
 SCF Done:  E(RB3LYP) =  -2359.33609097     A.U. after   17 cycles
 SCF Done:  E(RB3LYP) =  -2359.33703723     A.U. after   16 cycles
 SCF Done:  E(RB3LYP) =  -2359.33727646     A.U. after   13 cycles
 SCF Done:  E(RB3LYP) =  -2359.33733354     A.U. after   14 cycles
 SCF Done:  E(RB3LYP) =  -2359.33737938     A.U. after   13 cycles
 SCF Done:  E(RB3LYP) =  -2359.33739724     A.U. after   13 cycles
 SCF Done:  E(RB3LYP) =  -2359.33740389     A.U. after   13 cycles
 SCF Done:  E(RB3LYP) =  -2359.33740618     A.U. after   12 cycles
 SCF Done:  E(RB3LYP) =  -2359.33740843     A.U. after   11 cycles
 SCF Done:  E(RB3LYP) =  -2359.33741205     A.U. after   12 cycles
 SCF Done:  E(RB3LYP) =  -2359.33741411     A.U. after   11 cycles
 SCF Done:  E(RB3LYP) =  -2359.33741601     A.U. after   10 cycles
 SCF Done:  E(RB3LYP) =  -2359.33741655     A.U. after    9 cycles
 SCF Done:  E(RB3LYP) =  -2359.33741706     A.U. after   10 cycles
 SCF Done:  E(RB3LYP) =  -2359.33741722     A.U. after   10 cycles
 Optimization completed.
    -- Stationary point found.

                         Standard orientation:
 ---------------------------------------------------------------------
 Center     Atomic      Atomic             Coordinates (Angstroms)
 Number     Number       Type             X           Y           Z
 ---------------------------------------------------------------------
      1          6           0        2.532959   -3.025995    0.188274
      2          6           0        2.240003   -1.572726    0.075165
      3          6           0        3.291641   -0.627491    0.063763
      4          6           0        4.631715   -1.047115    0.174855
      5          6           0        4.960699   -2.492073    0.303278
      6          6           0        0.939150   -1.152438    0.025060
      7          6           0        2.964933    0.750007   -0.073829
      8          6           0        1.604271    1.176199   -0.179905
      9          6           0        0.556418    0.222013   -0.065734
     10          6           0        1.373435    2.597314   -0.549945
     11          6           0        3.795277    3.121307   -0.254987
     12          6           0        4.041724    1.672548   -0.093280
     13          6           0        5.355407    1.241766    0.032830
     14          6           0        5.658585   -0.115540    0.165055
     15          1           0        6.681469   -0.457092    0.256229
     16          1           0        6.139216    1.988550    0.021317
     17          1           0        0.177394   -1.917663    0.099064
     18          7           0        2.468215    3.481071   -0.493977
     19          7           0        3.879445   -3.390176    0.295093
     20          8           0        1.662092   -3.876848    0.190820
     21          8           0        6.106447   -2.887711    0.407413
     22          8           0        4.687483    3.951261   -0.211413
     23          8           0        0.301053    3.045410   -0.920567
     24          6           0        2.175670    4.888324   -0.800345
     25          1           0        1.826266    4.981863   -1.829166
     26          1           0        1.391579    5.253889   -0.137672
     27          1           0        3.090797    5.454198   -0.657392
     28          6           0        4.158466   -4.828605    0.410577
     29          1           0        3.662109   -5.229972    1.294404
     30          1           0        3.774094   -5.349378   -0.466741
     31          1           0        5.233665   -4.954846    0.487595
     32          6           0       -0.870220    0.479230    0.085291
     33          6           0       -1.555564    1.601546    0.511881
     34         16           0       -2.014333   -0.809755   -0.291833
     35          6           0       -2.948196    1.429587    0.555982
     36          1           0       -1.066564    2.519294    0.784536
     37          6           0       -3.390434    0.170924    0.138214
     38          8           0       -3.864038    2.352116    0.948064
     39          6           0       -4.742855   -0.296247    0.042730
     40          6           0       -3.396977    3.657917    1.281801
     41          6           0       -5.179816   -1.555262   -0.361191
     42         16           0       -6.135719    0.704607    0.439632
     43          1           0       -4.286347    4.242023    1.510860
     44          1           0       -2.744740    3.627834    2.160488
     45          1           0       -2.863984    4.110151    0.440118
     46          6           0       -6.592382   -1.711262   -0.351849
     47          8           0       -4.266116   -2.491863   -0.717209
     48          6           0       -7.228871   -0.572260    0.058360
     49          1           0       -7.111486   -2.615879   -0.632479
     50          6           0       -4.735044   -3.778524   -1.113664
     51          1           0       -8.291536   -0.413079    0.159820
     52          1           0       -5.367649   -3.708415   -2.004069
     53          1           0       -3.845229   -4.360815   -1.344787
     54          1           0       -5.287169   -4.262326   -0.301904
 ---------------------------------------------------------------------

 The electronic state is 1-A.
 Alpha  occ. eigenvalues --  -88.88809 -88.88692 -19.17599 -19.17225 -19.12159
 Alpha  occ. eigenvalues --  -19.12136 -19.11451 -19.11442 -14.38337 -14.37838
 Alpha  occ. eigenvalues --  -10.30750 -10.30604 -10.30354 -10.29996 -10.25326
 Alpha  occ. eigenvalues --  -10.24970 -10.24165 -10.23783 -10.23769 -10.22917
 Alpha  occ. eigenvalues --  -10.22570 -10.22320 -10.22198 -10.22180 -10.22089
 Alpha  occ. eigenvalues --  -10.21879 -10.21860 -10.21547 -10.21477 -10.21204
 Alpha  occ. eigenvalues --  -10.20828 -10.20651 -10.20589 -10.20557 -10.19370
 Alpha  occ. eigenvalues --  -10.19032  -7.97360  -7.97261  -5.93670  -5.93577
 Alpha  occ. eigenvalues --   -5.93280  -5.93186  -5.92928  -5.92808  -1.09173
 Alpha  occ. eigenvalues --   -1.08801  -1.08413  -1.07957  -1.06597  -1.06022
 Alpha  occ. eigenvalues --   -0.95976  -0.95406  -0.92101  -0.90687  -0.89089
 Alpha  occ. eigenvalues --   -0.86430  -0.83893  -0.80480  -0.78228  -0.77853
 Alpha  occ. eigenvalues --   -0.76685  -0.75679  -0.74920  -0.73511  -0.72269
 Alpha  occ. eigenvalues --   -0.71784  -0.70595  -0.68899  -0.66934  -0.65591
 Alpha  occ. eigenvalues --   -0.65476  -0.64433  -0.61300  -0.60113  -0.58526
 Alpha  occ. eigenvalues --   -0.57284  -0.56807  -0.56698  -0.55281  -0.55050
 Alpha  occ. eigenvalues --   -0.53362  -0.51475  -0.50378  -0.49800  -0.49524
 Alpha  occ. eigenvalues --   -0.49225  -0.49134  -0.48709  -0.48623  -0.48387
 Alpha  occ. eigenvalues --   -0.48183  -0.46945  -0.46520  -0.46179  -0.45936
 Alpha  occ. eigenvalues --   -0.45711  -0.44715  -0.44350  -0.43964  -0.43357
 Alpha  occ. eigenvalues --   -0.43011  -0.42673  -0.42454  -0.42017  -0.41907
 Alpha  occ. eigenvalues --   -0.41635  -0.41002  -0.40965  -0.40370  -0.39997
 Alpha  occ. eigenvalues --   -0.39367  -0.39232  -0.38972  -0.37874  -0.37405
 Alpha  occ. eigenvalues --   -0.36680  -0.36184  -0.34631  -0.34334  -0.33753
 Alpha  occ. eigenvalues --   -0.33668  -0.31845  -0.30815  -0.30403  -0.29588
 Alpha  occ. eigenvalues --   -0.29155  -0.28653  -0.28518  -0.27814  -0.27227
 Alpha  occ. eigenvalues --   -0.25977  -0.24968  -0.24853  -0.19693
 Alpha virt. eigenvalues --   -0.12821  -0.07781  -0.06257  -0.04291  -0.03640
 Alpha virt. eigenvalues --   -0.00861  -0.00486  -0.00327  -0.00090   0.00366
 Alpha virt. eigenvalues --    0.00825   0.01269   0.01417   0.01770   0.01952

 Mulliken charges:
               1
     1  C    0.276901
     2  C   -0.063487
     3  C    0.198739
     4  C    0.200187
     5  C    0.236541
     6  C    0.067251
     7  C    0.229270
     8  C    0.516816
     9  C    0.223157
    10  C   -0.794416
    11  C    0.220750
    12  C    0.130057
    13  C   -0.477881
    14  C   -0.581482
    15  H    0.157768
    16  H    0.160490
    17  H    0.167995
    18  N   -0.077292
    19  N   -0.141141
    20  O   -0.285977
    21  O   -0.268218
    22  O   -0.280363
    23  O   -0.245154
    24  C   -0.166522
    25  H    0.177752
    26  H    0.165276
    27  H    0.183126
    28  C   -0.198924
    29  H    0.173735
    30  H    0.173111
    31  H    0.181687
    32  C   -0.038546
    33  C   -0.358851
    34  S   -0.672912
    35  C   -0.301528
    36  H    0.145533
    37  C    0.701631
    38  O   -0.126767
    39  C    0.909151
    40  C   -0.242067
    41  C    0.006579
    42  S   -0.239629
    43  H    0.166541
    44  H    0.145501
    45  H    0.164437
    46  C   -0.622390
    47  O   -0.127954
    48  C   -0.288954
    49  H    0.133672
    50  C   -0.241063
    51  H    0.163178
    52  H    0.145730
    53  H    0.171783
    54  H    0.147173
 Sum of Mulliken charges =  -0.00000

 Dipole moment (field-independent basis, Debye):
    X=             -5.5425    Y=             -0.6668    Z=              0.3942  Tot=              5.5964
 Quadrupole moment (field-independent basis, Debye-Ang):
   XX=           -215.1360   YY=           -209.6103   ZZ=           -221.7505
   XY=              4.7666   XZ=              0.1316   YZ=              9.9043

 Normal termination of Gaussian 16 at Tue Nov 17 15:49:18 2020.
