 Gaussian 16, Revision C.01,
 Gaussian 16:  ES64L-G16RevC.01  3-Jul-2019

 -------------------------------------
 # opt=modredundant b3lyp/6-311+g(d,p)
 -------------------------------------

 -------------
 pBTTT_155.pdb
 -------------
 Symbolic Z-matrix:
 Charge =  0 Multiplicity = 1

 SCF Done:  E(RB3LYP) =  -1618.67746071     A.U. after   17 cycles
 SCF Done:  E(RB3LYP) =  -1618.70605938     A.U. after   15 cycles
 SCF Done:  E(RB3LYP) =  -1618.71369254     A.U. after   15 cycles
 SCF Done:  E(RB3LYP) =  -1618.71574296     A.U. after   13 cycles
 SCF Done:  E(RB3LYP) =  -1618.71608364     A.U. after   12 cycles
 SCF Done:  E(RB3LYP) =  -1618.71659042     A.U. after   12 cycles
 SCF Done:  E(RB3LYP) =  -1618.71664581     A.U. after   12 cycles
 SCF Done:  E(RB3LYP) =  -1618.71671420     A.U. after   11 cycles
 SCF Done:  E(RB3LYP) =  -1618.71674743     A.U. after   11 cycles
 SCF Done:  E(RB3LYP) =  -1618.71676948     A.U. after   11 cycles
 SCF Done:  E(RB3LYP) =  -1618.71677641     A.U. after   10 cycles
 SCF Done:  E(RB3LYP) =  -1618.71677836     A.U. after    9 cycles
 SCF Done:  E(RB3LYP) =  -1618.71677872     A.U. after    9 cycles
 Optimization completed.
    -- Stationary point found.

                         Standard orientation:
 ---------------------------------------------------------------------
 Center     Atomic      Atomic             Coordinates (Angstroms)
 Number     Number       Type             X           Y           Z
 ---------------------------------------------------------------------
      1          6           0       -3.959048    0.784721    0.034386
      2          6           0       -2.581435    1.129875    0.185850
      3          6           0       -1.748747    0.039704   -0.001258
      4          6           0       -2.135609    2.520564    0.546461
      5          6           0       -4.171685   -0.529642   -0.261727
      6          1           0       -4.761951    1.500770    0.158273
      7         16           0       -2.683886   -1.398925   -0.383466
      8          1           0       -5.109516   -1.041817   -0.412028
      9          6           0       -0.299032   -0.021429    0.025671
     10         16           0        0.518089   -1.548483    0.416110
     11          6           0        2.082103   -0.815868    0.193240
     12          6           0        1.950244    0.524216   -0.144487
     13          6           0        0.609252    0.976551   -0.248968
     14          1           0        0.322330    1.972279   -0.550633
     15         16           0        3.516834    1.258679   -0.365380
     16          6           0        4.306069   -0.257995    0.004502
     17          6           0        3.428824   -1.267571    0.280189
     18          1           0        5.384273   -0.304094   -0.006171
     19          1           0        3.734335   -2.273990    0.530257
     20          1           0       -2.939014    3.057177    1.055889
     21          1           0       -1.867623    3.105194   -0.341032
     22          1           0       -1.265031    2.505372    1.206062
 ---------------------------------------------------------------------

 The electronic state is 1-A.
 Alpha  occ. eigenvalues --  -88.88465 -88.88286 -88.88081 -10.22577 -10.21679
 Alpha  occ. eigenvalues --  -10.21191 -10.21121 -10.21046 -10.20518 -10.19373
 Alpha  occ. eigenvalues --  -10.19371 -10.19301 -10.18193 -10.17829  -7.97040
 Alpha  occ. eigenvalues --   -7.96870  -7.96706  -5.93352  -5.93193  -5.93002
 Alpha  occ. eigenvalues --   -5.92988  -5.92830  -5.92624  -5.92588  -5.92390
 Alpha  occ. eigenvalues --   -5.92290  -0.91725  -0.89310  -0.84955  -0.78085
 Alpha  occ. eigenvalues --   -0.76937  -0.75924  -0.71452  -0.70570  -0.68227
 Alpha  occ. eigenvalues --   -0.61516  -0.57530  -0.57282  -0.54122  -0.52162
 Alpha  occ. eigenvalues --   -0.50073  -0.49775  -0.44602  -0.43884  -0.43728
 Alpha  occ. eigenvalues --   -0.41986  -0.41642  -0.40270  -0.39743  -0.38934
 Alpha  occ. eigenvalues --   -0.37975  -0.37885  -0.36419  -0.35099  -0.34323
 Alpha  occ. eigenvalues --   -0.33869  -0.29274  -0.26502  -0.25504  -0.23790
 Alpha  occ. eigenvalues --   -0.20725
 Alpha virt. eigenvalues --   -0.06071  -0.01916  -0.00905  -0.00477   0.00312
 Alpha virt. eigenvalues --    0.00735   0.01103   0.01489   0.02071   0.02746
 Alpha virt. eigenvalues --    0.03073   0.03443   0.03810   0.04301   0.04648

 Mulliken charges:
               1
     1  C    0.052689
     2  C    0.483434
     3  C    0.423817
     4  C   -1.081735
     5  C   -0.058697
     6  H    0.122628
     7  S   -0.493942
     8  H    0.159483
     9  C    0.340096
    10  S   -0.523341
    11  C    0.449469
    12  C    0.160845
    13  C   -0.120878
    14  H    0.137679
    15  S   -0.406279
    16  C   -0.111601
    17  C   -0.310003
    18  H    0.167199
    19  H    0.135657
    20  H    0.145442
    21  H    0.166955
    22  H    0.161083
 Sum of Mulliken charges =  -0.00000

 Dipole moment (field-independent basis, Debye):
    X=             -0.3125    Y=              0.8810    Z=              0.1315  Tot=              0.9440
 Quadrupole moment (field-independent basis, Debye-Ang):
   XX=            -88.1467   YY=            -97.8166   ZZ=           -109.1868
   XY=             -5.1750   XZ=              0.6260   YZ=             -0.4844

 Normal termination of Gaussian 16 at Sun Oct 17 01:32:38 2021.
