 Gaussian 16, Revision C.01,
 Gaussian 16:  ES64L-G16RevC.01  3-Jul-2019

 -------------------------------------
 # opt=modredundant b3lyp/6-311+g(d,p)
 -------------------------------------

 -------------
 pBTTT_-30.pdb
 -------------
 Symbolic Z-matrix:
 Charge =  0 Multiplicity = 1

 SCF Done:  E(RB3LYP) =  -1618.67837455     A.U. after   16 cycles
 SCF Done:  E(RB3LYP) =  -1618.70702593     A.U. after   14 cycles
 SCF Done:  E(RB3LYP) =  -1618.71440832     A.U. after   16 cycles
 SCF Done:  E(RB3LYP) =  -1618.71614800     A.U. after   14 cycles
 SCF Done:  E(RB3LYP) =  -1618.71628645     A.U. after   13 cycles
 SCF Done:  E(RB3LYP) =  -1618.71673411     A.U. after   12 cycles
 SCF Done:  E(RB3LYP) =  -1618.71677385     A.U. after   12 cycles
 SCF Done:  E(RB3LYP) =  -1618.71681931     A.U. after   12 cycles
 SCF Done:  E(RB3LYP) =  -1618.71684939     A.U. after   11 cycles
 SCF Done:  E(RB3LYP) =  -1618.71688930     A.U. after   11 cycles
 SCF Done:  E(RB3LYP) =  -1618.71691025     A.U. after   11 cycles
 SCF Done:  E(RB3LYP) =  -1618.71692201     A.U. after   10 cycles
 SCF Done:  E(RB3LYP) =  -1618.71692294     A.U. after    9 cycles
 Optimization completed.
    -- Stationary point found.

                         Standard orientation:
 ---------------------------------------------------------------------
 Center     Atomic      Atomic             Coordinates (Angstroms)
 Number     Number       Type             X           Y           Z
 ---------------------------------------------------------------------
      1          6           0       -4.037469    0.271639    0.160934
      2          6           0       -2.723652    0.824938    0.261884
      3          6           0       -1.742494   -0.121380    0.024830
      4          6           0       -2.493137    2.270844    0.615011
      5          6           0       -4.058922   -1.056133   -0.149301
      6          1           0       -4.934404    0.854729    0.328686
      7         16           0       -2.461527   -1.682227   -0.348990
      8          1           0       -4.913591   -1.703691   -0.271159
      9          6           0       -0.293718   -0.014669    0.020275
     10         16           0        0.524704    1.495551   -0.425308
     11          6           0        2.088096    0.755413   -0.227843
     12          6           0        1.955899   -0.574917    0.147880
     13          6           0        0.615379   -1.012111    0.294620
     14          1           0        0.320467   -2.005691    0.602751
     15         16           0        3.522419   -1.310424    0.363568
     16          6           0        4.312274    0.192815   -0.057325
     17          6           0        3.435484    1.199724   -0.343383
     18          1           0        5.390724    0.232685   -0.070075
     19          1           0        3.741625    2.197708   -0.624635
     20          1           0       -3.368032    2.676957    1.127368
     21          1           0       -2.323675    2.884231   -0.276376
     22          1           0       -1.629080    2.399686    1.269636
 ---------------------------------------------------------------------

 The electronic state is 1-A.
 Alpha  occ. eigenvalues --  -88.88419 -88.88394 -88.88033 -10.22550 -10.21663
 Alpha  occ. eigenvalues --  -10.21169 -10.21101 -10.21019 -10.20494 -10.19367
 Alpha  occ. eigenvalues --  -10.19360 -10.19180 -10.18147 -10.17610  -7.96993
 Alpha  occ. eigenvalues --   -7.96973  -7.96657  -5.93306  -5.93295  -5.92955
 Alpha  occ. eigenvalues --   -5.92941  -5.92930  -5.92575  -5.92540  -5.92496
 Alpha  occ. eigenvalues --   -5.92239  -0.91709  -0.89263  -0.84946  -0.77806
 Alpha  occ. eigenvalues --   -0.77261  -0.75748  -0.71442  -0.70474  -0.68169
 Alpha  occ. eigenvalues --   -0.61484  -0.57905  -0.56972  -0.53537  -0.52332
 Alpha  occ. eigenvalues --   -0.50130  -0.49759  -0.44533  -0.43914  -0.43612
 Alpha  occ. eigenvalues --   -0.42040  -0.41605  -0.40172  -0.39500  -0.38941
 Alpha  occ. eigenvalues --   -0.37999  -0.37728  -0.36718  -0.34819  -0.34280
 Alpha  occ. eigenvalues --   -0.33918  -0.29257  -0.26405  -0.25470  -0.23806
 Alpha  occ. eigenvalues --   -0.20720
 Alpha virt. eigenvalues --   -0.06020  -0.01719  -0.00577  -0.00408   0.00102
 Alpha virt. eigenvalues --    0.00484   0.01168   0.01471   0.02032   0.02614
 Alpha virt. eigenvalues --    0.03022   0.03411   0.03858   0.04185   0.04795

 Mulliken charges:
               1
     1  C    0.015558
     2  C    0.199571
     3  C    0.559370
     4  C   -0.934422
     5  C   -0.075351
     6  H    0.122244
     7  S   -0.509022
     8  H    0.160038
     9  C    0.462867
    10  S   -0.543518
    11  C    0.382604
    12  C    0.148819
    13  C   -0.130086
    14  H    0.141821
    15  S   -0.404370
    16  C   -0.133359
    17  C   -0.247843
    18  H    0.167080
    19  H    0.134895
    20  H    0.143368
    21  H    0.175374
    22  H    0.164363
 Sum of Mulliken charges =  -0.00000

 Dipole moment (field-independent basis, Debye):
    X=             -0.4317    Y=              0.8990    Z=              0.2552  Tot=              1.0294
 Quadrupole moment (field-independent basis, Debye-Ang):
   XX=            -87.8981   YY=            -98.0508   ZZ=           -109.0574
   XY=              1.9384   XZ=             -1.5045   YZ=             -0.6116

 Normal termination of Gaussian 16 at Sun Oct 17 00:32:53 2021.
