 Gaussian 16, Revision C.01,
 Gaussian 16:  ES64L-G16RevC.01  3-Jul-2019

 -------------------------------------
 # opt=modredundant b3lyp/6-311+g(d,p)
 -------------------------------------

 -------------
 pBTTT_105.pdb
 -------------
 Symbolic Z-matrix:
 Charge =  0 Multiplicity = 1

 SCF Done:  E(RB3LYP) =  -1618.67468519     A.U. after   17 cycles
 SCF Done:  E(RB3LYP) =  -1618.70472166     A.U. after   16 cycles
 SCF Done:  E(RB3LYP) =  -1618.71290400     A.U. after   16 cycles
 SCF Done:  E(RB3LYP) =  -1618.71480009     A.U. after   15 cycles
 SCF Done:  E(RB3LYP) =  -1618.71489359     A.U. after   15 cycles
 SCF Done:  E(RB3LYP) =  -1618.71549765     A.U. after   14 cycles
 SCF Done:  E(RB3LYP) =  -1618.71546659     A.U. after   13 cycles
 SCF Done:  E(RB3LYP) =  -1618.71557204     A.U. after   13 cycles
 SCF Done:  E(RB3LYP) =  -1618.71560050     A.U. after   13 cycles
 SCF Done:  E(RB3LYP) =  -1618.71574339     A.U. after   13 cycles
 SCF Done:  E(RB3LYP) =  -1618.71604575     A.U. after   13 cycles
 SCF Done:  E(RB3LYP) =  -1618.71633148     A.U. after   15 cycles
 SCF Done:  E(RB3LYP) =  -1618.71626122     A.U. after   14 cycles
 SCF Done:  E(RB3LYP) =  -1618.71645731     A.U. after   13 cycles
 SCF Done:  E(RB3LYP) =  -1618.71612959     A.U. after   15 cycles
 SCF Done:  E(RB3LYP) =  -1618.71650348     A.U. after   15 cycles
 SCF Done:  E(RB3LYP) =  -1618.71651064     A.U. after   13 cycles
 SCF Done:  E(RB3LYP) =  -1618.71651170     A.U. after   11 cycles
 SCF Done:  E(RB3LYP) =  -1618.71651203     A.U. after   10 cycles
 SCF Done:  E(RB3LYP) =  -1618.71651204     A.U. after    8 cycles
 Optimization completed.
    -- Stationary point found.

                         Standard orientation:
 ---------------------------------------------------------------------
 Center     Atomic      Atomic             Coordinates (Angstroms)
 Number     Number       Type             X           Y           Z
 ---------------------------------------------------------------------
      1          6           0       -3.964992    0.696125    0.194398
      2          6           0       -2.582663    0.979895    0.435369
      3          6           0       -1.755617    0.020351   -0.105107
      4          6           0       -2.114024    2.184109    1.204258
      5          6           0       -4.173178   -0.458244   -0.501208
      6          1           0       -4.769828    1.333329    0.539583
      7         16           0       -2.684665   -1.241599   -0.898269
      8          1           0       -5.112155   -0.895429   -0.805385
      9          6           0       -0.295290   -0.050146   -0.062863
     10         16           0        0.513302   -1.203091    1.013873
     11          6           0        2.078753   -0.631370    0.510091
     12          6           0        1.950907    0.391618   -0.420954
     13          6           0        0.607390    0.720948   -0.748211
     14          1           0        0.304888    1.477521   -1.459056
     15         16           0        3.518785    0.965012   -0.925302
     16          6           0        4.304819   -0.187042    0.129710
     17          6           0        3.426966   -0.966014    0.826503
     18          1           0        5.383233   -0.213127    0.165946
     19          1           0        3.731232   -1.732866    1.525156
     20          1           0       -2.615997    2.243802    2.174626
     21          1           0       -2.340436    3.109318    0.664184
     22          1           0       -1.038117    2.150930    1.378210
 ---------------------------------------------------------------------

 The electronic state is 1-A.
 Alpha  occ. eigenvalues --  -88.88476 -88.88237 -88.87881 -10.22175 -10.21228
 Alpha  occ. eigenvalues --  -10.21168 -10.21105 -10.21093 -10.20476 -10.19382
 Alpha  occ. eigenvalues --  -10.19369 -10.19286 -10.18021 -10.17382  -7.97050
 Alpha  occ. eigenvalues --   -7.96806  -7.96494  -5.93362  -5.93121  -5.92998
 Alpha  occ. eigenvalues --   -5.92784  -5.92758  -5.92600  -5.92409  -5.92344
 Alpha  occ. eigenvalues --   -5.92089  -0.91638  -0.89116  -0.84906  -0.77660
 Alpha  occ. eigenvalues --   -0.77031  -0.75580  -0.71424  -0.70544  -0.67888
 Alpha  occ. eigenvalues --   -0.61321  -0.57478  -0.56731  -0.54271  -0.52038
 Alpha  occ. eigenvalues --   -0.49927  -0.49687  -0.44587  -0.43656  -0.43596
 Alpha  occ. eigenvalues --   -0.42102  -0.41434  -0.39931  -0.39509  -0.39016
 Alpha  occ. eigenvalues --   -0.37673  -0.37369  -0.36520  -0.34902  -0.34275
 Alpha  occ. eigenvalues --   -0.33688  -0.29084  -0.25417  -0.24679  -0.23729
 Alpha  occ. eigenvalues --   -0.22281
 Alpha virt. eigenvalues --   -0.04779  -0.02970  -0.00541  -0.00292   0.00163
 Alpha virt. eigenvalues --    0.00532   0.00729   0.01634   0.01786   0.02773
 Alpha virt. eigenvalues --    0.02879   0.03176   0.03609   0.03935   0.04440

 Mulliken charges:
               1
     1  C   -0.076419
     2  C   -0.058788
     3  C    0.241299
     4  C   -0.714937
     5  C   -0.065030
     6  H    0.127303
     7  S   -0.264690
     8  H    0.160178
     9  C    0.206409
    10  S   -0.572995
    11  C    0.149256
    12  C   -0.511340
    13  C    0.628049
    14  H    0.132390
    15  S   -0.392493
    16  C   -0.223797
    17  C    0.449054
    18  H    0.167564
    19  H    0.135633
    20  H    0.152616
    21  H    0.158527
    22  H    0.172210
 Sum of Mulliken charges =  -0.00000

 Dipole moment (field-independent basis, Debye):
    X=             -0.2246    Y=              0.8514    Z=              0.4916  Tot=              1.0084
 Quadrupole moment (field-independent basis, Debye-Ang):
   XX=            -88.3854   YY=           -101.8372   ZZ=           -105.0768
   XY=             -4.1575   XZ=              1.6904   YZ=             -1.2269

 Normal termination of Gaussian 16 at Sun Oct 17 01:43:06 2021.
