 Gaussian 16, Revision C.01,
 Gaussian 16:  ES64L-G16RevC.01  3-Jul-2019

 -------------------------------------
 # opt=modredundant b3lyp/6-311+g(d,p)
 -------------------------------------

 -------------
 pBTTT_-55.pdb
 -------------
 Symbolic Z-matrix:
 Charge =  0 Multiplicity = 1

 SCF Done:  E(RB3LYP) =  -1618.67660939     A.U. after   17 cycles
 SCF Done:  E(RB3LYP) =  -1618.70615703     A.U. after   14 cycles
 SCF Done:  E(RB3LYP) =  -1618.71412826     A.U. after   14 cycles
 SCF Done:  E(RB3LYP) =  -1618.71585985     A.U. after   14 cycles
 SCF Done:  E(RB3LYP) =  -1618.71600613     A.U. after   13 cycles
 SCF Done:  E(RB3LYP) =  -1618.71658821     A.U. after   14 cycles
 SCF Done:  E(RB3LYP) =  -1618.71659134     A.U. after   13 cycles
 SCF Done:  E(RB3LYP) =  -1618.71673584     A.U. after   13 cycles
 SCF Done:  E(RB3LYP) =  -1618.71683185     A.U. after   12 cycles
 SCF Done:  E(RB3LYP) =  -1618.71694718     A.U. after   13 cycles
 SCF Done:  E(RB3LYP) =  -1618.71708975     A.U. after   13 cycles
 SCF Done:  E(RB3LYP) =  -1618.71716969     A.U. after   13 cycles
 SCF Done:  E(RB3LYP) =  -1618.71718927     A.U. after   11 cycles
 SCF Done:  E(RB3LYP) =  -1618.71719175     A.U. after   11 cycles
 SCF Done:  E(RB3LYP) =  -1618.71719208     A.U. after    9 cycles
 SCF Done:  E(RB3LYP) =  -1618.71719210     A.U. after    8 cycles
 Optimization completed.
    -- Stationary point found.

                         Standard orientation:
 ---------------------------------------------------------------------
 Center     Atomic      Atomic             Coordinates (Angstroms)
 Number     Number       Type             X           Y           Z
 ---------------------------------------------------------------------
      1          6           0       -4.026289    0.290024    0.297466
      2          6           0       -2.696790    0.792401    0.457978
      3          6           0       -1.747663   -0.110137    0.024210
      4          6           0       -2.407174    2.140737    1.061164
      5          6           0       -4.081550   -0.962777   -0.239792
      6          1           0       -4.907229    0.847328    0.591209
      7         16           0       -2.502826   -1.573212   -0.586723
      8          1           0       -4.953500   -1.563789   -0.448513
      9          6           0       -0.292928   -0.015126    0.021811
     10         16           0        0.520393    1.351514   -0.761936
     11          6           0        2.085061    0.680097   -0.395948
     12          6           0        1.953553   -0.533865    0.266251
     13          6           0        0.610835   -0.930928    0.502644
     14          1           0        0.309996   -1.834285    1.015203
     15         16           0        3.519896   -1.202681    0.640969
     16          6           0        4.309506    0.169560   -0.102152
     17          6           0        3.433411    1.087738   -0.605337
     18          1           0        5.388015    0.206212   -0.121610
     19          1           0        3.739793    1.998695   -1.100377
     20          1           0       -3.094220    2.344604    1.886737
     21          1           0       -2.534036    2.942827    0.326260
     22          1           0       -1.388056    2.202105    1.444359
 ---------------------------------------------------------------------

 The electronic state is 1-A.
 Alpha  occ. eigenvalues --  -88.88449 -88.88310 -88.87975 -10.22327 -10.21385
 Alpha  occ. eigenvalues --  -10.21172 -10.21114 -10.21064 -10.20448 -10.19371
 Alpha  occ. eigenvalues --  -10.19295 -10.19262 -10.18067 -10.17432  -7.97023
 Alpha  occ. eigenvalues --   -7.96884  -7.96588  -5.93335  -5.93203  -5.92970
 Alpha  occ. eigenvalues --   -5.92881  -5.92839  -5.92572  -5.92503  -5.92415
 Alpha  occ. eigenvalues --   -5.92180  -0.91668  -0.89176  -0.84925  -0.77591
 Alpha  occ. eigenvalues --   -0.77238  -0.75636  -0.71434  -0.70491  -0.67988
 Alpha  occ. eigenvalues --   -0.61383  -0.57694  -0.56850  -0.53820  -0.52198
 Alpha  occ. eigenvalues --   -0.49997  -0.49704  -0.44524  -0.43833  -0.43523
 Alpha  occ. eigenvalues --   -0.42081  -0.41481  -0.40011  -0.39476  -0.39024
 Alpha  occ. eigenvalues --   -0.37767  -0.37435  -0.36681  -0.34880  -0.34243
 Alpha  occ. eigenvalues --   -0.33825  -0.29128  -0.25742  -0.25240  -0.23788
 Alpha  occ. eigenvalues --   -0.21462
 Alpha virt. eigenvalues --   -0.05431  -0.02193  -0.00608  -0.00425  -0.00039
 Alpha virt. eigenvalues --    0.00500   0.00924   0.01499   0.01939   0.02537
 Alpha virt. eigenvalues --    0.03087   0.03431   0.03829   0.04148   0.04629

 Mulliken charges:
               1
     1  C    0.038511
     2  C   -0.436154
     3  C    0.418120
     4  C   -0.820855
     5  C   -0.150303
     6  H    0.125848
     7  S   -0.290928
     8  H    0.160394
     9  C    0.729931
    10  S   -0.533372
    11  C    0.270964
    12  C   -0.566442
    13  C    0.587815
    14  H    0.142235
    15  S   -0.383959
    16  C   -0.214171
    17  C    0.145693
    18  H    0.167426
    19  H    0.135469
    20  H    0.144270
    21  H    0.169425
    22  H    0.160084
 Sum of Mulliken charges =  -0.00000

 Dipole moment (field-independent basis, Debye):
    X=             -0.3399    Y=              0.8099    Z=              0.4113  Tot=              0.9699
 Quadrupole moment (field-independent basis, Debye-Ang):
   XX=            -88.0818   YY=            -99.7657   ZZ=           -107.2110
   XY=              1.8350   XZ=             -2.5994   YZ=             -1.0046

 Normal termination of Gaussian 16 at Sun Oct 17 00:12:57 2021.
