 Gaussian 16, Revision C.01,
 Gaussian 16:  ES64L-G16RevC.01  3-Jul-2019

 -------------------------------------
 # opt=modredundant b3lyp/6-311+g(d,p)
 -------------------------------------

 -------------
 pBTTT_-85.pdb
 -------------
 Symbolic Z-matrix:
 Charge =  0 Multiplicity = 1

 SCF Done:  E(RB3LYP) =  -1618.67413586     A.U. after   17 cycles
 SCF Done:  E(RB3LYP) =  -1618.70440228     A.U. after   15 cycles
 SCF Done:  E(RB3LYP) =  -1618.71273487     A.U. after   14 cycles
 SCF Done:  E(RB3LYP) =  -1618.71467349     A.U. after   16 cycles
 SCF Done:  E(RB3LYP) =  -1618.71486418     A.U. after   15 cycles
 SCF Done:  E(RB3LYP) =  -1618.71542160     A.U. after   13 cycles
 SCF Done:  E(RB3LYP) =  -1618.71540883     A.U. after   13 cycles
 SCF Done:  E(RB3LYP) =  -1618.71541167     A.U. after   13 cycles
 SCF Done:  E(RB3LYP) =  -1618.71545845     A.U. after   13 cycles
 SCF Done:  E(RB3LYP) =  -1618.71546605     A.U. after   11 cycles
 SCF Done:  E(RB3LYP) =  -1618.71572406     A.U. after   12 cycles
 SCF Done:  E(RB3LYP) =  -1618.71610096     A.U. after   13 cycles
 SCF Done:  E(RB3LYP) =  -1618.71598970     A.U. after   16 cycles
 SCF Done:  E(RB3LYP) =  -1618.71628880     A.U. after   13 cycles
 SCF Done:  E(RB3LYP) =  -1618.71627901     A.U. after   13 cycles
 SCF Done:  E(RB3LYP) =  -1618.71630024     A.U. after   12 cycles
 SCF Done:  E(RB3LYP) =  -1618.71630119     A.U. after   11 cycles
 SCF Done:  E(RB3LYP) =  -1618.71630111     A.U. after   11 cycles
 SCF Done:  E(RB3LYP) =  -1618.71630127     A.U. after   10 cycles
 SCF Done:  E(RB3LYP) =  -1618.71630130     A.U. after    9 cycles
 Optimization completed.
    -- Stationary point found.

                         Standard orientation:
 ---------------------------------------------------------------------
 Center     Atomic      Atomic             Coordinates (Angstroms)
 Number     Number       Type             X           Y           Z
 ---------------------------------------------------------------------
      1          6           0        3.995135    0.417017   -0.437907
      2          6           0        2.631841    0.835287   -0.564116
      3          6           0        1.755677   -0.093345   -0.049774
      4          6           0        2.225414    2.138859   -1.193840
      5          6           0        4.140052   -0.799787    0.161022
      6          1           0        4.831916    1.008336   -0.788735
      7         16           0        2.613215   -1.482839    0.595676
      8          1           0        5.052615   -1.337858    0.368754
      9          6           0        0.292965   -0.041200    0.004169
     10         16           0       -0.518630    0.794136    1.340606
     11          6           0       -2.082917    0.389904    0.692013
     12          6           0       -1.952311   -0.350296   -0.476279
     13          6           0       -0.607724   -0.598527   -0.865344
     14          1           0       -0.303258   -1.155551   -1.740787
     15         16           0       -3.518486   -0.751661   -1.129908
     16          6           0       -4.307719    0.087492    0.185592
     17          6           0       -3.432255    0.643484    1.072928
     18          1           0       -5.386265    0.113798    0.217953
     19          1           0       -3.738827    1.199384    1.947992
     20          1           0        2.644713    2.232187   -2.200304
     21          1           0        2.591714    2.988492   -0.608669
     22          1           0        1.140848    2.223710   -1.268970
 ---------------------------------------------------------------------

 The electronic state is 1-A.
 Alpha  occ. eigenvalues --  -88.88473 -88.88224 -88.87872 -10.22150 -10.21174
 Alpha  occ. eigenvalues --  -10.21168 -10.21101 -10.21097 -10.20453 -10.19397
 Alpha  occ. eigenvalues --  -10.19371 -10.19252 -10.17997 -10.17355  -7.97047
 Alpha  occ. eigenvalues --   -7.96793  -7.96482  -5.93359  -5.93108  -5.92994
 Alpha  occ. eigenvalues --   -5.92772  -5.92744  -5.92597  -5.92396  -5.92332
 Alpha  occ. eigenvalues --   -5.92078  -0.91628  -0.89095  -0.84898  -0.77542
 Alpha  occ. eigenvalues --   -0.77132  -0.75524  -0.71416  -0.70531  -0.67864
 Alpha  occ. eigenvalues --   -0.61297  -0.57523  -0.56676  -0.54175  -0.52072
 Alpha  occ. eigenvalues --   -0.49917  -0.49677  -0.44555  -0.43675  -0.43568
 Alpha  occ. eigenvalues --   -0.42124  -0.41426  -0.39914  -0.39471  -0.38996
 Alpha  occ. eigenvalues --   -0.37660  -0.37306  -0.36553  -0.34898  -0.34260
 Alpha  occ. eigenvalues --   -0.33631  -0.29074  -0.25396  -0.24217  -0.23871
 Alpha  occ. eigenvalues --   -0.22558
 Alpha virt. eigenvalues --   -0.04608  -0.03108  -0.00559  -0.00326   0.00020
 Alpha virt. eigenvalues --    0.00497   0.00772   0.01647   0.01802   0.02607
 Alpha virt. eigenvalues --    0.03106   0.03114   0.03599   0.04031   0.04456

 Mulliken charges:
               1
     1  C   -0.046725
     2  C   -0.245409
     3  C    0.187676
     4  C   -0.619234
     5  C   -0.117019
     6  H    0.127095
     7  S   -0.219353
     8  H    0.160012
     9  C    0.412986
    10  S   -0.555765
    11  C    0.157481
    12  C   -0.571706
    13  C    0.560666
    14  H    0.137349
    15  S   -0.384381
    16  C   -0.227672
    17  C    0.458553
    18  H    0.167510
    19  H    0.135585
    20  H    0.153126
    21  H    0.161000
    22  H    0.168224
 Sum of Mulliken charges =  -0.00000

 Dipole moment (field-independent basis, Debye):
    X=              0.2456    Y=              0.8179    Z=             -0.4790  Tot=              0.9791
 Quadrupole moment (field-independent basis, Debye-Ang):
   XX=            -88.2479   YY=           -103.4373   ZZ=           -103.4938
   XY=             -0.5465   XZ=             -4.0011   YZ=              1.0350

 Normal termination of Gaussian 16 at Sun Oct 17 00:15:26 2021.
