 Gaussian 16, Revision C.01,
 Gaussian 16:  ES64L-G16RevC.01  3-Jul-2019

 -------------------------------------
 # opt=modredundant b3lyp/6-311+g(d,p)
 -------------------------------------

 -------------
 pBTTT_135.pdb
 -------------
 Symbolic Z-matrix:
 Charge =  0 Multiplicity = 1

 SCF Done:  E(RB3LYP) =  -1618.67691758     A.U. after   17 cycles
 SCF Done:  E(RB3LYP) =  -1618.70613311     A.U. after   15 cycles
 SCF Done:  E(RB3LYP) =  -1618.71391750     A.U. after   15 cycles
 SCF Done:  E(RB3LYP) =  -1618.71576486     A.U. after   14 cycles
 SCF Done:  E(RB3LYP) =  -1618.71600068     A.U. after   14 cycles
 SCF Done:  E(RB3LYP) =  -1618.71675690     A.U. after   13 cycles
 SCF Done:  E(RB3LYP) =  -1618.71687471     A.U. after   13 cycles
 SCF Done:  E(RB3LYP) =  -1618.71705108     A.U. after   12 cycles
 SCF Done:  E(RB3LYP) =  -1618.71728125     A.U. after   13 cycles
 SCF Done:  E(RB3LYP) =  -1618.71734871     A.U. after   13 cycles
 SCF Done:  E(RB3LYP) =  -1618.71739157     A.U. after   12 cycles
 SCF Done:  E(RB3LYP) =  -1618.71739785     A.U. after   12 cycles
 SCF Done:  E(RB3LYP) =  -1618.71739869     A.U. after   11 cycles
 SCF Done:  E(RB3LYP) =  -1618.71739891     A.U. after    9 cycles
 SCF Done:  E(RB3LYP) =  -1618.71739892     A.U. after    9 cycles
 Optimization completed.
    -- Stationary point found.

                         Standard orientation:
 ---------------------------------------------------------------------
 Center     Atomic      Atomic             Coordinates (Angstroms)
 Number     Number       Type             X           Y           Z
 ---------------------------------------------------------------------
      1          6           0       -3.955184    0.768666    0.123781
      2          6           0       -2.572073    1.086427    0.299002
      3          6           0       -1.750587    0.034713   -0.057337
      4          6           0       -2.105579    2.410451    0.839521
      5          6           0       -4.175975   -0.493158   -0.344534
      6          1           0       -4.754181    1.461215    0.357961
      7         16           0       -2.693771   -1.342131   -0.606951
      8          1           0       -5.118806   -0.977213   -0.548475
      9          6           0       -0.298386   -0.036070   -0.030694
     10         16           0        0.514448   -1.468576    0.627594
     11          6           0        2.079006   -0.772562    0.309855
     12          6           0        1.948387    0.492191   -0.248944
     13          6           0        0.605956    0.909848   -0.449492
     14          1           0        0.309505    1.842072   -0.908665
     15         16           0        3.515487    1.188204   -0.567700
     16          6           0        4.304056   -0.241280    0.060292
     17          6           0        3.426698   -1.196125    0.487413
     18          1           0        5.382494   -0.281847    0.073145
     19          1           0        3.732003   -2.145404    0.905065
     20          1           0       -2.803270    2.782985    1.593912
     21          1           0       -2.046618    3.168722    0.050755
     22          1           0       -1.117669    2.330893    1.296041
 ---------------------------------------------------------------------

 The electronic state is 1-A.
 Alpha  occ. eigenvalues --  -88.88465 -88.88285 -88.88011 -10.22383 -10.21483
 Alpha  occ. eigenvalues --  -10.21182 -10.21114 -10.21054 -10.20506 -10.19364
 Alpha  occ. eigenvalues --  -10.19331 -10.19330 -10.18133 -10.17599  -7.97039
 Alpha  occ. eigenvalues --   -7.96860  -7.96629  -5.93351  -5.93179  -5.92987
 Alpha  occ. eigenvalues --   -5.92922  -5.92817  -5.92588  -5.92545  -5.92389
 Alpha  occ. eigenvalues --   -5.92218  -0.91688  -0.89232  -0.84938  -0.77913
 Alpha  occ. eigenvalues --   -0.76949  -0.75794  -0.71447  -0.70555  -0.68065
 Alpha  occ. eigenvalues --   -0.61440  -0.57488  -0.57066  -0.54196  -0.52075
 Alpha  occ. eigenvalues --   -0.50009  -0.49733  -0.44601  -0.43802  -0.43624
 Alpha  occ. eigenvalues --   -0.42025  -0.41520  -0.40079  -0.39683  -0.39008
 Alpha  occ. eigenvalues --   -0.37802  -0.37652  -0.36486  -0.34984  -0.34261
 Alpha  occ. eigenvalues --   -0.33918  -0.29172  -0.26001  -0.25382  -0.23783
 Alpha  occ. eigenvalues --   -0.21208
 Alpha virt. eigenvalues --   -0.05608  -0.02235  -0.00653  -0.00412   0.00268
 Alpha virt. eigenvalues --    0.00685   0.00866   0.01514   0.01978   0.02774
 Alpha virt. eigenvalues --    0.02922   0.03330   0.03842   0.04122   0.04499

 Mulliken charges:
               1
     1  C    0.052748
     2  C   -0.134663
     3  C    0.614531
     4  C   -0.984977
     5  C   -0.102680
     6  H    0.125470
     7  S   -0.381214
     8  H    0.160115
     9  C    0.500851
    10  S   -0.572467
    11  C    0.339190
    12  C   -0.224827
    13  C    0.320688
    14  H    0.134604
    15  S   -0.399551
    16  C   -0.173810
    17  C   -0.053553
    18  H    0.167552
    19  H    0.135756
    20  H    0.144489
    21  H    0.166719
    22  H    0.165029
 Sum of Mulliken charges =  -0.00000

 Dipole moment (field-independent basis, Debye):
    X=             -0.2746    Y=              0.8684    Z=              0.3129  Tot=              0.9630
 Quadrupole moment (field-independent basis, Debye-Ang):
   XX=            -88.3283   YY=            -98.9953   ZZ=           -107.9549
   XY=             -4.8703   XZ=              0.9627   YZ=             -0.9139

 Normal termination of Gaussian 16 at Sun Oct 17 01:34:53 2021.
