 Gaussian 16, Revision C.01,
 Gaussian 16:  ES64L-G16RevC.01  3-Jul-2019

 -------------------------------------
 # opt=modredundant b3lyp/6-311+g(d,p)
 -------------------------------------

 -------------
 pBTTT_125.pdb
 -------------
 Symbolic Z-matrix:
 Charge =  0 Multiplicity = 1

 SCF Done:  E(RB3LYP) =  -1618.67607830     A.U. after   17 cycles
 SCF Done:  E(RB3LYP) =  -1618.70574081     A.U. after   15 cycles
 SCF Done:  E(RB3LYP) =  -1618.71362320     A.U. after   15 cycles
 SCF Done:  E(RB3LYP) =  -1618.71548002     A.U. after   15 cycles
 SCF Done:  E(RB3LYP) =  -1618.71559276     A.U. after   14 cycles
 SCF Done:  E(RB3LYP) =  -1618.71630205     A.U. after   14 cycles
 SCF Done:  E(RB3LYP) =  -1618.71636738     A.U. after   13 cycles
 SCF Done:  E(RB3LYP) =  -1618.71656602     A.U. after   12 cycles
 SCF Done:  E(RB3LYP) =  -1618.71682582     A.U. after   13 cycles
 SCF Done:  E(RB3LYP) =  -1618.71695443     A.U. after   12 cycles
 SCF Done:  E(RB3LYP) =  -1618.71712598     A.U. after   12 cycles
 SCF Done:  E(RB3LYP) =  -1618.71718467     A.U. after   12 cycles
 SCF Done:  E(RB3LYP) =  -1618.71719248     A.U. after   11 cycles
 SCF Done:  E(RB3LYP) =  -1618.71719298     A.U. after   11 cycles
 SCF Done:  E(RB3LYP) =  -1618.71719323     A.U. after   10 cycles
 SCF Done:  E(RB3LYP) =  -1618.71719327     A.U. after    9 cycles
 SCF Done:  E(RB3LYP) =  -1618.71719328     A.U. after    8 cycles
 Optimization completed.
    -- Stationary point found.

                         Standard orientation:
 ---------------------------------------------------------------------
 Center     Atomic      Atomic             Coordinates (Angstroms)
 Number     Number       Type             X           Y           Z
 ---------------------------------------------------------------------
      1          6           0       -3.954746    0.752957    0.162646
      2          6           0       -2.569592    1.056528    0.352253
      3          6           0       -1.752083    0.032908   -0.081034
      4          6           0       -2.095300    2.339809    0.977224
      5          6           0       -4.178262   -0.474444   -0.388272
      6          1           0       -4.752179    1.428978    0.445491
      7         16           0       -2.698287   -1.305959   -0.712528
      8          1           0       -5.122812   -0.941883   -0.621392
      9          6           0       -0.297530   -0.043466   -0.053539
     10         16           0        0.512122   -1.409097    0.736407
     11          6           0        2.077625   -0.740610    0.368972
     12          6           0        1.949228    0.468540   -0.302407
     13          6           0        0.606773    0.863604   -0.547417
     14          1           0        0.308343    1.754369   -1.082234
     15         16           0        3.517298    1.136405   -0.672133
     16          6           0        4.303645   -0.229172    0.086857
     17          6           0        3.425167   -1.143835    0.592017
     18          1           0        5.382052   -0.265968    0.110649
     19          1           0        3.729196   -2.051156    1.095113
     20          1           0       -2.729485    2.611064    1.825600
     21          1           0       -2.135825    3.170337    0.263989
     22          1           0       -1.066951    2.255749    1.331056
 ---------------------------------------------------------------------

 The electronic state is 1-A.
 Alpha  occ. eigenvalues --  -88.88467 -88.88271 -88.87964 -10.22299 -10.21393
 Alpha  occ. eigenvalues --  -10.21172 -10.21112 -10.21064 -10.20499 -10.19363
 Alpha  occ. eigenvalues --  -10.19344 -10.19319 -10.18094 -10.17505  -7.97041
 Alpha  occ. eigenvalues --   -7.96844  -7.96581  -5.93353  -5.93161  -5.92989
 Alpha  occ. eigenvalues --   -5.92873  -5.92799  -5.92590  -5.92496  -5.92376
 Alpha  occ. eigenvalues --   -5.92172  -0.91669  -0.89191  -0.84926  -0.77826
 Alpha  occ. eigenvalues --   -0.76966  -0.75721  -0.71439  -0.70550  -0.67995
 Alpha  occ. eigenvalues --   -0.61398  -0.57476  -0.56947  -0.54233  -0.52051
 Alpha  occ. eigenvalues --   -0.49979  -0.49714  -0.44601  -0.43755  -0.43597
 Alpha  occ. eigenvalues --   -0.42050  -0.41479  -0.40009  -0.39628  -0.39024
 Alpha  occ. eigenvalues --   -0.37746  -0.37538  -0.36506  -0.34941  -0.34270
 Alpha  occ. eigenvalues --   -0.33852  -0.29130  -0.25709  -0.25292  -0.23758
 Alpha  occ. eigenvalues --   -0.21525
 Alpha virt. eigenvalues --   -0.05340  -0.02456  -0.00584  -0.00349   0.00241
 Alpha virt. eigenvalues --    0.00654   0.00772   0.01541   0.01923   0.02769
 Alpha virt. eigenvalues --    0.02897   0.03307   0.03871   0.03932   0.04451

 Mulliken charges:
               1
     1  C    0.044113
     2  C   -0.180882
     3  C    0.598005
     4  C   -0.955656
     5  C   -0.107774
     6  H    0.125708
     7  S   -0.333240
     8  H    0.160263
     9  C    0.482049
    10  S   -0.562874
    11  C    0.299808
    12  C   -0.299202
    13  C    0.374611
    14  H    0.131802
    15  S   -0.398266
    16  C   -0.189011
    17  C    0.029616
    18  H    0.167598
    19  H    0.135771
    20  H    0.145427
    21  H    0.164793
    22  H    0.167344
 Sum of Mulliken charges =  -0.00000

 Dipole moment (field-independent basis, Debye):
    X=             -0.2571    Y=              0.8638    Z=              0.3951  Tot=              0.9840
 Quadrupole moment (field-independent basis, Debye-Ang):
   XX=            -88.3862   YY=            -99.7658   ZZ=           -107.1576
   XY=             -4.6781   XZ=              1.1513   YZ=             -1.0753

 Normal termination of Gaussian 16 at Sun Oct 17 01:21:47 2021.
