 Gaussian 16, Revision C.01,
 Gaussian 16:  ES64L-G16RevC.01  3-Jul-2019

 -------------------------------------
 # opt=modredundant b3lyp/6-311+g(d,p)
 -------------------------------------

 -------------
 pBTTT_120.pdb
 -------------
 Symbolic Z-matrix:
 Charge =  0 Multiplicity = 1

 SCF Done:  E(RB3LYP) =  -1618.67567296     A.U. after   17 cycles
 SCF Done:  E(RB3LYP) =  -1618.70547346     A.U. after   15 cycles
 SCF Done:  E(RB3LYP) =  -1618.71344482     A.U. after   16 cycles
 SCF Done:  E(RB3LYP) =  -1618.71529008     A.U. after   15 cycles
 SCF Done:  E(RB3LYP) =  -1618.71536742     A.U. after   14 cycles
 SCF Done:  E(RB3LYP) =  -1618.71610410     A.U. after   14 cycles
 SCF Done:  E(RB3LYP) =  -1618.71613871     A.U. after   13 cycles
 SCF Done:  E(RB3LYP) =  -1618.71630946     A.U. after   13 cycles
 SCF Done:  E(RB3LYP) =  -1618.71643945     A.U. after   13 cycles
 SCF Done:  E(RB3LYP) =  -1618.71655397     A.U. after   15 cycles
 SCF Done:  E(RB3LYP) =  -1618.71690314     A.U. after   14 cycles
 SCF Done:  E(RB3LYP) =  -1618.71702668     A.U. after   13 cycles
 SCF Done:  E(RB3LYP) =  -1618.71706873     A.U. after   12 cycles
 SCF Done:  E(RB3LYP) =  -1618.71707408     A.U. after   11 cycles
 SCF Done:  E(RB3LYP) =  -1618.71707450     A.U. after   10 cycles
 SCF Done:  E(RB3LYP) =  -1618.71707467     A.U. after   10 cycles
 SCF Done:  E(RB3LYP) =  -1618.71707474     A.U. after   10 cycles
 Optimization completed.
    -- Stationary point found.

                         Standard orientation:
 ---------------------------------------------------------------------
 Center     Atomic      Atomic             Coordinates (Angstroms)
 Number     Number       Type             X           Y           Z
 ---------------------------------------------------------------------
      1          6           0       -3.955822    0.741863    0.177334
      2          6           0       -2.570429    1.038567    0.378117
      3          6           0       -1.752951    0.031157   -0.089582
      4          6           0       -2.094739    2.299901    1.045051
      5          6           0       -4.178397   -0.466310   -0.414805
      6          1           0       -4.753618    1.408273    0.481209
      7         16           0       -2.698135   -1.286849   -0.764700
      8          1           0       -5.122816   -0.925048   -0.665289
      9          6           0       -0.296988   -0.046334   -0.060323
     10         16           0        0.511718   -1.371337    0.796634
     11          6           0        2.077471   -0.720445    0.400206
     12          6           0        1.949722    0.454063   -0.330297
     13          6           0        0.607115    0.836158   -0.595719
     14          1           0        0.307727    1.701760   -1.170095
     15         16           0        3.518010    1.104619   -0.728703
     16          6           0        4.303738   -0.221102    0.098350
     17          6           0        3.425054   -1.110772    0.645836
     18          1           0        5.382131   -0.255664    0.126286
     19          1           0        3.728786   -1.992004    1.193509
     20          1           0       -2.695509    2.515649    1.933017
     21          1           0       -2.184547    3.162323    0.375724
     22          1           0       -1.050284    2.221303    1.348938
 ---------------------------------------------------------------------

 The electronic state is 1-A.
 Alpha  occ. eigenvalues --  -88.88469 -88.88264 -88.87941 -10.22263 -10.21348
 Alpha  occ. eigenvalues --  -10.21168 -10.21111 -10.21070 -10.20494 -10.19363
 Alpha  occ. eigenvalues --  -10.19353 -10.19315 -10.18075 -10.17466  -7.97043
 Alpha  occ. eigenvalues --   -7.96834  -7.96557  -5.93355  -5.93151  -5.92990
 Alpha  occ. eigenvalues --   -5.92848  -5.92789  -5.92592  -5.92472  -5.92368
 Alpha  occ. eigenvalues --   -5.92150  -0.91658  -0.89170  -0.84919  -0.77781
 Alpha  occ. eigenvalues --   -0.76978  -0.75683  -0.71434  -0.70547  -0.67963
 Alpha  occ. eigenvalues --   -0.61376  -0.57472  -0.56886  -0.54248  -0.52043
 Alpha  occ. eigenvalues --   -0.49964  -0.49704  -0.44599  -0.43729  -0.43589
 Alpha  occ. eigenvalues --   -0.42063  -0.41463  -0.39982  -0.39594  -0.39027
 Alpha  occ. eigenvalues --   -0.37721  -0.37488  -0.36511  -0.34925  -0.34274
 Alpha  occ. eigenvalues --   -0.33809  -0.29113  -0.25583  -0.25204  -0.23744
 Alpha  occ. eigenvalues --   -0.21704
 Alpha virt. eigenvalues --   -0.05198  -0.02580  -0.00569  -0.00326   0.00227
 Alpha virt. eigenvalues --    0.00623   0.00745   0.01559   0.01883   0.02768
 Alpha virt. eigenvalues --    0.02881   0.03218   0.03824   0.03892   0.04435

 Mulliken charges:
               1
     1  C   -0.162971
     2  C    0.154028
     3  C    0.155015
     4  C   -0.750592
     5  C   -0.018983
     6  H    0.127402
     7  S   -0.303575
     8  H    0.160371
     9  C    0.223227
    10  S   -0.598220
    11  C    0.161012
    12  C   -0.409332
    13  C    0.583056
    14  H    0.131517
    15  S   -0.393909
    16  C   -0.213938
    17  C    0.374549
    18  H    0.167651
    19  H    0.135459
    20  H    0.146770
    21  H    0.162944
    22  H    0.168520
 Sum of Mulliken charges =  -0.00000

 Dipole moment (field-independent basis, Debye):
    X=             -0.2487    Y=              0.8613    Z=              0.4282  Tot=              0.9935
 Quadrupole moment (field-independent basis, Debye-Ang):
   XX=            -88.4059   YY=           -100.2092   ZZ=           -106.7007
   XY=             -4.5674   XZ=              1.2602   YZ=             -1.1332

 Normal termination of Gaussian 16 at Sun Oct 17 01:20:53 2021.
