 Gaussian 16, Revision C.01,
 Gaussian 16:  ES64L-G16RevC.01  3-Jul-2019

 -------------------------------------
 # opt=modredundant b3lyp/6-311+g(d,p)
 -------------------------------------

 ------------
 pBTTT_20.pdb
 ------------
 Symbolic Z-matrix:
 Charge =  0 Multiplicity = 1

 SCF Done:  E(RB3LYP) =  -1618.67747099     A.U. after   17 cycles
 SCF Done:  E(RB3LYP) =  -1618.70594880     A.U. after   15 cycles
 SCF Done:  E(RB3LYP) =  -1618.71368925     A.U. after   14 cycles
 SCF Done:  E(RB3LYP) =  -1618.71556154     A.U. after   15 cycles
 SCF Done:  E(RB3LYP) =  -1618.71598843     A.U. after   14 cycles
 SCF Done:  E(RB3LYP) =  -1618.71641853     A.U. after   12 cycles
 SCF Done:  E(RB3LYP) =  -1618.71647259     A.U. after   12 cycles
 SCF Done:  E(RB3LYP) =  -1618.71649791     A.U. after   12 cycles
 SCF Done:  E(RB3LYP) =  -1618.71652317     A.U. after   10 cycles
 SCF Done:  E(RB3LYP) =  -1618.71655747     A.U. after   12 cycles
 SCF Done:  E(RB3LYP) =  -1618.71656487     A.U. after   11 cycles
 SCF Done:  E(RB3LYP) =  -1618.71656811     A.U. after   10 cycles
 SCF Done:  E(RB3LYP) =  -1618.71656881     A.U. after    9 cycles
 SCF Done:  E(RB3LYP) =  -1618.71656891     A.U. after    9 cycles
 Optimization completed.
    -- Stationary point found.

                         Standard orientation:
 ---------------------------------------------------------------------
 Center     Atomic      Atomic             Coordinates (Angstroms)
 Number     Number       Type             X           Y           Z
 ---------------------------------------------------------------------
      1          6           0        4.040468    0.270133    0.109609
      2          6           0        2.729142    0.833769    0.178707
      3          6           0        1.741584   -0.124183    0.020211
      4          6           0        2.510560    2.304469    0.418112
      5          6           0        4.056738   -1.076324   -0.102408
      6          1           0        4.939581    0.862461    0.224535
      7         16           0        2.456035   -1.710977   -0.241414
      8          1           0        4.907789   -1.734578   -0.185376
      9          6           0        0.294101   -0.014953    0.014972
     10         16           0       -0.527715    1.530322   -0.286927
     11          6           0       -2.090031    0.773953   -0.156654
     12          6           0       -1.956807   -0.584123    0.099308
     13          6           0       -0.616802   -1.031990    0.203308
     14          1           0       -0.324834   -2.050404    0.419346
     15         16           0       -3.522998   -1.337198    0.247498
     16          6           0       -4.313813    0.197198   -0.039255
     17          6           0       -3.437339    1.225944   -0.234484
     18          1           0       -5.392273    0.237291   -0.048226
     19          1           0       -3.743774    2.244922   -0.425762
     20          1           0        3.434415    2.768612    0.769036
     21          1           0        1.737405    2.487870    1.167874
     22          1           0        2.209751    2.826116   -0.496481
 ---------------------------------------------------------------------

 The electronic state is 1-A.
 Alpha  occ. eigenvalues --  -88.88416 -88.88402 -88.88049 -10.22630 -10.21771
 Alpha  occ. eigenvalues --  -10.21165 -10.21073 -10.20997 -10.20532 -10.19415
 Alpha  occ. eigenvalues --  -10.19359 -10.19142 -10.18182 -10.17693  -7.96995
 Alpha  occ. eigenvalues --   -7.96975  -7.96679  -5.93318  -5.93289  -5.92979
 Alpha  occ. eigenvalues --   -5.92952  -5.92924  -5.92598  -5.92522  -5.92516
 Alpha  occ. eigenvalues --   -5.92256  -0.91713  -0.89294  -0.84942  -0.77895
 Alpha  occ. eigenvalues --   -0.77267  -0.75781  -0.71433  -0.70478  -0.68241
 Alpha  occ. eigenvalues --   -0.61519  -0.57985  -0.57001  -0.53444  -0.52383
 Alpha  occ. eigenvalues --   -0.50194  -0.49780  -0.44541  -0.43939  -0.43677
 Alpha  occ. eigenvalues --   -0.42028  -0.41651  -0.40237  -0.39515  -0.38867
 Alpha  occ. eigenvalues --   -0.38103  -0.37873  -0.36704  -0.34777  -0.34368
 Alpha  occ. eigenvalues --   -0.33845  -0.29314  -0.26595  -0.25533  -0.23816
 Alpha  occ. eigenvalues --   -0.20514
 Alpha virt. eigenvalues --   -0.06176  -0.01630  -0.00571  -0.00382   0.00176
 Alpha virt. eigenvalues --    0.00468   0.01326   0.01476   0.02067   0.02596
 Alpha virt. eigenvalues --    0.03011   0.03342   0.03800   0.04322   0.04816

 Mulliken charges:
               1
     1  C    0.056814
     2  C    0.265131
     3  C    0.561360
     4  C   -0.971246
     5  C   -0.104537
     6  H    0.121017
     7  S   -0.573800
     8  H    0.159852
     9  C    0.392865
    10  S   -0.585738
    11  C    0.304875
    12  C    0.201439
    13  C   -0.009356
    14  H    0.139379
    15  S   -0.404163
    16  C   -0.137125
    17  C   -0.205248
    18  H    0.166990
    19  H    0.134217
    20  H    0.143996
    21  H    0.166530
    22  H    0.176747
 Sum of Mulliken charges =  -0.00000

 Dipole moment (field-independent basis, Debye):
    X=              0.4819    Y=              0.9236    Z=              0.1837  Tot=              1.0579
 Quadrupole moment (field-independent basis, Debye-Ang):
   XX=            -87.8000   YY=            -97.6013   ZZ=           -109.5655
   XY=             -1.9096   XZ=              1.0302   YZ=             -0.4157

 Normal termination of Gaussian 16 at Sun Oct 17 00:50:09 2021.
