 Gaussian 16, Revision C.01,
 Gaussian 16:  ES64L-G16RevC.01  3-Jul-2019

 -------------------------------------
 # opt=modredundant b3lyp/6-311+g(d,p)
 -------------------------------------

 ------------
 pBTTT_80.pdb
 ------------
 Symbolic Z-matrix:
 Charge =  0 Multiplicity = 1

 SCF Done:  E(RB3LYP) =  -1618.67439955     A.U. after   17 cycles
 SCF Done:  E(RB3LYP) =  -1618.70451201     A.U. after   15 cycles
 SCF Done:  E(RB3LYP) =  -1618.71281533     A.U. after   16 cycles
 SCF Done:  E(RB3LYP) =  -1618.71477537     A.U. after   15 cycles
 SCF Done:  E(RB3LYP) =  -1618.71497169     A.U. after   14 cycles
 SCF Done:  E(RB3LYP) =  -1618.71552722     A.U. after   14 cycles
 SCF Done:  E(RB3LYP) =  -1618.71552482     A.U. after   13 cycles
 SCF Done:  E(RB3LYP) =  -1618.71552658     A.U. after   13 cycles
 SCF Done:  E(RB3LYP) =  -1618.71556220     A.U. after   13 cycles
 SCF Done:  E(RB3LYP) =  -1618.71556531     A.U. after   12 cycles
 SCF Done:  E(RB3LYP) =  -1618.71561936     A.U. after   14 cycles
 SCF Done:  E(RB3LYP) =  -1618.71564086     A.U. after   14 cycles
 SCF Done:  E(RB3LYP) =  -1618.71571319     A.U. after   14 cycles
 SCF Done:  E(RB3LYP) =  -1618.71625420     A.U. after   14 cycles
 SCF Done:  E(RB3LYP) =  -1618.71440439     A.U. after   17 cycles
 SCF Done:  E(RB3LYP) =  -1618.71633272     A.U. after   15 cycles
 SCF Done:  E(RB3LYP) =  -1618.71641235     A.U. after   14 cycles
 SCF Done:  E(RB3LYP) =  -1618.71641352     A.U. after   11 cycles
 SCF Done:  E(RB3LYP) =  -1618.71641377     A.U. after   10 cycles
 SCF Done:  E(RB3LYP) =  -1618.71641381     A.U. after    9 cycles
 Optimization completed.
    -- Stationary point found.

                         Standard orientation:
 ---------------------------------------------------------------------
 Center     Atomic      Atomic             Coordinates (Angstroms)
 Number     Number       Type             X           Y           Z
 ---------------------------------------------------------------------
      1          6           0        4.003085    0.351877    0.445534
      2          6           0        2.646521    0.776751    0.613675
      3          6           0        1.754702   -0.098485    0.035928
      4          6           0        2.262626    2.030898    1.349370
      5          6           0        4.128090   -0.818583   -0.243649
      6          1           0        4.849777    0.903267    0.835444
      7         16           0        2.589475   -1.446407   -0.718076
      8          1           0        5.031981   -1.351980   -0.496415
      9          6           0        0.292694   -0.030718   -0.000648
     10         16           0       -0.519543    1.020305   -1.174647
     11          6           0       -2.083670    0.506508   -0.608152
     12          6           0       -1.952403   -0.427511    0.411782
     13          6           0       -0.607810   -0.736286    0.754237
     14          1           0       -0.303336   -1.436346    1.520135
     15         16           0       -3.518262   -0.938842    0.984346
     16          6           0       -4.308198    0.118064   -0.163100
     17          6           0       -3.433130    0.822565   -0.938302
     18          1           0       -5.386763    0.148148   -0.191106
     19          1           0       -3.740150    1.523542   -1.701926
     20          1           0        2.729189    2.058316    2.338669
     21          1           0        1.182442    2.101183    1.481322
     22          1           0        2.595086    2.922493    0.807855
 ---------------------------------------------------------------------

 The electronic state is 1-A.
 Alpha  occ. eigenvalues --  -88.88469 -88.88230 -88.87885 -10.22163 -10.21189
 Alpha  occ. eigenvalues --  -10.21167 -10.21098 -10.21096 -10.20450 -10.19388
 Alpha  occ. eigenvalues --  -10.19370 -10.19247 -10.18003 -10.17359  -7.97043
 Alpha  occ. eigenvalues --   -7.96799  -7.96495  -5.93355  -5.93114  -5.92991
 Alpha  occ. eigenvalues --   -5.92785  -5.92750  -5.92593  -5.92409  -5.92337
 Alpha  occ. eigenvalues --   -5.92091  -0.91630  -0.89103  -0.84899  -0.77528
 Alpha  occ. eigenvalues --   -0.77158  -0.75531  -0.71417  -0.70524  -0.67874
 Alpha  occ. eigenvalues --   -0.61303  -0.57542  -0.56694  -0.54124  -0.52088
 Alpha  occ. eigenvalues --   -0.49923  -0.49677  -0.44546  -0.43702  -0.43552
 Alpha  occ. eigenvalues --   -0.42121  -0.41429  -0.39919  -0.39469  -0.38999
 Alpha  occ. eigenvalues --   -0.37667  -0.37310  -0.36570  -0.34897  -0.34256
 Alpha  occ. eigenvalues --   -0.33645  -0.29075  -0.25410  -0.24391  -0.23834
 Alpha  occ. eigenvalues --   -0.22421
 Alpha virt. eigenvalues --   -0.04709  -0.02991  -0.00569  -0.00346  -0.00006
 Alpha virt. eigenvalues --    0.00495   0.00791   0.01617   0.01835   0.02566
 Alpha virt. eigenvalues --    0.03100   0.03178   0.03626   0.04088   0.04407

 Mulliken charges:
               1
     1  C   -0.077291
     2  C   -0.221951
     3  C    0.075811
     4  C   -0.592071
     5  C   -0.110966
     6  H    0.127107
     7  S   -0.214862
     8  H    0.160174
     9  C    0.490166
    10  S   -0.559097
    11  C    0.181148
    12  C   -0.575204
    13  C    0.577852
    14  H    0.138095
    15  S   -0.380388
    16  C   -0.225081
    17  C    0.423418
    18  H    0.167550
    19  H    0.135547
    20  H    0.151964
    21  H    0.165657
    22  H    0.162422
 Sum of Mulliken charges =  -0.00000

 Dipole moment (field-independent basis, Debye):
    X=              0.2613    Y=              0.7635    Z=              0.5356  Tot=              0.9685
 Quadrupole moment (field-independent basis, Debye-Ang):
   XX=            -88.2050   YY=           -102.5825   ZZ=           -104.3492
   XY=             -1.1509   XZ=              3.7333   YZ=             -1.1527

 Normal termination of Gaussian 16 at Sun Oct 17 01:18:43 2021.
