 Gaussian 16, Revision C.01,
 Gaussian 16:  ES64L-G16RevC.01  3-Jul-2019

 -------------------------------------
 # opt=modredundant b3lyp/6-311+g(d,p)
 -------------------------------------

 ------------
 pBTTT_35.pdb
 ------------
 Symbolic Z-matrix:
 Charge =  0 Multiplicity = 1

 SCF Done:  E(RB3LYP) =  -1618.67680635     A.U. after   17 cycles
 SCF Done:  E(RB3LYP) =  -1618.70579096     A.U. after   15 cycles
 SCF Done:  E(RB3LYP) =  -1618.71382564     A.U. after   14 cycles
 SCF Done:  E(RB3LYP) =  -1618.71573642     A.U. after   15 cycles
 SCF Done:  E(RB3LYP) =  -1618.71619638     A.U. after   15 cycles
 SCF Done:  E(RB3LYP) =  -1618.71671949     A.U. after   12 cycles
 SCF Done:  E(RB3LYP) =  -1618.71686476     A.U. after   12 cycles
 SCF Done:  E(RB3LYP) =  -1618.71691261     A.U. after   12 cycles
 SCF Done:  E(RB3LYP) =  -1618.71696506     A.U. after   11 cycles
 SCF Done:  E(RB3LYP) =  -1618.71707013     A.U. after   12 cycles
 SCF Done:  E(RB3LYP) =  -1618.71710456     A.U. after   12 cycles
 SCF Done:  E(RB3LYP) =  -1618.71706483     A.U. after   11 cycles
 SCF Done:  E(RB3LYP) =  -1618.71705846     A.U. after   11 cycles
 SCF Done:  E(RB3LYP) =  -1618.71710433     A.U. after   13 cycles
 Optimization completed.
    -- Stationary point found.

                         Standard orientation:
 ---------------------------------------------------------------------
 Center     Atomic      Atomic             Coordinates (Angstroms)
 Number     Number       Type             X           Y           Z
 ---------------------------------------------------------------------
      1          6           0        4.035671    0.274103    0.185013
      2          6           0        2.720634    0.819958    0.299339
      3          6           0        1.743066   -0.120110    0.024512
      4          6           0        2.479055    2.250908    0.701522
      5          6           0        4.061011   -1.043096   -0.170102
      6          1           0        4.931578    0.851139    0.377280
      7         16           0        2.466970   -1.665738   -0.396516
      8          1           0        4.919392   -1.682217   -0.309647
      9          6           0        0.294380   -0.013973    0.025414
     10         16           0       -0.524090    1.476555   -0.485450
     11          6           0       -2.086928    0.743885   -0.262967
     12          6           0       -1.955276   -0.569984    0.167806
     13          6           0       -0.614757   -0.999808    0.336933
     14          1           0       -0.319621   -1.981020    0.682606
     15         16           0       -3.521158   -1.295717    0.415887
     16          6           0       -4.311538    0.189012   -0.065133
     17          6           0       -3.434760    1.183062   -0.393911
     18          1           0       -5.389917    0.230122   -0.081131
     19          1           0       -3.742282    2.166872   -0.720127
     20          1           0        3.329138    2.631197    1.272505
     21          1           0        1.584036    2.357482    1.316863
     22          1           0        2.356796    2.901080   -0.171629
 ---------------------------------------------------------------------

 The electronic state is 1-A.
 Alpha  occ. eigenvalues --  -88.88429 -88.88377 -88.88040 -10.22512 -10.21605
 Alpha  occ. eigenvalues --  -10.21167 -10.21107 -10.21029 -10.20477 -10.19367
 Alpha  occ. eigenvalues --  -10.19336 -10.19202 -10.18131 -10.17571  -7.97003
 Alpha  occ. eigenvalues --   -7.96955  -7.96662  -5.93316  -5.93277  -5.92958
 Alpha  occ. eigenvalues --   -5.92951  -5.92912  -5.92580  -5.92550  -5.92479
 Alpha  occ. eigenvalues --   -5.92247  -0.91700  -0.89257  -0.84936  -0.77771
 Alpha  occ. eigenvalues --   -0.77267  -0.75731  -0.71435  -0.70475  -0.68131
 Alpha  occ. eigenvalues --   -0.61476  -0.57860  -0.56950  -0.53577  -0.52316
 Alpha  occ. eigenvalues --   -0.50098  -0.49740  -0.44538  -0.43899  -0.43588
 Alpha  occ. eigenvalues --   -0.42037  -0.41583  -0.40140  -0.39493  -0.38967
 Alpha  occ. eigenvalues --   -0.37955  -0.37673  -0.36722  -0.34842  -0.34253
 Alpha  occ. eigenvalues --   -0.33922  -0.29235  -0.26294  -0.25449  -0.23794
 Alpha  occ. eigenvalues --   -0.20825
 Alpha virt. eigenvalues --   -0.05943  -0.01786  -0.00582  -0.00424   0.00066
 Alpha virt. eigenvalues --    0.00487   0.01107   0.01462   0.02008   0.02604
 Alpha virt. eigenvalues --    0.03040   0.03426   0.03882   0.04131   0.04726

 Mulliken charges:
               1
     1  C   -0.047635
     2  C   -0.071034
     3  C    0.461810
     4  C   -0.905047
     5  C   -0.068174
     6  H    0.124295
     7  S   -0.436831
     8  H    0.159873
     9  C    0.413460
    10  S   -0.587799
    11  C    0.260554
    12  C   -0.671561
    13  C    0.888322
    14  H    0.142183
    15  S   -0.400024
    16  C   -0.220188
    17  C    0.174165
    18  H    0.167026
    19  H    0.134882
    20  H    0.143409
    21  H    0.163702
    22  H    0.174612
 Sum of Mulliken charges =  -0.00000

 Dipole moment (field-independent basis, Debye):
    X=              0.4119    Y=              0.8779    Z=              0.2793  Tot=              1.0091
 Quadrupole moment (field-independent basis, Debye-Ang):
   XX=            -87.9324   YY=            -98.3189   ZZ=           -108.7683
   XY=             -1.9356   XZ=              1.7325   YZ=             -0.6995

 Normal termination of Gaussian 16 at Sun Oct 17 00:54:23 2021.
