 Gaussian 16, Revision C.01,
 Gaussian 16:  ES64L-G16RevC.01  3-Jul-2019

 -------------------------------------
 # opt=modredundant b3lyp/6-311+g(d,p)
 -------------------------------------

 --------------
 pBTTT_-165.pdb
 --------------
 Symbolic Z-matrix:
 Charge =  0 Multiplicity = 1

 SCF Done:  E(RB3LYP) =  -1618.67695924     A.U. after   16 cycles
 SCF Done:  E(RB3LYP) =  -1618.70524748     A.U. after   14 cycles
 SCF Done:  E(RB3LYP) =  -1618.71285140     A.U. after   14 cycles
 SCF Done:  E(RB3LYP) =  -1618.71494536     A.U. after   13 cycles
 SCF Done:  E(RB3LYP) =  -1618.71548457     A.U. after   12 cycles
 SCF Done:  E(RB3LYP) =  -1618.71586027     A.U. after   13 cycles
 SCF Done:  E(RB3LYP) =  -1618.71596134     A.U. after   12 cycles
 SCF Done:  E(RB3LYP) =  -1618.71597184     A.U. after   12 cycles
 SCF Done:  E(RB3LYP) =  -1618.71601639     A.U. after   11 cycles
 SCF Done:  E(RB3LYP) =  -1618.71603365     A.U. after   11 cycles
 SCF Done:  E(RB3LYP) =  -1618.71604017     A.U. after   11 cycles
 SCF Done:  E(RB3LYP) =  -1618.71604126     A.U. after    9 cycles
 SCF Done:  E(RB3LYP) =  -1618.71604149     A.U. after    9 cycles
 Optimization completed.
    -- Stationary point found.

                         Standard orientation:
 ---------------------------------------------------------------------
 Center     Atomic      Atomic             Coordinates (Angstroms)
 Number     Number       Type             X           Y           Z
 ---------------------------------------------------------------------
      1          6           0        3.961228    0.788753    0.002330
      2          6           0        2.584327    1.146571    0.120580
      3          6           0        1.748147    0.045791    0.016211
      4          6           0        2.145897    2.564294    0.365730
      5          6           0        4.174031   -0.544266   -0.192579
      6          1           0        4.763842    1.512312    0.072162
      7         16           0        2.685538   -1.417708   -0.251816
      8          1           0        5.111089   -1.067986   -0.301634
      9          6           0        0.298594   -0.016132    0.038055
     10         16           0       -0.516581   -1.575605    0.283895
     11          6           0       -2.082786   -0.831445    0.126631
     12          6           0       -1.954467    0.533256   -0.089931
     13          6           0       -0.615675    0.998908   -0.148288
     14          1           0       -0.338582    2.020723   -0.352687
     15         16           0       -3.523271    1.280098   -0.244932
     16          6           0       -4.308148   -0.265870   -0.012311
     17          6           0       -3.427717   -1.293433    0.172968
     18          1           0       -5.386178   -0.314248   -0.028395
     19          1           0       -3.730064   -2.319215    0.331363
     20          1           0        2.988104    3.166827    0.711615
     21          1           0        1.358924    2.618403    1.122474
     22          1           0        1.761292    3.036047   -0.545618
 ---------------------------------------------------------------------

 The electronic state is 1-A.
 Alpha  occ. eigenvalues --  -88.88460 -88.88273 -88.88108 -10.22678 -10.21785
 Alpha  occ. eigenvalues --  -10.21181 -10.21118 -10.21043 -10.20533 -10.19413
 Alpha  occ. eigenvalues --  -10.19375 -10.19275 -10.18219 -10.17952  -7.97035
 Alpha  occ. eigenvalues --   -7.96862  -7.96739  -5.93347  -5.93187  -5.93036
 Alpha  occ. eigenvalues --   -5.92983  -5.92825  -5.92657  -5.92583  -5.92377
 Alpha  occ. eigenvalues --   -5.92320  -0.91731  -0.89344  -0.84953  -0.78163
 Alpha  occ. eigenvalues --   -0.76936  -0.75975  -0.71442  -0.70578  -0.68314
 Alpha  occ. eigenvalues --   -0.61544  -0.57554  -0.57370  -0.54090  -0.52221
 Alpha  occ. eigenvalues --   -0.50109  -0.49787  -0.44597  -0.43910  -0.43806
 Alpha  occ. eigenvalues --   -0.41968  -0.41718  -0.40370  -0.39767  -0.38859
 Alpha  occ. eigenvalues --   -0.38125  -0.37950  -0.36377  -0.35155  -0.34390
 Alpha  occ. eigenvalues --   -0.33757  -0.29319  -0.26688  -0.25574  -0.23763
 Alpha  occ. eigenvalues --   -0.20552
 Alpha virt. eigenvalues --   -0.06256  -0.01826  -0.01041  -0.00495   0.00320
 Alpha virt. eigenvalues --    0.00745   0.01231   0.01474   0.02091   0.02737
 Alpha virt. eigenvalues --    0.03185   0.03487   0.03822   0.04326   0.04712

 Mulliken charges:
               1
     1  C    0.114351
     2  C    0.468781
     3  C    0.534864
     4  C   -1.109911
     5  C   -0.092688
     6  H    0.121000
     7  S   -0.544273
     8  H    0.159018
     9  C    0.208708
    10  S   -0.548579
    11  C    0.422203
    12  C    0.195534
    13  C   -0.033107
    14  H    0.135775
    15  S   -0.408034
    16  C   -0.111211
    17  C   -0.288822
    18  H    0.167091
    19  H    0.135203
    20  H    0.146497
    21  H    0.160474
    22  H    0.167126
 Sum of Mulliken charges =  -0.00000

 Dipole moment (field-independent basis, Debye):
    X=              0.3415    Y=              0.8912    Z=              0.0526  Tot=              0.9559
 Quadrupole moment (field-independent basis, Debye-Ang):
   XX=            -88.0531   YY=            -97.3475   ZZ=           -109.6554
   XY=              5.2641   XZ=             -0.4209   YZ=             -0.2657

 Normal termination of Gaussian 16 at Sat Oct 16 22:50:42 2021.
