 Gaussian 16, Revision C.01,
 Gaussian 16:  ES64L-G16RevC.01  3-Jul-2019

 -------------------------------------
 # opt=modredundant b3lyp/6-311+g(d,p)
 -------------------------------------

 ------------
 pBTTT_-5.pdb
 ------------
 Symbolic Z-matrix:
 Charge =  0 Multiplicity = 1

 SCF Done:  E(RB3LYP) =  -1618.67830794     A.U. after   16 cycles
 SCF Done:  E(RB3LYP) =  -1618.70653172     A.U. after   14 cycles
 SCF Done:  E(RB3LYP) =  -1618.71375609     A.U. after   15 cycles
 SCF Done:  E(RB3LYP) =  -1618.71548055     A.U. after   13 cycles
 SCF Done:  E(RB3LYP) =  -1618.71582322     A.U. after   12 cycles
 SCF Done:  E(RB3LYP) =  -1618.71607982     A.U. after   12 cycles
 SCF Done:  E(RB3LYP) =  -1618.71614364     A.U. after   11 cycles
 SCF Done:  E(RB3LYP) =  -1618.71613860     A.U. after   10 cycles
 SCF Done:  E(RB3LYP) =  -1618.71614571     A.U. after   10 cycles
 SCF Done:  E(RB3LYP) =  -1618.71614726     A.U. after   10 cycles
 SCF Done:  E(RB3LYP) =  -1618.71614741     A.U. after    9 cycles
 SCF Done:  E(RB3LYP) =  -1618.71614749     A.U. after    7 cycles
 SCF Done:  E(RB3LYP) =  -1618.71614758     A.U. after    8 cycles
 SCF Done:  E(RB3LYP) =  -1618.71614763     A.U. after    7 cycles
 Optimization completed.
    -- Stationary point found.

                         Standard orientation:
 ---------------------------------------------------------------------
 Center     Atomic      Atomic             Coordinates (Angstroms)
 Number     Number       Type             X           Y           Z
 ---------------------------------------------------------------------
      1          6           0       -4.043207    0.271570    0.028862
      2          6           0       -2.732896    0.841401    0.046200
      3          6           0       -1.741209   -0.126181    0.005956
      4          6           0       -2.521141    2.330840    0.107261
      5          6           0       -4.057134   -1.089734   -0.025913
      6          1           0       -4.943242    0.872671    0.058906
      7         16           0       -2.454718   -1.734618   -0.063175
      8          1           0       -4.906352   -1.755116   -0.046982
      9          6           0       -0.294508   -0.015293    0.003539
     10         16           0        0.531200    1.557537   -0.073481
     11          6           0        2.092260    0.789059   -0.040694
     12          6           0        1.957787   -0.590993    0.025016
     13          6           0        0.618066   -1.048046    0.052512
     14          1           0        0.329333   -2.088446    0.109738
     15         16           0        3.523293   -1.359122    0.063768
     16          6           0        4.315528    0.199695   -0.009714
     17          6           0        3.439779    1.246235   -0.060204
     18          1           0        5.394002    0.239921   -0.011818
     19          1           0        3.747123    2.281578   -0.109486
     20          1           0       -3.481274    2.842052    0.197834
     21          1           0       -2.028695    2.711849   -0.792804
     22          1           0       -1.907239    2.623403    0.963885
 ---------------------------------------------------------------------

 The electronic state is 1-A.
 Alpha  occ. eigenvalues --  -88.88438 -88.88383 -88.88068 -10.22706 -10.21880
 Alpha  occ. eigenvalues --  -10.21160 -10.21034 -10.20971 -10.20579 -10.19475
 Alpha  occ. eigenvalues --  -10.19346 -10.19110 -10.18215 -10.17774  -7.97014
 Alpha  occ. eigenvalues --   -7.96956  -7.96702  -5.93338  -5.93270  -5.93005
 Alpha  occ. eigenvalues --   -5.92972  -5.92905  -5.92623  -5.92533  -5.92502
 Alpha  occ. eigenvalues --   -5.92275  -0.91711  -0.89327  -0.84934  -0.77984
 Alpha  occ. eigenvalues --   -0.77275  -0.75808  -0.71421  -0.70488  -0.68311
 Alpha  occ. eigenvalues --   -0.61552  -0.58060  -0.57022  -0.53360  -0.52437
 Alpha  occ. eigenvalues --   -0.50260  -0.49798  -0.44553  -0.43962  -0.43754
 Alpha  occ. eigenvalues --   -0.42022  -0.41684  -0.40300  -0.39532  -0.38761
 Alpha  occ. eigenvalues --   -0.38190  -0.38061  -0.36684  -0.34712  -0.34492
 Alpha  occ. eigenvalues --   -0.33736  -0.29372  -0.26747  -0.25595  -0.23829
 Alpha  occ. eigenvalues --   -0.20343
 Alpha virt. eigenvalues --   -0.06296  -0.01560  -0.00581  -0.00352   0.00234
 Alpha virt. eigenvalues --    0.00447   0.01476   0.01566   0.02077   0.02522
 Alpha virt. eigenvalues --    0.03065   0.03217   0.03726   0.04543   0.04813

 Mulliken charges:
               1
     1  C    0.057783
     2  C    0.255258
     3  C    0.657054
     4  C   -0.968618
     5  C   -0.178754
     6  H    0.120018
     7  S   -0.629349
     8  H    0.160101
     9  C    0.417690
    10  S   -0.685066
    11  C    0.203050
    12  C    0.184684
    13  C    0.135186
    14  H    0.137534
    15  S   -0.398422
    16  C   -0.147025
    17  C   -0.111210
    18  H    0.166918
    19  H    0.133128
    20  H    0.144820
    21  H    0.174732
    22  H    0.170488
 Sum of Mulliken charges =  -0.00000

 Dipole moment (field-independent basis, Debye):
    X=             -0.5371    Y=              0.9405    Z=              0.0502  Tot=              1.0842
 Quadrupole moment (field-independent basis, Debye-Ang):
   XX=            -87.7032   YY=            -97.2319   ZZ=           -109.9960
   XY=              1.8576   XZ=             -0.2657   YZ=             -0.1071

 Normal termination of Gaussian 16 at Sun Oct 17 00:35:27 2021.
