 Gaussian 16, Revision C.01,
 Gaussian 16:  ES64L-G16RevC.01  3-Jul-2019

 -------------------------------------
 # opt=modredundant b3lyp/6-311+g(d,p)
 -------------------------------------

 --------------
 pBTTT_-125.pdb
 --------------
 Symbolic Z-matrix:
 Charge =  0 Multiplicity = 1

 SCF Done:  E(RB3LYP) =  -1618.67493582     A.U. after   17 cycles
 SCF Done:  E(RB3LYP) =  -1618.70476582     A.U. after   15 cycles
 SCF Done:  E(RB3LYP) =  -1618.71325481     A.U. after   14 cycles
 SCF Done:  E(RB3LYP) =  -1618.71508918     A.U. after   15 cycles
 SCF Done:  E(RB3LYP) =  -1618.71550345     A.U. after   15 cycles
 SCF Done:  E(RB3LYP) =  -1618.71610012     A.U. after   13 cycles
 SCF Done:  E(RB3LYP) =  -1618.71610221     A.U. after   13 cycles
 SCF Done:  E(RB3LYP) =  -1618.71634229     A.U. after   12 cycles
 SCF Done:  E(RB3LYP) =  -1618.71668051     A.U. after   14 cycles
 SCF Done:  E(RB3LYP) =  -1618.71659414     A.U. after   15 cycles
 SCF Done:  E(RB3LYP) =  -1618.71710567     A.U. after   14 cycles
 SCF Done:  E(RB3LYP) =  -1618.71696295     A.U. after   13 cycles
 SCF Done:  E(RB3LYP) =  -1618.71718496     A.U. after   13 cycles
 SCF Done:  E(RB3LYP) =  -1618.71719075     A.U. after   11 cycles
 SCF Done:  E(RB3LYP) =  -1618.71719319     A.U. after   11 cycles
 SCF Done:  E(RB3LYP) =  -1618.71719339     A.U. after   10 cycles
 SCF Done:  E(RB3LYP) =  -1618.71719345     A.U. after    9 cycles
 Optimization completed.
    -- Stationary point found.

                         Standard orientation:
 ---------------------------------------------------------------------
 Center     Atomic      Atomic             Coordinates (Angstroms)
 Number     Number       Type             X           Y           Z
 ---------------------------------------------------------------------
      1          6           0        3.954793    0.752867    0.162639
      2          6           0        2.569650    1.056551    0.352176
      3          6           0        1.752080    0.032949   -0.081028
      4          6           0        2.095418    2.339860    0.977149
      5          6           0        4.178233   -0.474541   -0.388291
      6          1           0        4.752261    1.428850    0.445472
      7         16           0        2.698214   -1.305995   -0.712510
      8          1           0        5.122758   -0.942034   -0.621412
      9          6           0        0.297529   -0.043376   -0.053516
     10         16           0       -0.512101   -1.409056    0.736419
     11          6           0       -2.077621   -0.740599    0.368984
     12          6           0       -1.949245    0.468576   -0.302345
     13          6           0       -0.606801    0.863668   -0.547377
     14          1           0       -0.308400    1.754457   -1.082171
     15         16           0       -3.517326    1.136406   -0.672093
     16          6           0       -4.303651   -0.229227    0.086822
     17          6           0       -3.425158   -1.143889    0.591954
     18          1           0       -5.382057   -0.266049    0.110600
     19          1           0       -3.729169   -2.051235    1.095015
     20          1           0        2.729653    2.611114    1.825486
     21          1           0        1.067089    2.255806    1.331057
     22          1           0        2.135906    3.170374    0.263906
 ---------------------------------------------------------------------

 The electronic state is 1-A.
 Alpha  occ. eigenvalues --  -88.88467 -88.88271 -88.87964 -10.22300 -10.21393
 Alpha  occ. eigenvalues --  -10.21172 -10.21112 -10.21064 -10.20500 -10.19363
 Alpha  occ. eigenvalues --  -10.19344 -10.19319 -10.18094 -10.17506  -7.97041
 Alpha  occ. eigenvalues --   -7.96844  -7.96581  -5.93353  -5.93161  -5.92989
 Alpha  occ. eigenvalues --   -5.92873  -5.92799  -5.92590  -5.92496  -5.92375
 Alpha  occ. eigenvalues --   -5.92172  -0.91669  -0.89191  -0.84926  -0.77826
 Alpha  occ. eigenvalues --   -0.76966  -0.75721  -0.71439  -0.70550  -0.67995
 Alpha  occ. eigenvalues --   -0.61398  -0.57476  -0.56947  -0.54233  -0.52051
 Alpha  occ. eigenvalues --   -0.49979  -0.49714  -0.44601  -0.43755  -0.43597
 Alpha  occ. eigenvalues --   -0.42050  -0.41479  -0.40009  -0.39628  -0.39024
 Alpha  occ. eigenvalues --   -0.37746  -0.37538  -0.36506  -0.34941  -0.34270
 Alpha  occ. eigenvalues --   -0.33852  -0.29130  -0.25709  -0.25292  -0.23758
 Alpha  occ. eigenvalues --   -0.21525
 Alpha virt. eigenvalues --   -0.05340  -0.02456  -0.00584  -0.00349   0.00241
 Alpha virt. eigenvalues --    0.00654   0.00772   0.01542   0.01923   0.02769
 Alpha virt. eigenvalues --    0.02897   0.03307   0.03871   0.03931   0.04451

 Mulliken charges:
               1
     1  C    0.044253
     2  C   -0.180815
     3  C    0.597897
     4  C   -0.955730
     5  C   -0.107835
     6  H    0.125708
     7  S   -0.333271
     8  H    0.160263
     9  C    0.481839
    10  S   -0.562984
    11  C    0.299790
    12  C   -0.299379
    13  C    0.374986
    14  H    0.131802
    15  S   -0.398254
    16  C   -0.189017
    17  C    0.029823
    18  H    0.167598
    19  H    0.135770
    20  H    0.145423
    21  H    0.167340
    22  H    0.164793
 Sum of Mulliken charges =  -0.00000

 Dipole moment (field-independent basis, Debye):
    X=              0.2572    Y=              0.8637    Z=              0.3950  Tot=              0.9840
 Quadrupole moment (field-independent basis, Debye-Ang):
   XX=            -88.3859   YY=            -99.7654   ZZ=           -107.1579
   XY=              4.6782   XZ=             -1.1509   YZ=             -1.0752

 Normal termination of Gaussian 16 at Sat Oct 16 23:36:33 2021.
