 Gaussian 16, Revision C.01,
 Gaussian 16:  ES64L-G16RevC.01  3-Jul-2019

 -------------------------------------
 # opt=modredundant b3lyp/6-311+g(d,p)
 -------------------------------------

 -------------
 pBTTT_175.pdb
 -------------
 Symbolic Z-matrix:
 Charge =  0 Multiplicity = 1

 SCF Done:  E(RB3LYP) =  -1618.67726433     A.U. after   16 cycles
 SCF Done:  E(RB3LYP) =  -1618.70543435     A.U. after   15 cycles
 SCF Done:  E(RB3LYP) =  -1618.71276888     A.U. after   14 cycles
 SCF Done:  E(RB3LYP) =  -1618.71468085     A.U. after   13 cycles
 SCF Done:  E(RB3LYP) =  -1618.71512844     A.U. after   12 cycles
 SCF Done:  E(RB3LYP) =  -1618.71526050     A.U. after   12 cycles
 SCF Done:  E(RB3LYP) =  -1618.71538006     A.U. after   12 cycles
 SCF Done:  E(RB3LYP) =  -1618.71537684     A.U. after   11 cycles
 SCF Done:  E(RB3LYP) =  -1618.71538536     A.U. after   11 cycles
 SCF Done:  E(RB3LYP) =  -1618.71538783     A.U. after   10 cycles
 SCF Done:  E(RB3LYP) =  -1618.71538857     A.U. after   10 cycles
 SCF Done:  E(RB3LYP) =  -1618.71538898     A.U. after    9 cycles
 SCF Done:  E(RB3LYP) =  -1618.71538911     A.U. after    8 cycles
 SCF Done:  E(RB3LYP) =  -1618.71538915     A.U. after    8 cycles
 Optimization completed.
    -- Stationary point found.

                         Standard orientation:
 ---------------------------------------------------------------------
 Center     Atomic      Atomic             Coordinates (Angstroms)
 Number     Number       Type             X           Y           Z
 ---------------------------------------------------------------------
      1          6           0       -3.963363    0.791712   -0.005992
      2          6           0       -2.585073    1.158338    0.043609
      3          6           0       -1.747660    0.052201    0.012138
      4          6           0       -2.149144    2.594639    0.135797
      5          6           0       -4.179565   -0.552875   -0.077580
      6          1           0       -4.764519    1.519845    0.015605
      7         16           0       -2.691598   -1.428157   -0.092406
      8          1           0       -5.117602   -1.084169   -0.121071
      9          6           0       -0.297875   -0.013491    0.021123
     10         16           0        0.513686   -1.593007    0.108129
     11          6           0        2.083074   -0.842127    0.046337
     12          6           0        1.959461    0.537449   -0.030905
     13          6           0        0.622949    1.011952   -0.048652
     14          1           0        0.355915    2.052870   -0.125247
     15         16           0        3.531359    1.291643   -0.091437
     16          6           0        4.310684   -0.272413   -0.010323
     17          6           0        3.426147   -1.310909    0.058989
     18          1           0        5.388723   -0.322176   -0.019417
     19          1           0        3.724637   -2.348437    0.115149
     20          1           0       -3.015975    3.244905    0.265837
     21          1           0       -1.626786    2.921247   -0.769916
     22          1           0       -1.477372    2.761395    0.983240
 ---------------------------------------------------------------------

 The electronic state is 1-A.
 Alpha  occ. eigenvalues --  -88.88454 -88.88262 -88.88132 -10.22754 -10.21869
 Alpha  occ. eigenvalues --  -10.21168 -10.21110 -10.21037 -10.20548 -10.19456
 Alpha  occ. eigenvalues --  -10.19374 -10.19250 -10.18238 -10.18049  -7.97028
 Alpha  occ. eigenvalues --   -7.96854  -7.96767  -5.93341  -5.93181  -5.93065
 Alpha  occ. eigenvalues --   -5.92977  -5.92818  -5.92685  -5.92576  -5.92365
 Alpha  occ. eigenvalues --   -5.92346  -0.91731  -0.89371  -0.84947  -0.78222
 Alpha  occ. eigenvalues --   -0.76936  -0.76009  -0.71430  -0.70586  -0.68383
 Alpha  occ. eigenvalues --   -0.61564  -0.57577  -0.57428  -0.54069  -0.52274
 Alpha  occ. eigenvalues --   -0.50139  -0.49793  -0.44582  -0.43923  -0.43885
 Alpha  occ. eigenvalues --   -0.41956  -0.41782  -0.40447  -0.39793  -0.38768
 Alpha  occ. eigenvalues --   -0.38270  -0.37988  -0.36344  -0.35193  -0.34451
 Alpha  occ. eigenvalues --   -0.33652  -0.29349  -0.26806  -0.25637  -0.23731
 Alpha  occ. eigenvalues --   -0.20441
 Alpha virt. eigenvalues --   -0.06378  -0.01787  -0.01131  -0.00507   0.00319
 Alpha virt. eigenvalues --    0.00746   0.01358   0.01445   0.02090   0.02736
 Alpha virt. eigenvalues --    0.03307   0.03478   0.03843   0.04349   0.04771

 Mulliken charges:
               1
     1  C    0.107389
     2  C    0.366269
     3  C    0.779696
     4  C   -1.118418
     5  C   -0.167843
     6  H    0.119594
     7  S   -0.583626
     8  H    0.158667
     9  C    0.123367
    10  S   -0.603004
    11  C    0.354495
    12  C    0.198312
    13  C    0.086713
    14  H    0.133922
    15  S   -0.407496
    16  C   -0.114911
    17  C   -0.208981
    18  H    0.167013
    19  H    0.134535
    20  H    0.147149
    21  H    0.165690
    22  H    0.161467
 Sum of Mulliken charges =  -0.00000

 Dipole moment (field-independent basis, Debye):
    X=             -0.3675    Y=              0.9011    Z=              0.0072  Tot=              0.9732
 Quadrupole moment (field-independent basis, Debye-Ang):
   XX=            -87.9974   YY=            -97.0178   ZZ=           -109.9742
   XY=             -5.2914   XZ=              0.1600   YZ=             -0.0785

 Normal termination of Gaussian 16 at Sun Oct 17 01:38:34 2021.
