 Gaussian 16, Revision C.01,
 Gaussian 16:  ES64L-G16RevC.01  3-Jul-2019

 -------------------------------------
 # opt=modredundant b3lyp/6-311+g(d,p)
 -------------------------------------

 ------------
 pBTTT_70.pdb
 ------------
 Symbolic Z-matrix:
 Charge =  0 Multiplicity = 1

 SCF Done:  E(RB3LYP) =  -1618.67497572     A.U. after   17 cycles
 SCF Done:  E(RB3LYP) =  -1618.70491582     A.U. after   15 cycles
 SCF Done:  E(RB3LYP) =  -1618.71314673     A.U. after   15 cycles
 SCF Done:  E(RB3LYP) =  -1618.71509170     A.U. after   14 cycles
 SCF Done:  E(RB3LYP) =  -1618.71528031     A.U. after   13 cycles
 SCF Done:  E(RB3LYP) =  -1618.71585081     A.U. after   13 cycles
 SCF Done:  E(RB3LYP) =  -1618.71582297     A.U. after   13 cycles
 SCF Done:  E(RB3LYP) =  -1618.71587394     A.U. after   13 cycles
 SCF Done:  E(RB3LYP) =  -1618.71592016     A.U. after   12 cycles
 SCF Done:  E(RB3LYP) =  -1618.71597113     A.U. after   13 cycles
 SCF Done:  E(RB3LYP) =  -1618.71630106     A.U. after   13 cycles
 SCF Done:  E(RB3LYP) =  -1618.71619416     A.U. after   14 cycles
 SCF Done:  E(RB3LYP) =  -1618.71231683     A.U. after   17 cycles
 SCF Done:  E(RB3LYP) =  -1618.71639933     A.U. after   13 cycles
 SCF Done:  E(RB3LYP) =  -1618.71661172     A.U. after   14 cycles
 SCF Done:  E(RB3LYP) =  -1618.71668491     A.U. after   12 cycles
 SCF Done:  E(RB3LYP) =  -1618.71671138     A.U. after   12 cycles
 SCF Done:  E(RB3LYP) =  -1618.71671603     A.U. after   11 cycles
 SCF Done:  E(RB3LYP) =  -1618.71671631     A.U. after    9 cycles
 SCF Done:  E(RB3LYP) =  -1618.71671634     A.U. after    9 cycles
 Optimization completed.
    -- Stationary point found.

                         Standard orientation:
 ---------------------------------------------------------------------
 Center     Atomic      Atomic             Coordinates (Angstroms)
 Number     Number       Type             X           Y           Z
 ---------------------------------------------------------------------
      1          6           0        4.015335    0.310837    0.390592
      2          6           0        2.671316    0.768694    0.569170
      3          6           0        1.752107   -0.101976    0.026324
      4          6           0        2.329841    2.045581    1.287478
      5          6           0        4.106016   -0.880545   -0.267709
      6          1           0        4.878935    0.853173    0.755321
      7         16           0        2.547465   -1.486164   -0.704169
      8          1           0        4.994563   -1.440301   -0.517657
      9          6           0        0.292654   -0.018789    0.011717
     10         16           0       -0.520553    1.204879   -0.980392
     11          6           0       -2.084580    0.602878   -0.507596
     12          6           0       -1.952478   -0.487373    0.343133
     13          6           0       -0.608252   -0.844172    0.634803
     14          1           0       -0.304415   -1.657939    1.278889
     15         16           0       -3.518049   -1.088224    0.821721
     16          6           0       -4.308760    0.144056   -0.134422
     17          6           0       -3.433952    0.968858   -0.780713
     18          1           0       -5.387333    0.176733   -0.158408
     19          1           0       -3.741384    1.786841   -1.417230
     20          1           0        2.884298    2.118947    2.227477
     21          1           0        1.265141    2.105095    1.515393
     22          1           0        2.592895    2.921312    0.685001
 ---------------------------------------------------------------------

 The electronic state is 1-A.
 Alpha  occ. eigenvalues --  -88.88461 -88.88254 -88.87921 -10.22213 -10.21248
 Alpha  occ. eigenvalues --  -10.21167 -10.21103 -10.21084 -10.20446 -10.19369
 Alpha  occ. eigenvalues --  -10.19357 -10.19242 -10.18024 -10.17377  -7.97035
 Alpha  occ. eigenvalues --   -7.96825  -7.96531  -5.93347  -5.93142  -5.92982
 Alpha  occ. eigenvalues --   -5.92821  -5.92778  -5.92585  -5.92445  -5.92360
 Alpha  occ. eigenvalues --   -5.92126  -0.91641  -0.89128  -0.84907  -0.77526
 Alpha  occ. eigenvalues --   -0.77202  -0.75565  -0.71421  -0.70511  -0.67908
 Alpha  occ. eigenvalues --   -0.61328  -0.57593  -0.56752  -0.54006  -0.52127
 Alpha  occ. eigenvalues --   -0.49945  -0.49683  -0.44533  -0.43760  -0.43530
 Alpha  occ. eigenvalues --   -0.42108  -0.41441  -0.39944  -0.39470  -0.39014
 Alpha  occ. eigenvalues --   -0.37692  -0.37338  -0.36614  -0.34895  -0.34252
 Alpha  occ. eigenvalues --   -0.33702  -0.29086  -0.25473  -0.24814  -0.23791
 Alpha  occ. eigenvalues --   -0.22039
 Alpha virt. eigenvalues --   -0.04988  -0.02670  -0.00589  -0.00379  -0.00037
 Alpha virt. eigenvalues --    0.00498   0.00836   0.01563   0.01891   0.02518
 Alpha virt. eigenvalues --    0.03118   0.03310   0.03718   0.04210   0.04395

 Mulliken charges:
               1
     1  C    0.100637
     2  C   -0.502064
     3  C    0.337497
     4  C   -0.820417
     5  C   -0.172597
     6  H    0.125945
     7  S   -0.221864
     8  H    0.160381
     9  C    0.794119
    10  S   -0.499483
    11  C    0.261684
    12  C   -0.506619
    13  C    0.469856
    14  H    0.139218
    15  S   -0.379664
    16  C   -0.213061
    17  C    0.148968
    18  H    0.167531
    19  H    0.135767
    20  H    0.148459
    21  H    0.161119
    22  H    0.164589
 Sum of Mulliken charges =  -0.00000

 Dipole moment (field-independent basis, Debye):
    X=              0.2965    Y=              0.7582    Z=              0.5032  Tot=              0.9571
 Quadrupole moment (field-independent basis, Debye-Ang):
   XX=            -88.1396   YY=           -101.2789   ZZ=           -105.6620
   XY=             -1.5801   XZ=              3.2651   YZ=             -1.1362

 Normal termination of Gaussian 16 at Sun Oct 17 01:19:15 2021.
