 Gaussian 16, Revision C.01,
 Gaussian 16:  ES64L-G16RevC.01  3-Jul-2019

 -------------------------------------
 # opt=modredundant b3lyp/6-311+g(d,p)
 -------------------------------------

 --------------
 pBTTT_-155.pdb
 --------------
 Symbolic Z-matrix:
 Charge =  0 Multiplicity = 1

 SCF Done:  E(RB3LYP) =  -1618.67674049     A.U. after   17 cycles
 SCF Done:  E(RB3LYP) =  -1618.70532091     A.U. after   14 cycles
 SCF Done:  E(RB3LYP) =  -1618.71327209     A.U. after   15 cycles
 SCF Done:  E(RB3LYP) =  -1618.71536246     A.U. after   14 cycles
 SCF Done:  E(RB3LYP) =  -1618.71594359     A.U. after   13 cycles
 SCF Done:  E(RB3LYP) =  -1618.71651043     A.U. after   12 cycles
 SCF Done:  E(RB3LYP) =  -1618.71664194     A.U. after   12 cycles
 SCF Done:  E(RB3LYP) =  -1618.71669082     A.U. after   11 cycles
 SCF Done:  E(RB3LYP) =  -1618.71673815     A.U. after   12 cycles
 SCF Done:  E(RB3LYP) =  -1618.71676928     A.U. after   11 cycles
 SCF Done:  E(RB3LYP) =  -1618.71677657     A.U. after   10 cycles
 SCF Done:  E(RB3LYP) =  -1618.71677780     A.U. after   10 cycles
 SCF Done:  E(RB3LYP) =  -1618.71677835     A.U. after    9 cycles
 Optimization completed.
    -- Stationary point found.

                         Standard orientation:
 ---------------------------------------------------------------------
 Center     Atomic      Atomic             Coordinates (Angstroms)
 Number     Number       Type             X           Y           Z
 ---------------------------------------------------------------------
      1          6           0        3.959115    0.784756    0.034563
      2          6           0        2.581457    1.129950    0.185761
      3          6           0        1.748744    0.039805   -0.001456
      4          6           0        2.135508    2.520697    0.546066
      5          6           0        4.171750   -0.529663   -0.261332
      6          1           0        4.761977    1.500819    0.158522
      7         16           0        2.683949   -1.398967   -0.383226
      8          1           0        5.109594   -1.041914   -0.411340
      9          6           0        0.299049   -0.021323    0.025539
     10         16           0       -0.518010   -1.548547    0.415680
     11          6           0       -2.082075   -0.815934    0.192992
     12          6           0       -1.950288    0.524162   -0.144596
     13          6           0       -0.609322    0.976669   -0.248927
     14          1           0       -0.322540    1.972400   -0.550740
     15         16           0       -3.516942    1.258665   -0.365130
     16          6           0       -4.306108   -0.258033    0.004886
     17          6           0       -3.428785   -1.267626    0.280400
     18          1           0       -5.384307   -0.304264   -0.006066
     19          1           0       -3.734168   -2.274330    0.529475
     20          1           0        2.939022    3.057648    1.054969
     21          1           0        1.265212    2.505483    1.206068
     22          1           0        1.866985    3.104973   -0.341449
 ---------------------------------------------------------------------

 The electronic state is 1-A.
 Alpha  occ. eigenvalues --  -88.88465 -88.88286 -88.88081 -10.22578 -10.21680
 Alpha  occ. eigenvalues --  -10.21192 -10.21121 -10.21047 -10.20519 -10.19374
 Alpha  occ. eigenvalues --  -10.19371 -10.19301 -10.18194 -10.17829  -7.97040
 Alpha  occ. eigenvalues --   -7.96870  -7.96706  -5.93352  -5.93193  -5.93003
 Alpha  occ. eigenvalues --   -5.92988  -5.92831  -5.92624  -5.92588  -5.92390
 Alpha  occ. eigenvalues --   -5.92290  -0.91724  -0.89309  -0.84954  -0.78084
 Alpha  occ. eigenvalues --   -0.76937  -0.75924  -0.71451  -0.70570  -0.68227
 Alpha  occ. eigenvalues --   -0.61516  -0.57530  -0.57282  -0.54122  -0.52162
 Alpha  occ. eigenvalues --   -0.50073  -0.49775  -0.44602  -0.43883  -0.43728
 Alpha  occ. eigenvalues --   -0.41986  -0.41642  -0.40270  -0.39743  -0.38934
 Alpha  occ. eigenvalues --   -0.37975  -0.37885  -0.36419  -0.35100  -0.34322
 Alpha  occ. eigenvalues --   -0.33869  -0.29274  -0.26503  -0.25505  -0.23791
 Alpha  occ. eigenvalues --   -0.20725
 Alpha virt. eigenvalues --   -0.06072  -0.01917  -0.00905  -0.00477   0.00312
 Alpha virt. eigenvalues --    0.00735   0.01102   0.01488   0.02071   0.02746
 Alpha virt. eigenvalues --    0.03073   0.03443   0.03811   0.04301   0.04647

 Mulliken charges:
               1
     1  C    0.052745
     2  C    0.483029
     3  C    0.424493
     4  C   -1.081685
     5  C   -0.058783
     6  H    0.122625
     7  S   -0.494125
     8  H    0.159488
     9  C    0.339831
    10  S   -0.523523
    11  C    0.449634
    12  C    0.160836
    13  C   -0.120749
    14  H    0.137680
    15  S   -0.406324
    16  C   -0.111578
    17  C   -0.309925
    18  H    0.167201
    19  H    0.135659
    20  H    0.145433
    21  H    0.161093
    22  H    0.166945
 Sum of Mulliken charges =  -0.00000

 Dipole moment (field-independent basis, Debye):
    X=              0.3125    Y=              0.8807    Z=              0.1305  Tot=              0.9435
 Quadrupole moment (field-independent basis, Debye-Ang):
   XX=            -88.1473   YY=            -97.8144   ZZ=           -109.1891
   XY=              5.1759   XZ=             -0.6198   YZ=             -0.4837

 Normal termination of Gaussian 16 at Sat Oct 16 23:06:50 2021.
