 Gaussian 16, Revision C.01,
 Gaussian 16:  ES64L-G16RevC.01  3-Jul-2019

 -------------------------------------
 # opt=modredundant b3lyp/6-311+g(d,p)
 -------------------------------------

 ------------
 pBTTT_50.pdb
 ------------
 Symbolic Z-matrix:
 Charge =  0 Multiplicity = 1

 SCF Done:  E(RB3LYP) =  -1618.67622889     A.U. after   17 cycles
 SCF Done:  E(RB3LYP) =  -1618.70567029     A.U. after   15 cycles
 SCF Done:  E(RB3LYP) =  -1618.71368589     A.U. after   15 cycles
 SCF Done:  E(RB3LYP) =  -1618.71569901     A.U. after   14 cycles
 SCF Done:  E(RB3LYP) =  -1618.71601274     A.U. after   14 cycles
 SCF Done:  E(RB3LYP) =  -1618.71661537     A.U. after   13 cycles
 SCF Done:  E(RB3LYP) =  -1618.71669564     A.U. after   12 cycles
 SCF Done:  E(RB3LYP) =  -1618.71677012     A.U. after   12 cycles
 SCF Done:  E(RB3LYP) =  -1618.71685097     A.U. after   12 cycles
 SCF Done:  E(RB3LYP) =  -1618.71699000     A.U. after   12 cycles
 SCF Done:  E(RB3LYP) =  -1618.71716176     A.U. after   12 cycles
 SCF Done:  E(RB3LYP) =  -1618.71721662     A.U. after   13 cycles
 SCF Done:  E(RB3LYP) =  -1618.71725822     A.U. after   11 cycles
 SCF Done:  E(RB3LYP) =  -1618.71725877     A.U. after   11 cycles
 SCF Done:  E(RB3LYP) =  -1618.71726146     A.U. after   11 cycles
 Optimization completed.
    -- Stationary point found.

                         Standard orientation:
 ---------------------------------------------------------------------
 Center     Atomic      Atomic             Coordinates (Angstroms)
 Number     Number       Type             X           Y           Z
 ---------------------------------------------------------------------
      1          6           0        4.028976    0.285206    0.268054
      2          6           0        2.703551    0.800394    0.418943
      3          6           0        1.746327   -0.112772    0.024452
      4          6           0        2.429018    2.171291    0.977461
      5          6           0        4.075187   -0.986070   -0.224733
      6          1           0        4.914286    0.848178    0.536720
      7         16           0        2.491404   -1.599256   -0.541744
      8          1           0        4.942648   -1.598803   -0.417237
      9          6           0        0.293028   -0.014976    0.022495
     10         16           0       -0.520830    1.387718   -0.694467
     11          6           0       -2.085483    0.699159   -0.361748
     12          6           0       -1.954004   -0.544692    0.242305
     13          6           0       -0.611782   -0.951800    0.461153
     14          1           0       -0.311987   -1.877103    0.933569
     15         16           0       -3.520520   -1.230067    0.585181
     16          6           0       -4.309916    0.175926   -0.092397
     17          6           0       -3.433525    1.116664   -0.551654
     18          1           0       -5.388407    0.213518   -0.110334
     19          1           0       -3.739658    2.050069   -1.003115
     20          1           0        3.159724    2.419577    1.751513
     21          1           0        1.433116    2.238484    1.416918
     22          1           0        2.501154    2.941780    0.202461
 ---------------------------------------------------------------------

 The electronic state is 1-A.
 Alpha  occ. eigenvalues --  -88.88445 -88.88330 -88.87989 -10.22371 -10.21438
 Alpha  occ. eigenvalues --  -10.21173 -10.21117 -10.21057 -10.20451 -10.19372
 Alpha  occ. eigenvalues --  -10.19276 -10.19272 -10.18082 -10.17459  -7.97019
 Alpha  occ. eigenvalues --   -7.96905  -7.96604  -5.93331  -5.93225  -5.92966
 Alpha  occ. eigenvalues --   -5.92897  -5.92861  -5.92567  -5.92520  -5.92434
 Alpha  occ. eigenvalues --   -5.92194  -0.91678  -0.89193  -0.84931  -0.77627
 Alpha  occ. eigenvalues --   -0.77244  -0.75661  -0.71439  -0.70484  -0.68021
 Alpha  occ. eigenvalues --   -0.61403  -0.57734  -0.56881  -0.53759  -0.52224
 Alpha  occ. eigenvalues --   -0.50019  -0.49714  -0.44523  -0.43851  -0.43530
 Alpha  occ. eigenvalues --   -0.42072  -0.41502  -0.40039  -0.39480  -0.39019
 Alpha  occ. eigenvalues --   -0.37803  -0.37482  -0.36698  -0.34872  -0.34238
 Alpha  occ. eigenvalues --   -0.33866  -0.29149  -0.25881  -0.25307  -0.23791
 Alpha  occ. eigenvalues --   -0.21290
 Alpha virt. eigenvalues --   -0.05568  -0.02061  -0.00608  -0.00432  -0.00025
 Alpha virt. eigenvalues --    0.00499   0.00960   0.01485   0.01951   0.02556
 Alpha virt. eigenvalues --    0.03075   0.03448   0.03867   0.04112   0.04666

 Mulliken charges:
               1
     1  C    0.008581
     2  C   -0.371263
     3  C    0.448356
     4  C   -0.828971
     5  C   -0.130055
     6  H    0.125701
     7  S   -0.323070
     8  H    0.160308
     9  C    0.682659
    10  S   -0.547194
    11  C    0.281685
    12  C   -0.585959
    13  C    0.620372
    14  H    0.143037
    15  S   -0.388210
    16  C   -0.214621
    17  C    0.140629
    18  H    0.167375
    19  H    0.135373
    20  H    0.143568
    21  H    0.160603
    22  H    0.171096
 Sum of Mulliken charges =  -0.00000

 Dipole moment (field-independent basis, Debye):
    X=              0.3539    Y=              0.8296    Z=              0.3811  Tot=              0.9792
 Quadrupole moment (field-independent basis, Debye-Ang):
   XX=            -88.0588   YY=            -99.3496   ZZ=           -107.6470
   XY=             -1.8801   XZ=              2.3813   YZ=             -0.9404

 Normal termination of Gaussian 16 at Sun Oct 17 01:04:01 2021.
