 Gaussian 16, Revision C.01,
 Gaussian 16:  ES64L-G16RevC.01  3-Jul-2019

 -------------------------------------
 # opt=modredundant b3lyp/6-311+g(d,p)
 -------------------------------------

 -------------
 pBTTT_180.pdb
 -------------
 Symbolic Z-matrix:
 Charge =  0 Multiplicity = 1

 SCF Done:  E(RB3LYP) =  -1618.67731884     A.U. after   16 cycles
 SCF Done:  E(RB3LYP) =  -1618.70532121     A.U. after   15 cycles
 SCF Done:  E(RB3LYP) =  -1618.71268393     A.U. after   14 cycles
 SCF Done:  E(RB3LYP) =  -1618.71456907     A.U. after   13 cycles
 SCF Done:  E(RB3LYP) =  -1618.71500839     A.U. after   12 cycles
 SCF Done:  E(RB3LYP) =  -1618.71516672     A.U. after   12 cycles
 SCF Done:  E(RB3LYP) =  -1618.71527444     A.U. after   12 cycles
 SCF Done:  E(RB3LYP) =  -1618.71527117     A.U. after   11 cycles
 SCF Done:  E(RB3LYP) =  -1618.71527639     A.U. after   11 cycles
 SCF Done:  E(RB3LYP) =  -1618.71527908     A.U. after   10 cycles
 SCF Done:  E(RB3LYP) =  -1618.71527961     A.U. after    9 cycles
 SCF Done:  E(RB3LYP) =  -1618.71527979     A.U. after    9 cycles
 SCF Done:  E(RB3LYP) =  -1618.71527984     A.U. after    8 cycles
 Optimization completed.
    -- Stationary point found.

                         Standard orientation:
 ---------------------------------------------------------------------
 Center     Atomic      Atomic             Coordinates (Angstroms)
 Number     Number       Type             X           Y           Z
 ---------------------------------------------------------------------
      1          6           0       -3.963833    0.792230   -0.000212
      2          6           0       -2.585123    1.160261    0.000181
      3          6           0       -1.747550    0.053489    0.000201
      4          6           0       -2.149268    2.599516    0.000644
      5          6           0       -4.180877   -0.554080   -0.000570
      6          1           0       -4.764692    1.520987   -0.000238
      7         16           0       -2.693116   -1.429572   -0.000396
      8          1           0       -5.119344   -1.086370   -0.000855
      9          6           0       -0.297704   -0.013206    0.000297
     10         16           0        0.513069   -1.595734    0.000577
     11          6           0        2.083138   -0.843847    0.000253
     12          6           0        1.960490    0.537889   -0.000043
     13          6           0        0.624384    1.013724   -0.000041
     14          1           0        0.359194    2.057744   -0.000231
     15         16           0        3.533026    1.293183   -0.000463
     16          6           0        4.311238   -0.273481   -0.000252
     17          6           0        3.425899   -1.313599    0.000104
     18          1           0        5.389301   -0.323501   -0.000406
     19          1           0        3.723696   -2.352843    0.000599
     20          1           0       -3.019806    3.257672    0.001414
     21          1           0       -1.550858    2.843884   -0.883016
     22          1           0       -1.549922    2.843031    0.883871
 ---------------------------------------------------------------------

 The electronic state is 1-A.
 Alpha  occ. eigenvalues --  -88.88452 -88.88260 -88.88137 -10.22767 -10.21884
 Alpha  occ. eigenvalues --  -10.21166 -10.21108 -10.21035 -10.20550 -10.19464
 Alpha  occ. eigenvalues --  -10.19373 -10.19245 -10.18240 -10.18065  -7.97027
 Alpha  occ. eigenvalues --   -7.96853  -7.96773  -5.93339  -5.93180  -5.93071
 Alpha  occ. eigenvalues --   -5.92975  -5.92817  -5.92691  -5.92575  -5.92363
 Alpha  occ. eigenvalues --   -5.92352  -0.91732  -0.89377  -0.84947  -0.78232
 Alpha  occ. eigenvalues --   -0.76936  -0.76015  -0.71429  -0.70588  -0.68395
 Alpha  occ. eigenvalues --   -0.61567  -0.57581  -0.57436  -0.54067  -0.52284
 Alpha  occ. eigenvalues --   -0.50145  -0.49794  -0.44578  -0.43924  -0.43900
 Alpha  occ. eigenvalues --   -0.41955  -0.41792  -0.40459  -0.39798  -0.38747
 Alpha  occ. eigenvalues --   -0.38299  -0.37993  -0.36339  -0.35199  -0.34462
 Alpha  occ. eigenvalues --   -0.33634  -0.29354  -0.26824  -0.25649  -0.23725
 Alpha  occ. eigenvalues --   -0.20425
 Alpha virt. eigenvalues --   -0.06397  -0.01784  -0.01142  -0.00509   0.00318
 Alpha virt. eigenvalues --    0.00744   0.01397   0.01425   0.02086   0.02735
 Alpha virt. eigenvalues --    0.03335   0.03466   0.03846   0.04356   0.04781

 Mulliken charges:
               1
     1  C    0.069549
     2  C    0.343765
     3  C    0.850365
     4  C   -1.118044
     5  C   -0.190540
     6  H    0.119484
     7  S   -0.586169
     8  H    0.158653
     9  C    0.130298
    10  S   -0.619192
    11  C    0.329595
    12  C    0.184841
    13  C    0.126607
    14  H    0.133655
    15  S   -0.406962
    16  C   -0.115892
    17  C   -0.185474
    18  H    0.166985
    19  H    0.134368
    20  H    0.147147
    21  H    0.163511
    22  H    0.163450
 Sum of Mulliken charges =  -0.00000

 Dipole moment (field-independent basis, Debye):
    X=             -0.3719    Y=              0.9026    Z=              0.0000  Tot=              0.9762
 Quadrupole moment (field-independent basis, Debye-Ang):
   XX=            -87.9938   YY=            -96.9639   ZZ=           -110.0247
   XY=             -5.2914   XZ=              0.0017   YZ=             -0.0002

 Normal termination of Gaussian 16 at Sun Oct 17 01:41:56 2021.
