 Gaussian 16, Revision C.01,
 Gaussian 16:  ES64L-G16RevC.01  3-Jul-2019

 -------------------------------------
 # opt=modredundant b3lyp/6-311+g(d,p)
 -------------------------------------

 ------------
 pBTTT_55.pdb
 ------------
 Symbolic Z-matrix:
 Charge =  0 Multiplicity = 1

 SCF Done:  E(RB3LYP) =  -1618.67585537     A.U. after   17 cycles
 SCF Done:  E(RB3LYP) =  -1618.70549592     A.U. after   15 cycles
 SCF Done:  E(RB3LYP) =  -1618.71363842     A.U. after   15 cycles
 SCF Done:  E(RB3LYP) =  -1618.71555750     A.U. after   14 cycles
 SCF Done:  E(RB3LYP) =  -1618.71585211     A.U. after   14 cycles
 SCF Done:  E(RB3LYP) =  -1618.71645593     A.U. after   13 cycles
 SCF Done:  E(RB3LYP) =  -1618.71648527     A.U. after   13 cycles
 SCF Done:  E(RB3LYP) =  -1618.71658484     A.U. after   12 cycles
 SCF Done:  E(RB3LYP) =  -1618.71665996     A.U. after   12 cycles
 SCF Done:  E(RB3LYP) =  -1618.71675585     A.U. after   12 cycles
 SCF Done:  E(RB3LYP) =  -1618.71687701     A.U. after   11 cycles
 SCF Done:  E(RB3LYP) =  -1618.71710610     A.U. after   14 cycles
 SCF Done:  E(RB3LYP) =  -1618.71718587     A.U. after   13 cycles
 SCF Done:  E(RB3LYP) =  -1618.71718272     A.U. after   11 cycles
 SCF Done:  E(RB3LYP) =  -1618.71719213     A.U. after   11 cycles
 SCF Done:  E(RB3LYP) =  -1618.71719246     A.U. after   10 cycles
 Optimization completed.
    -- Stationary point found.

                         Standard orientation:
 ---------------------------------------------------------------------
 Center     Atomic      Atomic             Coordinates (Angstroms)
 Number     Number       Type             X           Y           Z
 ---------------------------------------------------------------------
      1          6           0        4.026374    0.289768    0.296894
      2          6           0        2.697085    0.792552    0.457400
      3          6           0        1.747674   -0.109955    0.024128
      4          6           0        2.407971    2.140626    1.061511
      5          6           0        4.081299   -0.963285   -0.239859
      6          1           0        4.907518    0.847106    0.589971
      7         16           0        2.502422   -1.573340   -0.586460
      8          1           0        4.953106   -1.564401   -0.448871
      9          6           0        0.292932   -0.014894    0.021720
     10         16           0       -0.520539    1.351778   -0.761943
     11          6           0       -2.085139    0.680235   -0.395840
     12          6           0       -1.953534   -0.533770    0.266242
     13          6           0       -0.610788   -0.930659    0.502717
     14          1           0       -0.309873   -1.833979    1.015308
     15         16           0       -3.519810   -1.202819    0.640832
     16          6           0       -4.309524    0.169475   -0.102045
     17          6           0       -3.433516    1.087825   -0.605094
     18          1           0       -5.388037    0.206053   -0.121405
     19          1           0       -3.739964    1.998859   -1.099951
     20          1           0        3.097129    2.344923    1.885237
     21          1           0        1.389900    2.201041    1.447674
     22          1           0        2.532042    2.942972    0.326533
 ---------------------------------------------------------------------

 The electronic state is 1-A.
 Alpha  occ. eigenvalues --  -88.88449 -88.88310 -88.87975 -10.22327 -10.21385
 Alpha  occ. eigenvalues --  -10.21172 -10.21114 -10.21064 -10.20447 -10.19371
 Alpha  occ. eigenvalues --  -10.19295 -10.19262 -10.18067 -10.17432  -7.97023
 Alpha  occ. eigenvalues --   -7.96884  -7.96588  -5.93335  -5.93203  -5.92971
 Alpha  occ. eigenvalues --   -5.92881  -5.92839  -5.92572  -5.92504  -5.92415
 Alpha  occ. eigenvalues --   -5.92180  -0.91668  -0.89177  -0.84925  -0.77591
 Alpha  occ. eigenvalues --   -0.77238  -0.75636  -0.71434  -0.70490  -0.67988
 Alpha  occ. eigenvalues --   -0.61383  -0.57694  -0.56851  -0.53819  -0.52198
 Alpha  occ. eigenvalues --   -0.49997  -0.49703  -0.44524  -0.43831  -0.43524
 Alpha  occ. eigenvalues --   -0.42080  -0.41482  -0.40010  -0.39476  -0.39024
 Alpha  occ. eigenvalues --   -0.37767  -0.37435  -0.36681  -0.34880  -0.34243
 Alpha  occ. eigenvalues --   -0.33824  -0.29128  -0.25742  -0.25241  -0.23788
 Alpha  occ. eigenvalues --   -0.21461
 Alpha virt. eigenvalues --   -0.05432  -0.02193  -0.00609  -0.00425  -0.00039
 Alpha virt. eigenvalues --    0.00500   0.00924   0.01500   0.01938   0.02538
 Alpha virt. eigenvalues --    0.03086   0.03431   0.03829   0.04148   0.04630

 Mulliken charges:
               1
     1  C    0.037806
     2  C   -0.434099
     3  C    0.418213
     4  C   -0.821403
     5  C   -0.150257
     6  H    0.125847
     7  S   -0.290735
     8  H    0.160388
     9  C    0.728117
    10  S   -0.533536
    11  C    0.270962
    12  C   -0.567035
    13  C    0.588444
    14  H    0.142233
    15  S   -0.383970
    16  C   -0.214248
    17  C    0.146513
    18  H    0.167426
    19  H    0.135468
    20  H    0.144218
    21  H    0.160192
    22  H    0.169458
 Sum of Mulliken charges =  -0.00000

 Dipole moment (field-independent basis, Debye):
    X=              0.3398    Y=              0.8096    Z=              0.4113  Tot=              0.9696
 Quadrupole moment (field-independent basis, Debye-Ang):
   XX=            -88.0812   YY=            -99.7648   ZZ=           -107.2114
   XY=             -1.8350   XZ=              2.5960   YZ=             -1.0037

 Normal termination of Gaussian 16 at Sun Oct 17 01:01:14 2021.
