 Gaussian 16, Revision C.01,
 Gaussian 16:  ES64L-G16RevC.01  3-Jul-2019

 -------------------------------------
 # opt=modredundant b3lyp/6-311+g(d,p)
 -------------------------------------

 -------------
 pBTTT_165.pdb
 -------------
 Symbolic Z-matrix:
 Charge =  0 Multiplicity = 1

 SCF Done:  E(RB3LYP) =  -1618.67755444     A.U. after   17 cycles
 SCF Done:  E(RB3LYP) =  -1618.70579702     A.U. after   16 cycles
 SCF Done:  E(RB3LYP) =  -1618.71324158     A.U. after   14 cycles
 SCF Done:  E(RB3LYP) =  -1618.71522440     A.U. after   13 cycles
 SCF Done:  E(RB3LYP) =  -1618.71569132     A.U. after   12 cycles
 SCF Done:  E(RB3LYP) =  -1618.71588318     A.U. after   12 cycles
 SCF Done:  E(RB3LYP) =  -1618.71600105     A.U. after   12 cycles
 SCF Done:  E(RB3LYP) =  -1618.71601325     A.U. after   11 cycles
 SCF Done:  E(RB3LYP) =  -1618.71602797     A.U. after   10 cycles
 SCF Done:  E(RB3LYP) =  -1618.71603638     A.U. after   11 cycles
 SCF Done:  E(RB3LYP) =  -1618.71604088     A.U. after   10 cycles
 SCF Done:  E(RB3LYP) =  -1618.71604206     A.U. after   10 cycles
 SCF Done:  E(RB3LYP) =  -1618.71604226     A.U. after    9 cycles
 Optimization completed.
    -- Stationary point found.

                         Standard orientation:
 ---------------------------------------------------------------------
 Center     Atomic      Atomic             Coordinates (Angstroms)
 Number     Number       Type             X           Y           Z
 ---------------------------------------------------------------------
      1          6           0       -3.961193    0.788689    0.002219
      2          6           0       -2.584327    1.146520    0.120644
      3          6           0       -1.748134    0.045762    0.016276
      4          6           0       -2.145964    2.564247    0.365850
      5          6           0       -4.173966   -0.544297   -0.192808
      6          1           0       -4.763853    1.512214    0.071949
      7         16           0       -2.685469   -1.417685   -0.252014
      8          1           0       -5.111029   -1.067969   -0.302011
      9          6           0       -0.298578   -0.016168    0.038193
     10         16           0        0.516617   -1.575562    0.284267
     11          6           0        2.082790   -0.831416    0.126731
     12          6           0        1.954443    0.533289   -0.089794
     13          6           0        0.615641    0.998885   -0.148107
     14          1           0        0.338471    2.020726   -0.352233
     15         16           0        3.523200    1.280110   -0.245063
     16          6           0        4.308097   -0.265865   -0.012652
     17          6           0        3.427716   -1.293418    0.172690
     18          1           0        5.386125   -0.314240   -0.028695
     19          1           0        3.730127   -2.319087    0.331684
     20          1           0       -2.988209    3.166741    0.711697
     21          1           0       -1.761327    3.036051   -0.545485
     22          1           0       -1.359026    2.618393    1.122619
 ---------------------------------------------------------------------

 The electronic state is 1-A.
 Alpha  occ. eigenvalues --  -88.88460 -88.88273 -88.88108 -10.22677 -10.21785
 Alpha  occ. eigenvalues --  -10.21181 -10.21118 -10.21042 -10.20532 -10.19413
 Alpha  occ. eigenvalues --  -10.19375 -10.19275 -10.18218 -10.17952  -7.97035
 Alpha  occ. eigenvalues --   -7.96862  -7.96738  -5.93347  -5.93187  -5.93036
 Alpha  occ. eigenvalues --   -5.92983  -5.92824  -5.92657  -5.92583  -5.92377
 Alpha  occ. eigenvalues --   -5.92320  -0.91732  -0.89344  -0.84953  -0.78163
 Alpha  occ. eigenvalues --   -0.76936  -0.75975  -0.71442  -0.70578  -0.68314
 Alpha  occ. eigenvalues --   -0.61544  -0.57554  -0.57370  -0.54090  -0.52221
 Alpha  occ. eigenvalues --   -0.50109  -0.49787  -0.44597  -0.43910  -0.43806
 Alpha  occ. eigenvalues --   -0.41968  -0.41718  -0.40370  -0.39767  -0.38859
 Alpha  occ. eigenvalues --   -0.38125  -0.37950  -0.36377  -0.35155  -0.34390
 Alpha  occ. eigenvalues --   -0.33757  -0.29319  -0.26688  -0.25574  -0.23763
 Alpha  occ. eigenvalues --   -0.20553
 Alpha virt. eigenvalues --   -0.06256  -0.01825  -0.01041  -0.00495   0.00321
 Alpha virt. eigenvalues --    0.00745   0.01231   0.01475   0.02091   0.02737
 Alpha virt. eigenvalues --    0.03185   0.03487   0.03822   0.04327   0.04712

 Mulliken charges:
               1
     1  C    0.114275
     2  C    0.468796
     3  C    0.534642
     4  C   -1.109921
     5  C   -0.092618
     6  H    0.120997
     7  S   -0.544209
     8  H    0.159012
     9  C    0.208629
    10  S   -0.548493
    11  C    0.422361
    12  C    0.195505
    13  C   -0.033190
    14  H    0.135765
    15  S   -0.408015
    16  C   -0.111201
    17  C   -0.288720
    18  H    0.167086
    19  H    0.135202
    20  H    0.146502
    21  H    0.167128
    22  H    0.160468
 Sum of Mulliken charges =  -0.00000

 Dipole moment (field-independent basis, Debye):
    X=             -0.3415    Y=              0.8913    Z=              0.0532  Tot=              0.9560
 Quadrupole moment (field-independent basis, Debye-Ang):
   XX=            -88.0528   YY=            -97.3483   ZZ=           -109.6544
   XY=             -5.2639   XZ=              0.4242   YZ=             -0.2661

 Normal termination of Gaussian 16 at Sun Oct 17 01:28:21 2021.
