 Gaussian 16, Revision C.01,
 Gaussian 16:  ES64L-G16RevC.01  3-Jul-2019

 -------------------------------------
 # opt=modredundant b3lyp/6-311+g(d,p)
 -------------------------------------

 -------------
 pBTTT_-15.pdb
 -------------
 Symbolic Z-matrix:
 Charge =  0 Multiplicity = 1

 SCF Done:  E(RB3LYP) =  -1618.67844695     A.U. after   16 cycles
 SCF Done:  E(RB3LYP) =  -1618.70681694     A.U. after   14 cycles
 SCF Done:  E(RB3LYP) =  -1618.71405573     A.U. after   15 cycles
 SCF Done:  E(RB3LYP) =  -1618.71573416     A.U. after   13 cycles
 SCF Done:  E(RB3LYP) =  -1618.71600836     A.U. after   13 cycles
 SCF Done:  E(RB3LYP) =  -1618.71632009     A.U. after   12 cycles
 SCF Done:  E(RB3LYP) =  -1618.71636751     A.U. after   11 cycles
 SCF Done:  E(RB3LYP) =  -1618.71637064     A.U. after   11 cycles
 SCF Done:  E(RB3LYP) =  -1618.71638131     A.U. after   10 cycles
 SCF Done:  E(RB3LYP) =  -1618.71638869     A.U. after   11 cycles
 SCF Done:  E(RB3LYP) =  -1618.71639333     A.U. after   11 cycles
 SCF Done:  E(RB3LYP) =  -1618.71639486     A.U. after   10 cycles
 SCF Done:  E(RB3LYP) =  -1618.71639540     A.U. after   10 cycles
 Optimization completed.
    -- Stationary point found.

                         Standard orientation:
 ---------------------------------------------------------------------
 Center     Atomic      Atomic             Coordinates (Angstroms)
 Number     Number       Type             X           Y           Z
 ---------------------------------------------------------------------
      1          6           0       -4.041741    0.270232    0.083286
      2          6           0       -2.731157    0.837158    0.135794
      3          6           0       -1.741392   -0.125032    0.016639
      4          6           0       -2.516065    2.316561    0.316916
      5          6           0       -4.056434   -1.083043   -0.078022
      6          1           0       -4.941559    0.866118    0.170651
      7         16           0       -2.454842   -1.721652   -0.184498
      8          1           0       -4.906619   -1.744579   -0.141091
      9          6           0       -0.294303   -0.014958    0.011907
     10         16           0        0.529222    1.542878   -0.216753
     11          6           0        2.090956    0.780871   -0.119392
     12          6           0        1.957222   -0.587236    0.075049
     13          6           0        0.617342   -1.039151    0.155323
     14          1           0        0.326630   -2.067265    0.321337
     15         16           0        3.523067   -1.347094    0.187869
     16          6           0        4.314564    0.198322   -0.030080
     17          6           0        3.438400    1.235181   -0.178459
     18          1           0        5.393029    0.238538   -0.037337
     19          1           0        3.745328    2.261501   -0.324325
     20          1           0       -3.456860    2.802117    0.583244
     21          1           0       -2.150542    2.791325   -0.599473
     22          1           0       -1.792907    2.532695    1.107340
 ---------------------------------------------------------------------

 The electronic state is 1-A.
 Alpha  occ. eigenvalues --  -88.88425 -88.88394 -88.88058 -10.22664 -10.21818
 Alpha  occ. eigenvalues --  -10.21163 -10.21058 -10.20986 -10.20551 -10.19441
 Alpha  occ. eigenvalues --  -10.19354 -10.19127 -10.18196 -10.17728  -7.97003
 Alpha  occ. eigenvalues --   -7.96967  -7.96689  -5.93326  -5.93281  -5.92990
 Alpha  occ. eigenvalues --   -5.92961  -5.92916  -5.92609  -5.92524  -5.92514
 Alpha  occ. eigenvalues --   -5.92265  -0.91712  -0.89308  -0.84939  -0.77934
 Alpha  occ. eigenvalues --   -0.77271  -0.75793  -0.71428  -0.70481  -0.68272
 Alpha  occ. eigenvalues --   -0.61533  -0.58017  -0.57010  -0.53407  -0.52406
 Alpha  occ. eigenvalues --   -0.50221  -0.49787  -0.44546  -0.43948  -0.43709
 Alpha  occ. eigenvalues --   -0.42025  -0.41667  -0.40264  -0.39521  -0.38826
 Alpha  occ. eigenvalues --   -0.38145  -0.37945  -0.36697  -0.34754  -0.34416
 Alpha  occ. eigenvalues --   -0.33801  -0.29339  -0.26663  -0.25560  -0.23821
 Alpha  occ. eigenvalues --   -0.20436
 Alpha virt. eigenvalues --   -0.06231  -0.01599  -0.00573  -0.00368   0.00204
 Alpha virt. eigenvalues --    0.00460   0.01413   0.01479   0.02078   0.02573
 Alpha virt. eigenvalues --    0.03022   0.03300   0.03772   0.04398   0.04821

 Mulliken charges:
               1
     1  C    0.068464
     2  C    0.276124
     3  C    0.582956
     4  C   -0.978956
     5  C   -0.127811
     6  H    0.120520
     7  S   -0.599709
     8  H    0.159817
     9  C    0.380670
    10  S   -0.616825
    11  C    0.268036
    12  C    0.211948
    13  C    0.044049
    14  H    0.138432
    15  S   -0.402553
    16  C   -0.140000
    17  C   -0.174763
    18  H    0.166940
    19  H    0.133831
    20  H    0.144332
    21  H    0.176869
    22  H    0.167630
 Sum of Mulliken charges =  -0.00000

 Dipole moment (field-independent basis, Debye):
    X=             -0.5053    Y=              0.9314    Z=              0.1415  Tot=              1.0691
 Quadrupole moment (field-independent basis, Debye-Ang):
   XX=            -87.7535   YY=            -97.4367   ZZ=           -109.7574
   XY=              1.8888   XZ=             -0.7859   YZ=             -0.3168

 Normal termination of Gaussian 16 at Sun Oct 17 00:34:23 2021.
