 Gaussian 16, Revision C.01,
 Gaussian 16:  ES64L-G16RevC.01  3-Jul-2019

 -------------------------------------
 # opt=modredundant b3lyp/6-311+g(d,p)
 -------------------------------------

 -------------
 pBTTT_145.pdb
 -------------
 Symbolic Z-matrix:
 Charge =  0 Multiplicity = 1

 SCF Done:  E(RB3LYP) =  -1618.67718534     A.U. after   17 cycles
 SCF Done:  E(RB3LYP) =  -1618.70618676     A.U. after   15 cycles
 SCF Done:  E(RB3LYP) =  -1618.71388346     A.U. after   14 cycles
 SCF Done:  E(RB3LYP) =  -1618.71594665     A.U. after   14 cycles
 SCF Done:  E(RB3LYP) =  -1618.71618856     A.U. after   14 cycles
 SCF Done:  E(RB3LYP) =  -1618.71693032     A.U. after   13 cycles
 SCF Done:  E(RB3LYP) =  -1618.71699801     A.U. after   13 cycles
 SCF Done:  E(RB3LYP) =  -1618.71714632     A.U. after   12 cycles
 SCF Done:  E(RB3LYP) =  -1618.71723968     A.U. after   12 cycles
 SCF Done:  E(RB3LYP) =  -1618.71727683     A.U. after   13 cycles
 SCF Done:  E(RB3LYP) =  -1618.71729090     A.U. after   12 cycles
 SCF Done:  E(RB3LYP) =  -1618.71729371     A.U. after   12 cycles
 SCF Done:  E(RB3LYP) =  -1618.71729401     A.U. after   10 cycles
 Optimization completed.
    -- Stationary point found.

                         Standard orientation:
 ---------------------------------------------------------------------
 Center     Atomic      Atomic             Coordinates (Angstroms)
 Number     Number       Type             X           Y           Z
 ---------------------------------------------------------------------
      1          6           0       -3.956884    0.778867    0.078445
      2          6           0       -2.576673    1.110227    0.244097
      3          6           0       -1.749530    0.036209   -0.028840
      4          6           0       -2.120173    2.469430    0.699346
      5          6           0       -4.173149   -0.511714   -0.306497
      6          1           0       -4.758219    1.484720    0.258565
      7         16           0       -2.687911   -1.373322   -0.499068
      8          1           0       -5.113465   -1.010324   -0.484923
      9          6           0       -0.298962   -0.028615   -0.001438
     10         16           0        0.517120   -1.513605    0.525142
     11          6           0        2.080775   -0.796638    0.252896
     12          6           0        1.948330    0.510514   -0.196744
     13          6           0        0.606130    0.946677   -0.350029
     14          1           0        0.312770    1.912762   -0.733653
     15         16           0        3.514532    1.228191   -0.468823
     16          6           0        4.304824   -0.250114    0.031028
     17          6           0        3.428428   -1.235710    0.384382
     18          1           0        5.383203   -0.293683    0.031373
     19          1           0        3.734846   -2.216907    0.719237
     20          1           0       -2.875499    2.930503    1.340205
     21          1           0       -1.956915    3.146426   -0.146839
     22          1           0       -1.185268    2.411484    1.260128
 ---------------------------------------------------------------------

 The electronic state is 1-A.
 Alpha  occ. eigenvalues --  -88.88465 -88.88291 -88.88051 -10.22475 -10.21577
 Alpha  occ. eigenvalues --  -10.21191 -10.21118 -10.21048 -10.20510 -10.19368
 Alpha  occ. eigenvalues --  -10.19344 -10.19317 -10.18166 -10.17708  -7.97040
 Alpha  occ. eigenvalues --   -7.96871  -7.96672  -5.93352  -5.93191  -5.92987
 Alpha  occ. eigenvalues --   -5.92967  -5.92829  -5.92589  -5.92588  -5.92395
 Alpha  occ. eigenvalues --   -5.92259  -0.91708  -0.89272  -0.84949  -0.78000
 Alpha  occ. eigenvalues --   -0.76940  -0.75862  -0.71453  -0.70561  -0.68143
 Alpha  occ. eigenvalues --   -0.61480  -0.57506  -0.57178  -0.54158  -0.52112
 Alpha  occ. eigenvalues --   -0.50040  -0.49754  -0.44601  -0.43846  -0.43667
 Alpha  occ. eigenvalues --   -0.42003  -0.41573  -0.40168  -0.39719  -0.38980
 Alpha  occ. eigenvalues --   -0.37872  -0.37778  -0.36457  -0.35039  -0.34274
 Alpha  occ. eigenvalues --   -0.33930  -0.29222  -0.26270  -0.25443  -0.23796
 Alpha  occ. eigenvalues --   -0.20943
 Alpha virt. eigenvalues --   -0.05852  -0.02054  -0.00766  -0.00461   0.00293
 Alpha virt. eigenvalues --    0.00702   0.00982   0.01493   0.02021   0.02763
 Alpha virt. eigenvalues --    0.02977   0.03375   0.03819   0.04244   0.04564

 Mulliken charges:
               1
     1  C    0.078117
     2  C   -0.027991
     3  C    0.515557
     4  C   -1.030788
     5  C   -0.096110
     6  H    0.124831
     7  S   -0.418280
     8  H    0.159875
     9  C    0.489088
    10  S   -0.589195
    11  C    0.372370
    12  C   -0.254385
    13  C    0.430751
    14  H    0.136771
    15  S   -0.400964
    16  C   -0.164357
    17  C   -0.103544
    18  H    0.167414
    19  H    0.135721
    20  H    0.144687
    21  H    0.167059
    22  H    0.163373
 Sum of Mulliken charges =  -0.00000

 Dipole moment (field-independent basis, Debye):
    X=             -0.2918    Y=              0.8730    Z=              0.2231  Tot=              0.9471
 Quadrupole moment (field-independent basis, Debye-Ang):
   XX=            -88.2458   YY=            -98.3603   ZZ=           -108.6203
   XY=             -5.0365   XZ=              0.7943   YZ=             -0.7103

 Normal termination of Gaussian 16 at Sun Oct 17 01:22:44 2021.
