 Gaussian 16, Revision C.01,
 Gaussian 16:  ES64L-G16RevC.01  3-Jul-2019

 -------------------------------------
 # opt=modredundant b3lyp/6-311+g(d,p)
 -------------------------------------

 ------------
 pBTTT_85.pdb
 ------------
 Symbolic Z-matrix:
 Charge =  0 Multiplicity = 1

 SCF Done:  E(RB3LYP) =  -1618.67434898     A.U. after   17 cycles
 SCF Done:  E(RB3LYP) =  -1618.70443611     A.U. after   16 cycles
 SCF Done:  E(RB3LYP) =  -1618.71271263     A.U. after   16 cycles
 SCF Done:  E(RB3LYP) =  -1618.71466819     A.U. after   16 cycles
 SCF Done:  E(RB3LYP) =  -1618.71485340     A.U. after   14 cycles
 SCF Done:  E(RB3LYP) =  -1618.71539549     A.U. after   13 cycles
 SCF Done:  E(RB3LYP) =  -1618.71539842     A.U. after   13 cycles
 SCF Done:  E(RB3LYP) =  -1618.71542537     A.U. after   13 cycles
 SCF Done:  E(RB3LYP) =  -1618.71542739     A.U. after   12 cycles
 SCF Done:  E(RB3LYP) =  -1618.71542876     A.U. after   11 cycles
 SCF Done:  E(RB3LYP) =  -1618.70672009     A.U. after   17 cycles
 SCF Done:  E(RB3LYP) =  -1618.71555460     A.U. after   14 cycles
 SCF Done:  E(RB3LYP) =  -1618.71262661     A.U. after   16 cycles
 SCF Done:  E(RB3LYP) =  -1618.71572572     A.U. after   13 cycles
 SCF Done:  E(RB3LYP) =  -1618.71579201     A.U. after   16 cycles
 SCF Done:  E(RB3LYP) =  -1618.71624397     A.U. after   14 cycles
 SCF Done:  E(RB3LYP) =  -1618.71629602     A.U. after   13 cycles
 SCF Done:  E(RB3LYP) =  -1618.71630036     A.U. after   12 cycles
 SCF Done:  E(RB3LYP) =  -1618.71630152     A.U. after   12 cycles
 SCF Done:  E(RB3LYP) =  -1618.71630163     A.U. after   10 cycles
 Optimization completed.
    -- Stationary point found.

                         Standard orientation:
 ---------------------------------------------------------------------
 Center     Atomic      Atomic             Coordinates (Angstroms)
 Number     Number       Type             X           Y           Z
 ---------------------------------------------------------------------
      1          6           0        3.995201    0.416496    0.438116
      2          6           0        2.631939    0.834852    0.564576
      3          6           0        1.755677   -0.093337    0.049651
      4          6           0        2.225671    2.138015    1.195246
      5          6           0        4.139985   -0.799908   -0.161630
      6          1           0        4.832024    1.007474    0.789420
      7         16           0        2.613056   -1.482510   -0.596727
      8          1           0        5.052460   -1.338041   -0.369592
      9          6           0        0.292958   -0.041114   -0.004239
     10         16           0       -0.518675    0.795602   -1.339771
     11          6           0       -2.082946    0.390674   -0.691551
     12          6           0       -1.952289   -0.350686    0.475990
     13          6           0       -0.607690   -0.599255    0.864793
     14          1           0       -0.303173   -1.157097    1.739695
     15         16           0       -3.518462   -0.752848    1.129180
     16          6           0       -4.307730    0.087580   -0.185488
     17          6           0       -3.432293    0.644538   -1.072244
     18          1           0       -5.386279    0.113776   -0.217843
     19          1           0       -3.738864    1.201296   -1.946760
     20          1           0        2.645858    2.230975    2.201364
     21          1           0        1.141149    2.222535    1.271335
     22          1           0        2.591228    2.988046    0.610167
 ---------------------------------------------------------------------

 The electronic state is 1-A.
 Alpha  occ. eigenvalues --  -88.88473 -88.88224 -88.87871 -10.22150 -10.21174
 Alpha  occ. eigenvalues --  -10.21168 -10.21101 -10.21097 -10.20453 -10.19397
 Alpha  occ. eigenvalues --  -10.19371 -10.19252 -10.17997 -10.17355  -7.97047
 Alpha  occ. eigenvalues --   -7.96793  -7.96482  -5.93359  -5.93108  -5.92994
 Alpha  occ. eigenvalues --   -5.92771  -5.92744  -5.92597  -5.92396  -5.92332
 Alpha  occ. eigenvalues --   -5.92078  -0.91628  -0.89095  -0.84898  -0.77542
 Alpha  occ. eigenvalues --   -0.77132  -0.75524  -0.71417  -0.70531  -0.67864
 Alpha  occ. eigenvalues --   -0.61297  -0.57523  -0.56676  -0.54175  -0.52072
 Alpha  occ. eigenvalues --   -0.49917  -0.49677  -0.44555  -0.43675  -0.43568
 Alpha  occ. eigenvalues --   -0.42124  -0.41426  -0.39914  -0.39471  -0.38996
 Alpha  occ. eigenvalues --   -0.37660  -0.37307  -0.36553  -0.34898  -0.34260
 Alpha  occ. eigenvalues --   -0.33631  -0.29074  -0.25396  -0.24217  -0.23871
 Alpha  occ. eigenvalues --   -0.22558
 Alpha virt. eigenvalues --   -0.04608  -0.03107  -0.00559  -0.00326   0.00020
 Alpha virt. eigenvalues --    0.00497   0.00772   0.01647   0.01802   0.02607
 Alpha virt. eigenvalues --    0.03106   0.03114   0.03599   0.04031   0.04456

 Mulliken charges:
               1
     1  C   -0.046796
     2  C   -0.245209
     3  C    0.187601
     4  C   -0.619174
     5  C   -0.117006
     6  H    0.127096
     7  S   -0.219320
     8  H    0.160013
     9  C    0.412801
    10  S   -0.555725
    11  C    0.157381
    12  C   -0.571795
    13  C    0.560824
    14  H    0.137355
    15  S   -0.384374
    16  C   -0.227680
    17  C    0.458555
    18  H    0.167513
    19  H    0.135585
    20  H    0.153094
    21  H    0.168226
    22  H    0.161034
 Sum of Mulliken charges =  -0.00000

 Dipole moment (field-independent basis, Debye):
    X=              0.2457    Y=              0.8174    Z=              0.4797  Tot=              0.9791
 Quadrupole moment (field-independent basis, Debye-Ang):
   XX=            -88.2477   YY=           -103.4337   ZZ=           -103.4975
   XY=             -0.5500   XZ=              4.0019   YZ=             -1.0361

 Normal termination of Gaussian 16 at Sun Oct 17 01:36:27 2021.
