 Gaussian 16, Revision C.01,
 Gaussian 16:  ES64L-G16RevC.01  3-Jul-2019

 -------------------------------------
 # opt=modredundant b3lyp/6-311+g(d,p)
 -------------------------------------

 -----------
 pBTTT_0.pdb
 -----------
 Symbolic Z-matrix:
 Charge =  0 Multiplicity = 1

 SCF Done:  E(RB3LYP) =  -1618.67802304     A.U. after   17 cycles
 SCF Done:  E(RB3LYP) =  -1618.70631077     A.U. after   15 cycles
 SCF Done:  E(RB3LYP) =  -1618.71358101     A.U. after   14 cycles
 SCF Done:  E(RB3LYP) =  -1618.71541602     A.U. after   13 cycles
 SCF Done:  E(RB3LYP) =  -1618.71579645     A.U. after   12 cycles
 SCF Done:  E(RB3LYP) =  -1618.71603317     A.U. after   12 cycles
 SCF Done:  E(RB3LYP) =  -1618.71610806     A.U. after   11 cycles
 SCF Done:  E(RB3LYP) =  -1618.71610759     A.U. after   10 cycles
 SCF Done:  E(RB3LYP) =  -1618.71610824     A.U. after   10 cycles
 SCF Done:  E(RB3LYP) =  -1618.71611108     A.U. after   10 cycles
 SCF Done:  E(RB3LYP) =  -1618.71611143     A.U. after    8 cycles
 SCF Done:  E(RB3LYP) =  -1618.71611169     A.U. after    8 cycles
 SCF Done:  E(RB3LYP) =  -1618.71611181     A.U. after    8 cycles
 SCF Done:  E(RB3LYP) =  -1618.71611184     A.U. after    7 cycles
 Optimization completed.
    -- Stationary point found.

                         Standard orientation:
 ---------------------------------------------------------------------
 Center     Atomic      Atomic             Coordinates (Angstroms)
 Number     Number       Type             X           Y           Z
 ---------------------------------------------------------------------
      1          6           0       -4.043437    0.271770   -0.000025
      2          6           0       -2.733144    0.841954   -0.000007
      3          6           0       -1.741198   -0.126318   -0.000039
      4          6           0       -2.521850    2.332674    0.000042
      5          6           0       -4.057271   -1.090575   -0.000033
      6          1           0       -4.943485    0.873589   -0.000045
      7         16           0       -2.454719   -1.736341   -0.000003
      8          1           0       -4.906327   -1.756489   -0.000076
      9          6           0       -0.294540   -0.015303    0.000048
     10         16           0        0.531478    1.559446   -0.000001
     11          6           0        2.092457    0.790127   -0.000039
     12          6           0        1.957867   -0.591450    0.000031
     13          6           0        0.618165   -1.049182    0.000103
     14          1           0        0.329744   -2.091241    0.000095
     15         16           0        3.523344   -1.360677   -0.000016
     16          6           0        4.315693    0.199857   -0.000003
     17          6           0        3.439986    1.247658   -0.000030
     18          1           0        5.394171    0.240036    0.000047
     19          1           0        3.747369    2.284163   -0.000130
     20          1           0       -3.484464    2.847175   -0.000086
     21          1           0       -1.967402    2.668345   -0.881440
     22          1           0       -1.967635    2.668314    0.881679
 ---------------------------------------------------------------------

 The electronic state is 1-A.
 Alpha  occ. eigenvalues --  -88.88440 -88.88381 -88.88069 -10.22712 -10.21889
 Alpha  occ. eigenvalues --  -10.21160 -10.21031 -10.20970 -10.20583 -10.19481
 Alpha  occ. eigenvalues --  -10.19346 -10.19109 -10.18218 -10.17781  -7.97015
 Alpha  occ. eigenvalues --   -7.96955  -7.96704  -5.93340  -5.93269  -5.93007
 Alpha  occ. eigenvalues --   -5.92973  -5.92904  -5.92625  -5.92535  -5.92501
 Alpha  occ. eigenvalues --   -5.92277  -0.91710  -0.89329  -0.84933  -0.77991
 Alpha  occ. eigenvalues --   -0.77276  -0.75810  -0.71420  -0.70489  -0.68317
 Alpha  occ. eigenvalues --   -0.61555  -0.58066  -0.57023  -0.53354  -0.52441
 Alpha  occ. eigenvalues --   -0.50266  -0.49799  -0.44554  -0.43964  -0.43760
 Alpha  occ. eigenvalues --   -0.42023  -0.41685  -0.40305  -0.39534  -0.38751
 Alpha  occ. eigenvalues --   -0.38193  -0.38080  -0.36682  -0.34704  -0.34504
 Alpha  occ. eigenvalues --   -0.33727  -0.29377  -0.26758  -0.25600  -0.23830
 Alpha  occ. eigenvalues --   -0.20330
 Alpha virt. eigenvalues --   -0.06305  -0.01555  -0.00583  -0.00351   0.00237
 Alpha virt. eigenvalues --    0.00445   0.01475   0.01591   0.02074   0.02513
 Alpha virt. eigenvalues --    0.03076   0.03200   0.03718   0.04574   0.04805

 Mulliken charges:
               1
     1  C    0.050409
     2  C    0.245754
     3  C    0.673403
     4  C   -0.962061
     5  C   -0.188880
     6  H    0.119985
     7  S   -0.632281
     8  H    0.160210
     9  C    0.434079
    10  S   -0.699320
    11  C    0.190524
    12  C    0.172549
    13  C    0.153579
    14  H    0.137464
    15  S   -0.397532
    16  C   -0.148590
    17  C   -0.099223
    18  H    0.166928
    19  H    0.132999
    20  H    0.144889
    21  H    0.172548
    22  H    0.172566
 Sum of Mulliken charges =  -0.00000

 Dipole moment (field-independent basis, Debye):
    X=             -0.5416    Y=              0.9414    Z=             -0.0000  Tot=              1.0861
 Quadrupole moment (field-independent basis, Debye-Ang):
   XX=            -87.6986   YY=            -97.2043   ZZ=           -110.0278
   XY=              1.8530   XZ=             -0.0000   YZ=             -0.0002

 Normal termination of Gaussian 16 at Sun Oct 17 00:42:29 2021.
