 Gaussian 16, Revision C.01,
 Gaussian 16:  ES64L-G16RevC.01  3-Jul-2019

 -------------------------------------
 # opt=modredundant b3lyp/6-311+g(d,p)
 -------------------------------------

 --------------
 pBTTT_-115.pdb
 --------------
 Symbolic Z-matrix:
 Charge =  0 Multiplicity = 1

 SCF Done:  E(RB3LYP) =  -1618.67441711     A.U. after   17 cycles
 SCF Done:  E(RB3LYP) =  -1618.70442374     A.U. after   15 cycles
 SCF Done:  E(RB3LYP) =  -1618.71295554     A.U. after   14 cycles
 SCF Done:  E(RB3LYP) =  -1618.71476418     A.U. after   15 cycles
 SCF Done:  E(RB3LYP) =  -1618.71515821     A.U. after   14 cycles
 SCF Done:  E(RB3LYP) =  -1618.71573220     A.U. after   13 cycles
 SCF Done:  E(RB3LYP) =  -1618.71567718     A.U. after   14 cycles
 SCF Done:  E(RB3LYP) =  -1618.71586419     A.U. after   13 cycles
 SCF Done:  E(RB3LYP) =  -1618.71591648     A.U. after   12 cycles
 SCF Done:  E(RB3LYP) =  -1618.71582826     A.U. after   14 cycles
 SCF Done:  E(RB3LYP) =  -1618.71640155     A.U. after   15 cycles
 SCF Done:  E(RB3LYP) =  -1618.71667358     A.U. after   13 cycles
 SCF Done:  E(RB3LYP) =  -1618.71662887     A.U. after   14 cycles
 SCF Done:  E(RB3LYP) =  -1618.71686621     A.U. after   13 cycles
 SCF Done:  E(RB3LYP) =  -1618.71686914     A.U. after   12 cycles
 SCF Done:  E(RB3LYP) =  -1618.71687846     A.U. after   11 cycles
 SCF Done:  E(RB3LYP) =  -1618.71687938     A.U. after   10 cycles
 SCF Done:  E(RB3LYP) =  -1618.71687965     A.U. after   11 cycles
 SCF Done:  E(RB3LYP) =  -1618.71687972     A.U. after    9 cycles
 Optimization completed.
    -- Stationary point found.

                         Standard orientation:
 ---------------------------------------------------------------------
 Center     Atomic      Atomic             Coordinates (Angstroms)
 Number     Number       Type             X           Y           Z
 ---------------------------------------------------------------------
      1          6           0        3.957651    0.728910    0.188985
      2          6           0        2.572459    1.019033    0.402389
      3          6           0        1.753907    0.028510   -0.096447
      4          6           0        2.096516    2.258030    1.109490
      5          6           0        4.177945   -0.459216   -0.443130
      6          1           0        4.756483    1.385237    0.511530
      7         16           0        2.696524   -1.267838   -0.815358
      8          1           0        5.121603   -0.909112   -0.712012
      9          6           0        0.296454   -0.048844   -0.064321
     10         16           0       -0.511834   -1.326659    0.861562
     11          6           0       -2.077608   -0.696554    0.433411
     12          6           0       -1.950132    0.437164   -0.359023
     13          6           0       -0.607281    0.804247   -0.644773
     14          1           0       -0.306804    1.640436   -1.260803
     15         16           0       -3.518426    1.067325   -0.788870
     16          6           0       -4.303938   -0.211503    0.109034
     17          6           0       -3.425335   -1.071686    0.701761
     18          1           0       -5.382326   -0.243432    0.140456
     19          1           0       -3.729040   -1.922083    1.296198
     20          1           0        2.663225    2.417653    2.031301
     21          1           0        1.038746    2.189447    1.365535
     22          1           0        2.234052    3.148064    0.486184
 ---------------------------------------------------------------------

 The electronic state is 1-A.
 Alpha  occ. eigenvalues --  -88.88471 -88.88254 -88.87918 -10.22228 -10.21304
 Alpha  occ. eigenvalues --  -10.21166 -10.21110 -10.21078 -10.20489 -10.19365
 Alpha  occ. eigenvalues --  -10.19362 -10.19307 -10.18056 -10.17431  -7.97045
 Alpha  occ. eigenvalues --   -7.96824  -7.96533  -5.93357  -5.93140  -5.92993
 Alpha  occ. eigenvalues --   -5.92824  -5.92778  -5.92595  -5.92448  -5.92360
 Alpha  occ. eigenvalues --   -5.92127  -0.91650  -0.89150  -0.84914  -0.77739
 Alpha  occ. eigenvalues --   -0.76993  -0.75645  -0.71430  -0.70546  -0.67934
 Alpha  occ. eigenvalues --   -0.61355  -0.57471  -0.56829  -0.54261  -0.52038
 Alpha  occ. eigenvalues --   -0.49950  -0.49697  -0.44597  -0.43705  -0.43586
 Alpha  occ. eigenvalues --   -0.42077  -0.41450  -0.39961  -0.39561  -0.39027
 Alpha  occ. eigenvalues --   -0.37701  -0.37442  -0.36514  -0.34913  -0.34276
 Alpha  occ. eigenvalues --   -0.33765  -0.29100  -0.25497  -0.25064  -0.23733
 Alpha  occ. eigenvalues --   -0.21895
 Alpha virt. eigenvalues --   -0.05053  -0.02711  -0.00555  -0.00305   0.00211
 Alpha virt. eigenvalues --    0.00588   0.00731   0.01581   0.01850   0.02775
 Alpha virt. eigenvalues --    0.02872   0.03204   0.03731   0.03908   0.04429

 Mulliken charges:
               1
     1  C   -0.140666
     2  C    0.083621
     3  C    0.178817
     4  C   -0.736552
     5  C   -0.031788
     6  H    0.127408
     7  S   -0.288613
     8  H    0.160357
     9  C    0.212586
    10  S   -0.592165
    11  C    0.157267
    12  C   -0.446555
    13  C    0.611117
    14  H    0.131212
    15  S   -0.393325
    16  C   -0.217497
    17  C    0.401786
    18  H    0.167640
    19  H    0.135515
    20  H    0.148541
    21  H    0.169955
    22  H    0.161339
 Sum of Mulliken charges =  -0.00000

 Dipole moment (field-independent basis, Debye):
    X=              0.2393    Y=              0.8578    Z=              0.4578  Tot=              1.0013
 Quadrupole moment (field-independent basis, Debye-Ang):
   XX=            -88.4073   YY=           -100.7065   ZZ=           -106.2012
   XY=              4.4505   XZ=             -1.3809   YZ=             -1.1795

 Normal termination of Gaussian 16 at Sat Oct 16 23:33:39 2021.
