 Gaussian 16, Revision C.01,
 Gaussian 16:  ES64L-G16RevC.01  3-Jul-2019

 -------------------------------------
 # opt=modredundant b3lyp/6-311+g(d,p)
 -------------------------------------

 ------------
 pBTTT_90.pdb
 ------------
 Symbolic Z-matrix:
 Charge =  0 Multiplicity = 1

 SCF Done:  E(RB3LYP) =  -1618.67437281     A.U. after   17 cycles
 SCF Done:  E(RB3LYP) =  -1618.70442820     A.U. after   16 cycles
 SCF Done:  E(RB3LYP) =  -1618.71267571     A.U. after   16 cycles
 SCF Done:  E(RB3LYP) =  -1618.71462774     A.U. after   16 cycles
 SCF Done:  E(RB3LYP) =  -1618.71478763     A.U. after   14 cycles
 SCF Done:  E(RB3LYP) =  -1618.71532276     A.U. after   13 cycles
 SCF Done:  E(RB3LYP) =  -1618.71529965     A.U. after   13 cycles
 SCF Done:  E(RB3LYP) =  -1618.71532996     A.U. after   12 cycles
 SCF Done:  E(RB3LYP) =  -1618.71536005     A.U. after   12 cycles
 SCF Done:  E(RB3LYP) =  -1618.71536238     A.U. after   11 cycles
 SCF Done:  E(RB3LYP) =  -1618.71346535     A.U. after   16 cycles
 SCF Done:  E(RB3LYP) =  -1618.71558152     A.U. after   14 cycles
 SCF Done:  E(RB3LYP) =  -1618.68248502     A.U. after   16 cycles
 SCF Done:  E(RB3LYP) =  -1618.71593589     A.U. after   14 cycles
 SCF Done:  E(RB3LYP) =  -1618.71594799     A.U. after   14 cycles
 SCF Done:  E(RB3LYP) =  -1618.71616904     A.U. after   14 cycles
 SCF Done:  E(RB3LYP) =  -1618.71622232     A.U. after   13 cycles
 SCF Done:  E(RB3LYP) =  -1618.71625060     A.U. after   12 cycles
 SCF Done:  E(RB3LYP) =  -1618.71625484     A.U. after   12 cycles
 SCF Done:  E(RB3LYP) =  -1618.71625529     A.U. after   10 cycles
 Optimization completed.
    -- Stationary point found.

                         Standard orientation:
 ---------------------------------------------------------------------
 Center     Atomic      Atomic             Coordinates (Angstroms)
 Number     Number       Type             X           Y           Z
 ---------------------------------------------------------------------
      1          6           0       -3.986347    0.611600   -0.192651
      2          6           0       -2.616529    1.019897   -0.111635
      3          6           0       -1.756262   -0.054366   -0.092717
      4          6           0       -2.188173    2.460060   -0.054193
      5          6           0       -4.151630   -0.741784   -0.228318
      6          1           0       -4.812847    1.310782   -0.223809
      7         16           0       -2.636985   -1.571725   -0.166166
      8          1           0       -5.072907   -1.300977   -0.291604
      9          6           0       -0.293444   -0.051768   -0.017553
     10         16           0        0.517154   -0.086044    1.558579
     11          6           0        2.081809   -0.061655    0.795546
     12          6           0        1.952139   -0.032238   -0.587261
     13          6           0        0.607762   -0.029481   -1.049569
     14          1           0        0.303591   -0.012398   -2.087142
     15         16           0        3.518893   -0.003164   -1.352655
     16          6           0        4.307040   -0.031310    0.208020
     17          6           0        3.430843   -0.060771    1.254136
     18          1           0        5.385552   -0.025296    0.250328
     19          1           0        3.736640   -0.081796    2.290859
     20          1           0       -2.585057    2.950871    0.840121
     21          1           0       -2.561535    3.013295   -0.921557
     22          1           0       -1.101681    2.551325   -0.036149
 ---------------------------------------------------------------------

 The electronic state is 1-A.
 Alpha  occ. eigenvalues --  -88.88476 -88.88223 -88.87865 -10.22145 -10.21172
 Alpha  occ. eigenvalues --  -10.21169 -10.21103 -10.21099 -10.20459 -10.19401
 Alpha  occ. eigenvalues --  -10.19372 -10.19259 -10.17996 -10.17354  -7.97050
 Alpha  occ. eigenvalues --   -7.96792  -7.96476  -5.93362  -5.93106  -5.92997
 Alpha  occ. eigenvalues --   -5.92765  -5.92742  -5.92600  -5.92390  -5.92331
 Alpha  occ. eigenvalues --   -5.92072  -0.91628  -0.89092  -0.84898  -0.77564
 Alpha  occ. eigenvalues --   -0.77104  -0.75525  -0.71417  -0.70535  -0.67861
 Alpha  occ. eigenvalues --   -0.61296  -0.57507  -0.56669  -0.54216  -0.52059
 Alpha  occ. eigenvalues --   -0.49914  -0.49678  -0.44564  -0.43650  -0.43587
 Alpha  occ. eigenvalues --   -0.42124  -0.41425  -0.39912  -0.39475  -0.38997
 Alpha  occ. eigenvalues --   -0.37657  -0.37311  -0.36539  -0.34898  -0.34264
 Alpha  occ. eigenvalues --   -0.33628  -0.29075  -0.25389  -0.24178  -0.23858
 Alpha  occ. eigenvalues --   -0.22615
 Alpha virt. eigenvalues --   -0.04564  -0.03166  -0.00552  -0.00311   0.00052
 Alpha virt. eigenvalues --    0.00500   0.00756   0.01675   0.01766   0.02651
 Alpha virt. eigenvalues --    0.03034   0.03131   0.03580   0.03990   0.04481

 Mulliken charges:
               1
     1  C   -0.028961
     2  C   -0.230020
     3  C    0.262610
     4  C   -0.652050
     5  C   -0.115255
     6  H    0.127104
     7  S   -0.226311
     8  H    0.159946
     9  C    0.330365
    10  S   -0.552792
    11  C    0.140772
    12  C   -0.566017
    13  C    0.565915
    14  H    0.136291
    15  S   -0.388270
    16  C   -0.228706
    17  C    0.477977
    18  H    0.167485
    19  H    0.135632
    20  H    0.159249
    21  H    0.154303
    22  H    0.170732
 Sum of Mulliken charges =  -0.00000

 Dipole moment (field-independent basis, Debye):
    X=             -0.2326    Y=              0.9630    Z=             -0.0326  Tot=              0.9912
 Quadrupole moment (field-independent basis, Debye-Ang):
   XX=            -88.2940   YY=           -104.3491   ZZ=           -102.5805
   XY=             -1.7492   XZ=              3.7772   YZ=             -0.0987

 Normal termination of Gaussian 16 at Sun Oct 17 01:38:14 2021.
