 Gaussian 16, Revision C.01,
 Gaussian 16:  ES64L-G16RevC.01  3-Jul-2019

 -------------------------------------
 # opt=modredundant b3lyp/6-311+g(d,p)
 -------------------------------------

 -------------
 pBTTT_160.pdb
 -------------
 Symbolic Z-matrix:
 Charge =  0 Multiplicity = 1

 SCF Done:  E(RB3LYP) =  -1618.67748192     A.U. after   17 cycles
 SCF Done:  E(RB3LYP) =  -1618.70591089     A.U. after   15 cycles
 SCF Done:  E(RB3LYP) =  -1618.71350646     A.U. after   15 cycles
 SCF Done:  E(RB3LYP) =  -1618.71550626     A.U. after   13 cycles
 SCF Done:  E(RB3LYP) =  -1618.71595077     A.U. after   12 cycles
 SCF Done:  E(RB3LYP) =  -1618.71626508     A.U. after   12 cycles
 SCF Done:  E(RB3LYP) =  -1618.71635894     A.U. after   12 cycles
 SCF Done:  E(RB3LYP) =  -1618.71637367     A.U. after   12 cycles
 SCF Done:  E(RB3LYP) =  -1618.71640710     A.U. after   11 cycles
 SCF Done:  E(RB3LYP) =  -1618.71642233     A.U. after   11 cycles
 SCF Done:  E(RB3LYP) =  -1618.71642727     A.U. after   10 cycles
 SCF Done:  E(RB3LYP) =  -1618.71642880     A.U. after   10 cycles
 SCF Done:  E(RB3LYP) =  -1618.71642912     A.U. after    9 cycles
 Optimization completed.
    -- Stationary point found.

                         Standard orientation:
 ---------------------------------------------------------------------
 Center     Atomic      Atomic             Coordinates (Angstroms)
 Number     Number       Type             X           Y           Z
 ---------------------------------------------------------------------
      1          6           0       -3.960095    0.786861    0.016282
      2          6           0       -2.583138    1.138594    0.154403
      3          6           0       -1.748428    0.042441    0.009387
      4          6           0       -2.141559    2.543466    0.460826
      5          6           0       -4.172295   -0.537502   -0.231488
      6          1           0       -4.763080    1.506990    0.112724
      7         16           0       -2.683921   -1.409213   -0.320499
      8          1           0       -5.109478   -1.055774   -0.363493
      9          6           0       -0.298872   -0.018507    0.034613
     10         16           0        0.517655   -1.562991    0.354265
     11          6           0        2.082512   -0.824090    0.161236
     12          6           0        1.952066    0.529342   -0.117614
     13          6           0        0.612078    0.988709   -0.198544
     14          1           0        0.329693    1.997984   -0.454254
     15         16           0        3.519521    1.270534   -0.308267
     16          6           0        4.306967   -0.261951   -0.005771
     17          6           0        3.428410   -1.281257    0.227141
     18          1           0        5.385070   -0.309245   -0.020213
     19          1           0        3.732600   -2.298074    0.432794
     20          1           0       -2.965664    3.114400    0.893658
     21          1           0       -1.817401    3.074974   -0.441207
     22          1           0       -1.309691    2.558826    1.169176
 ---------------------------------------------------------------------

 The electronic state is 1-A.
 Alpha  occ. eigenvalues --  -88.88463 -88.88280 -88.88095 -10.22628 -10.21732
 Alpha  occ. eigenvalues --  -10.21187 -10.21120 -10.21045 -10.20525 -10.19390
 Alpha  occ. eigenvalues --  -10.19374 -10.19289 -10.18207 -10.17891  -7.97038
 Alpha  occ. eigenvalues --   -7.96867  -7.96723  -5.93350  -5.93191  -5.93020
 Alpha  occ. eigenvalues --   -5.92986  -5.92828  -5.92641  -5.92586  -5.92384
 Alpha  occ. eigenvalues --   -5.92305  -0.91730  -0.89327  -0.84955  -0.78125
 Alpha  occ. eigenvalues --   -0.76936  -0.75951  -0.71448  -0.70574  -0.68271
 Alpha  occ. eigenvalues --   -0.61531  -0.57542  -0.57329  -0.54105  -0.52191
 Alpha  occ. eigenvalues --   -0.50091  -0.49782  -0.44601  -0.43899  -0.43765
 Alpha  occ. eigenvalues --   -0.41977  -0.41680  -0.40321  -0.39755  -0.38900
 Alpha  occ. eigenvalues --   -0.38046  -0.37921  -0.36398  -0.35128  -0.34355
 Alpha  occ. eigenvalues --   -0.33816  -0.29298  -0.26601  -0.25538  -0.23779
 Alpha  occ. eigenvalues --   -0.20633
 Alpha virt. eigenvalues --   -0.06169  -0.01865  -0.00976  -0.00487   0.00318
 Alpha virt. eigenvalues --    0.00741   0.01166   0.01482   0.02083   0.02740
 Alpha virt. eigenvalues --    0.03125   0.03470   0.03813   0.04316   0.04680

 Mulliken charges:
               1
     1  C    0.084008
     2  C    0.488713
     3  C    0.462647
     4  C   -1.098623
     5  C   -0.070579
     6  H    0.121861
     7  S   -0.518626
     8  H    0.159265
     9  C    0.277974
    10  S   -0.531765
    11  C    0.441886
    12  C    0.176572
    13  C   -0.080035
    14  H    0.136840
    15  S   -0.407441
    16  C   -0.110687
    17  C   -0.308347
    18  H    0.167143
    19  H    0.135469
    20  H    0.145969
    21  H    0.167077
    22  H    0.160681
 Sum of Mulliken charges =  -0.00000

 Dipole moment (field-independent basis, Debye):
    X=             -0.3265    Y=              0.8858    Z=              0.0898  Tot=              0.9483
 Quadrupole moment (field-independent basis, Debye-Ang):
   XX=            -88.0986   YY=            -97.5713   ZZ=           -109.4337
   XY=             -5.2265   XZ=              0.5304   YZ=             -0.3730

 Normal termination of Gaussian 16 at Sun Oct 17 01:29:30 2021.
