 Gaussian 16, Revision C.01,
 Gaussian 16:  ES64L-G16RevC.01  3-Jul-2019

 -------------------------------------
 # opt=modredundant b3lyp/6-311+g(d,p)
 -------------------------------------

 ----------
 NDI_60.pdb
 ----------
 Symbolic Z-matrix:
 Charge =  0 Multiplicity = 1

 SCF Done:  E(RB3LYP) =  -2202.04347900     A.U. after   17 cycles
 SCF Done:  E(RB3LYP) =  -2202.07077379     A.U. after   14 cycles
 SCF Done:  E(RB3LYP) =  -2202.07838385     A.U. after   13 cycles
 SCF Done:  E(RB3LYP) =  -2202.08158105     A.U. after   14 cycles
 SCF Done:  E(RB3LYP) =  -2202.08186269     A.U. after   14 cycles
 SCF Done:  E(RB3LYP) =  -2202.08230144     A.U. after   13 cycles
 SCF Done:  E(RB3LYP) =  -2202.08243559     A.U. after   13 cycles
 SCF Done:  E(RB3LYP) =  -2202.08253316     A.U. after   13 cycles
 SCF Done:  E(RB3LYP) =  -2202.08258994     A.U. after   13 cycles
 SCF Done:  E(RB3LYP) =  -2202.08266629     A.U. after   13 cycles
 SCF Done:  E(RB3LYP) =  -2202.08287878     A.U. after   12 cycles
 SCF Done:  E(RB3LYP) =  -2202.08288034     A.U. after   12 cycles
 SCF Done:  E(RB3LYP) =  -2202.08288170     A.U. after   12 cycles
 SCF Done:  E(RB3LYP) =  -2202.08288244     A.U. after   10 cycles
 SCF Done:  E(RB3LYP) =  -2202.08288291     A.U. after   11 cycles
 SCF Done:  E(RB3LYP) =  -2202.08288313     A.U. after   10 cycles
 SCF Done:  E(RB3LYP) =  -2202.08288330     A.U. after   10 cycles
 SCF Done:  E(RB3LYP) =  -2202.08288344     A.U. after   10 cycles
 SCF Done:  E(RB3LYP) =  -2202.08288355     A.U. after   10 cycles
 SCF Done:  E(RB3LYP) =  -2202.08288362     A.U. after    9 cycles
 Optimization completed.
    -- Stationary point found.

                         Standard orientation:
 ---------------------------------------------------------------------
 Center     Atomic      Atomic             Coordinates (Angstroms)
 Number     Number       Type             X           Y           Z
 ---------------------------------------------------------------------
      1          6           0        2.570482   -3.015106   -0.475248
      2          6           0        2.227833   -1.576053   -0.304178
      3          6           0        3.249997   -0.617811   -0.085671
      4          6           0        4.610546   -1.003183   -0.010349
      5          6           0        4.990477   -2.430846   -0.184524
      6          6           0        0.913994   -1.187195   -0.365955
      7          6           0        2.881210    0.748878    0.074251
      8          6           0        1.507364    1.141896   -0.017545
      9          6           0        0.511468    0.173729   -0.256646
     10          6           0        1.180800    2.582162    0.181647
     11          6           0        3.605667    3.108443    0.579525
     12          6           0        3.921988    1.680088    0.346276
     13          6           0        5.244777    1.277145    0.420517
     14          6           0        5.596488   -0.064251    0.234698
     15          1           0        6.628346   -0.387485    0.288720
     16          1           0        5.996893    2.027107    0.631940
     17          1           0        0.164941   -1.947883   -0.544108
     18          7           0        2.255730    3.411862    0.510923
     19          7           0        3.929490   -3.308195   -0.400672
     20          8           0        1.752913   -3.891709   -0.666839
     21          8           0        6.133833   -2.838009   -0.145674
     22          8           0        4.433526    3.966682    0.818396
     23          8           0        0.074652    3.077516    0.087238
     24          6           0       -0.932343    0.422590   -0.354679
     25          6           0       -1.631985    1.220703   -1.226450
     26         16           0       -2.027109   -0.609391    0.546644
     27          6           0       -3.027443    1.040993   -1.148522
     28          1           0       -1.160577    1.925327   -1.897230
     29          6           0       -3.438496    0.091842   -0.223729
     30          8           0       -3.944581    1.715124   -1.907552
     31          6           0       -4.783606   -0.273086    0.135800
     32          6           0       -5.191036   -1.250258    1.028295
     33         16           0       -6.203889    0.521916   -0.540958
     34          6           0       -6.599141   -1.365220    1.170868
     35          8           0       -4.272908   -2.009775    1.696494
     36          6           0       -7.269034   -0.472711    0.383799
     37          1           0       -7.082587   -2.078080    1.827517
     38          1           0       -8.336345   -0.344055    0.289867
     39          1           0       -4.716930   -2.685939    2.217704
     40          1           0       -3.544481    2.507833   -2.279263
     41          1           0        4.179671   -4.284066   -0.518316
     42          1           0        2.010974    4.386017    0.650854
 ---------------------------------------------------------------------

 The electronic state is 1-A.
 Alpha  occ. eigenvalues --  -88.88889 -88.88708 -19.17768 -19.17371 -19.13252
 Alpha  occ. eigenvalues --  -19.13236 -19.12742 -19.12692 -14.38644 -14.38203
 Alpha  occ. eigenvalues --  -10.31963 -10.31922 -10.31789 -10.31346 -10.25327
 Alpha  occ. eigenvalues --  -10.25090 -10.24605 -10.24027 -10.23661 -10.23651
 Alpha  occ. eigenvalues --  -10.23181 -10.23139 -10.22948 -10.22706 -10.22652
 Alpha  occ. eigenvalues --  -10.22218 -10.22158 -10.21998 -10.21941 -10.21477
 Alpha  occ. eigenvalues --  -10.19560 -10.19458  -7.97452  -7.97261  -5.93777
 Alpha  occ. eigenvalues --   -5.93577  -5.93384  -5.93184  -5.92987  -5.92820
 Alpha  occ. eigenvalues --   -1.09404  -1.09069  -1.08793  -1.08397  -1.07674
 Alpha  occ. eigenvalues --   -1.07235  -0.96642  -0.96124  -0.92923  -0.90803
 Alpha  occ. eigenvalues --   -0.89296  -0.87449  -0.84352  -0.80992  -0.79408
 Alpha  occ. eigenvalues --   -0.78004  -0.75112  -0.74395  -0.73141  -0.71689
 Alpha  occ. eigenvalues --   -0.71592  -0.68319  -0.67193  -0.65691  -0.63308
 Alpha  occ. eigenvalues --   -0.62048  -0.61910  -0.60820  -0.59025  -0.57474
 Alpha  occ. eigenvalues --   -0.56972  -0.55510  -0.54763  -0.52624  -0.52094
 Alpha  occ. eigenvalues --   -0.50992  -0.50820  -0.50633  -0.49492  -0.49067
 Alpha  occ. eigenvalues --   -0.48470  -0.48000  -0.47553  -0.46345  -0.46087
 Alpha  occ. eigenvalues --   -0.46035  -0.45335  -0.44881  -0.44565  -0.43922
 Alpha  occ. eigenvalues --   -0.43326  -0.43214  -0.42729  -0.42575  -0.42447
 Alpha  occ. eigenvalues --   -0.40713  -0.40228  -0.39607  -0.39194  -0.38438
 Alpha  occ. eigenvalues --   -0.36956  -0.36488  -0.35961  -0.35498  -0.34542
 Alpha  occ. eigenvalues --   -0.33222  -0.31993  -0.31495  -0.31231  -0.31069
 Alpha  occ. eigenvalues --   -0.30180  -0.29505  -0.29010  -0.28109  -0.27009
 Alpha  occ. eigenvalues --   -0.25292  -0.25246  -0.20300
 Alpha virt. eigenvalues --   -0.13897  -0.07974  -0.07189  -0.05455  -0.04563
 Alpha virt. eigenvalues --   -0.02327  -0.01273  -0.01170  -0.00794   0.00025
 Alpha virt. eigenvalues --    0.00250   0.00514   0.00645   0.01121   0.01768

 Mulliken charges:
               1
     1  C    0.455417
     2  C   -0.154047
     3  C    0.252859
     4  C    0.155874
     5  C    0.263485
     6  C   -0.425428
     7  C    0.214381
     8  C   -0.015438
     9  C    0.314130
    10  C    0.130077
    11  C    0.341352
    12  C    0.065353
    13  C   -0.401629
    14  C   -0.599669
    15  H    0.165775
    16  H    0.166977
    17  H    0.189326
    18  N   -0.419299
    19  N   -0.405128
    20  O   -0.279823
    21  O   -0.277252
    22  O   -0.287421
    23  O   -0.218342
    24  C    0.119369
    25  C   -0.457502
    26  S   -0.470771
    27  C   -0.542028
    28  H    0.121186
    29  C    0.614874
    30  O   -0.249105
    31  C    0.661275
    32  C    0.435594
    33  S   -0.282271
    34  C   -0.280441
    35  O   -0.237827
    36  C   -0.200386
    37  H    0.119057
    38  H    0.164006
    39  H    0.267659
    40  H    0.272839
    41  H    0.357428
    42  H    0.355514
 Sum of Mulliken charges =  -0.00000

 Dipole moment (field-independent basis, Debye):
    X=             -3.6810    Y=             -0.2996    Z=              0.1648  Tot=              3.6968
 Quadrupole moment (field-independent basis, Debye-Ang):
   XX=           -188.5155   YY=           -205.3746   ZZ=           -189.6824
   XY=              7.0830   XZ=             -9.5360   YZ=            -15.5629

 Normal termination of Gaussian 16 at Tue Nov 17 15:23:53 2020.
