 Gaussian 16, Revision C.01,
 Gaussian 16:  ES64L-G16RevC.01  3-Jul-2019

 -------------------------------------
 # opt=modredundant b3lyp/6-311+g(d,p)
 -------------------------------------

 -----------
 NDI_-50.pdb
 -----------
 Symbolic Z-matrix:
 Charge =  0 Multiplicity = 1

 SCF Done:  E(RB3LYP) =  -2202.04823678     A.U. after   17 cycles
 SCF Done:  E(RB3LYP) =  -2202.07430666     A.U. after   13 cycles
 SCF Done:  E(RB3LYP) =  -2202.08019677     A.U. after   14 cycles
 SCF Done:  E(RB3LYP) =  -2202.08311820     A.U. after   13 cycles
 SCF Done:  E(RB3LYP) =  -2202.08345024     A.U. after   13 cycles
 SCF Done:  E(RB3LYP) =  -2202.08358830     A.U. after   13 cycles
 SCF Done:  E(RB3LYP) =  -2202.08370294     A.U. after   12 cycles
 SCF Done:  E(RB3LYP) =  -2202.08372196     A.U. after   12 cycles
 SCF Done:  E(RB3LYP) =  -2202.08373605     A.U. after   11 cycles
 SCF Done:  E(RB3LYP) =  -2202.08374196     A.U. after   11 cycles
 SCF Done:  E(RB3LYP) =  -2202.08375210     A.U. after   11 cycles
 SCF Done:  E(RB3LYP) =  -2202.08375439     A.U. after   11 cycles
 SCF Done:  E(RB3LYP) =  -2202.08375667     A.U. after   11 cycles
 SCF Done:  E(RB3LYP) =  -2202.08375743     A.U. after   10 cycles
 SCF Done:  E(RB3LYP) =  -2202.08375766     A.U. after    9 cycles
 SCF Done:  E(RB3LYP) =  -2202.08375774     A.U. after    9 cycles
 SCF Done:  E(RB3LYP) =  -2202.08375781     A.U. after    9 cycles
 SCF Done:  E(RB3LYP) =  -2202.08375785     A.U. after    9 cycles
 SCF Done:  E(RB3LYP) =  -2202.08375788     A.U. after    9 cycles
 SCF Done:  E(RB3LYP) =  -2202.08375789     A.U. after    9 cycles
 Optimization completed.
    -- Stationary point found.

                         Standard orientation:
 ---------------------------------------------------------------------
 Center     Atomic      Atomic             Coordinates (Angstroms)
 Number     Number       Type             X           Y           Z
 ---------------------------------------------------------------------
      1          6           0        2.529594   -3.028960    0.407701
      2          6           0        2.208076   -1.583585    0.249188
      3          6           0        3.246349   -0.632046    0.080935
      4          6           0        4.604167   -1.030705    0.049660
      5          6           0        4.963402   -2.464736    0.214058
      6          6           0        0.898532   -1.182347    0.282500
      7          6           0        2.894062    0.739951   -0.073193
      8          6           0        1.520243    1.146752   -0.023829
      9          6           0        0.506752    0.183943    0.180663
     10          6           0        1.217522    2.586299   -0.257065
     11          6           0        3.665277    3.097004   -0.515608
     12          6           0        3.955316    1.662926   -0.290105
     13          6           0        5.276731    1.247880   -0.318458
     14          6           0        5.608977   -0.098759   -0.141990
     15          1           0        6.638844   -0.431889   -0.161866
     16          1           0        6.042783    1.994491   -0.487431
     17          1           0        0.141884   -1.940843    0.436053
     18          7           0        2.316795    3.410980   -0.509153
     19          7           0        3.886980   -3.335122    0.376070
     20          8           0        1.696729   -3.899906    0.555316
     21          8           0        6.103356   -2.883271    0.210428
     22          8           0        4.511004    3.951023   -0.702988
     23          8           0        0.110495    3.090938   -0.256052
     24          6           0       -0.931472    0.438215    0.287455
     25          6           0       -1.621070    1.342065    1.061918
     26         16           0       -2.047340   -0.672543   -0.492032
     27          6           0       -3.016248    1.168581    1.013909
     28          1           0       -1.141768    2.113825    1.646292
     29          6           0       -3.443830    0.124902    0.202813
     30          8           0       -3.922325    1.931731    1.696906
     31          6           0       -4.794736   -0.265874   -0.099190
     32          6           0       -5.218906   -1.331021   -0.876990
     33         16           0       -6.202132    0.607446    0.504551
     34          6           0       -6.629000   -1.450409   -0.989896
     35          8           0       -4.313460   -2.163939   -1.468910
     36          6           0       -7.283552   -0.473185   -0.295724
     37          1           0       -7.124927   -2.226160   -1.560211
     38          1           0       -8.348903   -0.327157   -0.204674
     39          1           0       -4.766837   -2.885685   -1.915773
     40          1           0       -3.508360    2.749819    1.990461
     41          1           0        4.123462   -4.315286    0.486028
     42          1           0        2.085435    4.385480   -0.667718
 ---------------------------------------------------------------------

 The electronic state is 1-A.
 Alpha  occ. eigenvalues --  -88.89018 -88.88897 -19.17964 -19.17536 -19.13169
 Alpha  occ. eigenvalues --  -19.13143 -19.12576 -19.12532 -14.38561 -14.38074
 Alpha  occ. eigenvalues --  -10.31879 -10.31825 -10.31678 -10.31177 -10.25562
 Alpha  occ. eigenvalues --  -10.25282 -10.24601 -10.23920 -10.23505 -10.23497
 Alpha  occ. eigenvalues --  -10.23057 -10.22998 -10.22988 -10.22780 -10.22768
 Alpha  occ. eigenvalues --  -10.22356 -10.22131 -10.21828 -10.21762 -10.21685
 Alpha  occ. eigenvalues --  -10.19671 -10.19636  -7.97584  -7.97450  -5.93908
 Alpha  occ. eigenvalues --   -5.93766  -5.93516  -5.93373  -5.93120  -5.93009
 Alpha  occ. eigenvalues --   -1.09317  -1.09008  -1.08933  -1.08585  -1.07584
 Alpha  occ. eigenvalues --   -1.07079  -0.96548  -0.95989  -0.92797  -0.90934
 Alpha  occ. eigenvalues --   -0.89421  -0.87390  -0.84216  -0.80990  -0.79292
 Alpha  occ. eigenvalues --   -0.78109  -0.75279  -0.74550  -0.73191  -0.71596
 Alpha  occ. eigenvalues --   -0.71565  -0.68243  -0.67132  -0.65620  -0.63186
 Alpha  occ. eigenvalues --   -0.62189  -0.62058  -0.60896  -0.58942  -0.57500
 Alpha  occ. eigenvalues --   -0.57048  -0.55509  -0.54864  -0.52528  -0.52045
 Alpha  occ. eigenvalues --   -0.50947  -0.50810  -0.50586  -0.49423  -0.49169
 Alpha  occ. eigenvalues --   -0.48355  -0.47973  -0.47424  -0.46281  -0.45987
 Alpha  occ. eigenvalues --   -0.45951  -0.45271  -0.45015  -0.44720  -0.43953
 Alpha  occ. eigenvalues --   -0.43276  -0.43114  -0.42897  -0.42469  -0.42324
 Alpha  occ. eigenvalues --   -0.40626  -0.40291  -0.39702  -0.39316  -0.38490
 Alpha  occ. eigenvalues --   -0.37215  -0.36673  -0.36009  -0.35462  -0.34691
 Alpha  occ. eigenvalues --   -0.33103  -0.31906  -0.31454  -0.31181  -0.30928
 Alpha  occ. eigenvalues --   -0.30212  -0.29432  -0.28894  -0.28066  -0.26911
 Alpha  occ. eigenvalues --   -0.25417  -0.25371  -0.20431
 Alpha virt. eigenvalues --   -0.13810  -0.08039  -0.07239  -0.05333  -0.04431
 Alpha virt. eigenvalues --   -0.02429  -0.01267  -0.01208  -0.00730  -0.00070
 Alpha virt. eigenvalues --    0.00325   0.00593   0.00825   0.01181   0.01835

 Mulliken charges:
               1
     1  C    0.428002
     2  C   -0.165247
     3  C    0.261162
     4  C    0.151528
     5  C    0.262499
     6  C   -0.337270
     7  C    0.228966
     8  C    0.018941
     9  C    0.297025
    10  C    0.107427
    11  C    0.361626
    12  C    0.056790
    13  C   -0.413427
    14  C   -0.591417
    15  H    0.165149
    16  H    0.166767
    17  H    0.187384
    18  N   -0.417791
    19  N   -0.404902
    20  O   -0.282228
    21  O   -0.276923
    22  O   -0.288506
    23  O   -0.229441
    24  C    0.116828
    25  C   -0.450293
    26  S   -0.523694
    27  C   -0.564772
    28  H    0.123923
    29  C    0.581380
    30  O   -0.244275
    31  C    0.694670
    32  C    0.441070
    33  S   -0.279688
    34  C   -0.283649
    35  O   -0.234508
    36  C   -0.202064
    37  H    0.119806
    38  H    0.164777
    39  H    0.268662
    40  H    0.273306
    41  H    0.357093
    42  H    0.355313
 Sum of Mulliken charges =  -0.00000

 Dipole moment (field-independent basis, Debye):
    X=             -4.2445    Y=             -0.4085    Z=             -0.0576  Tot=              4.2645
 Quadrupole moment (field-independent basis, Debye-Ang):
   XX=           -187.3948   YY=           -203.4770   ZZ=           -192.0163
   XY=              7.6864   XZ=              8.0542   YZ=             14.6265

 Normal termination of Gaussian 16 at Tue Nov 17 13:42:57 2020.
