 Gaussian 16, Revision C.01,
 Gaussian 16:  ES64L-G16RevC.01  3-Jul-2019

 -------------------------------------
 # opt=modredundant b3lyp/6-311+g(d,p)
 -------------------------------------

 ------------
 NDI_-140.pdb
 ------------
 Symbolic Z-matrix:
 Charge =  0 Multiplicity = 1

 SCF Done:  E(RB3LYP) =  -2202.03336360     A.U. after   18 cycles
 SCF Done:  E(RB3LYP) =  -2202.05599784     A.U. after   17 cycles
 SCF Done:  E(RB3LYP) =  -2202.07184270     A.U. after   15 cycles
 SCF Done:  E(RB3LYP) =  -2202.07834130     A.U. after   14 cycles
 SCF Done:  E(RB3LYP) =  -2202.08022203     A.U. after   14 cycles
 SCF Done:  E(RB3LYP) =  -2202.08054591     A.U. after   15 cycles
 SCF Done:  E(RB3LYP) =  -2202.08098445     A.U. after   14 cycles
 SCF Done:  E(RB3LYP) =  -2202.08124262     A.U. after   15 cycles
 SCF Done:  E(RB3LYP) =  -2202.08154113     A.U. after   13 cycles
 SCF Done:  E(RB3LYP) =  -2202.08174050     A.U. after   13 cycles
 SCF Done:  E(RB3LYP) =  -2202.08197256     A.U. after   11 cycles
 SCF Done:  E(RB3LYP) =  -2202.08197393     A.U. after   11 cycles
 SCF Done:  E(RB3LYP) =  -2202.08197518     A.U. after   11 cycles
 SCF Done:  E(RB3LYP) =  -2202.08197727     A.U. after   12 cycles
 SCF Done:  E(RB3LYP) =  -2202.08197892     A.U. after   11 cycles
 SCF Done:  E(RB3LYP) =  -2202.08198045     A.U. after   11 cycles
 SCF Done:  E(RB3LYP) =  -2202.08198129     A.U. after   11 cycles
 SCF Done:  E(RB3LYP) =  -2202.08198136     A.U. after    9 cycles
 SCF Done:  E(RB3LYP) =  -2202.08198138     A.U. after    9 cycles
 SCF Done:  E(RB3LYP) =  -2202.08198139     A.U. after    9 cycles
 Optimization completed.
    -- Stationary point found.

                         Standard orientation:
 ---------------------------------------------------------------------
 Center     Atomic      Atomic             Coordinates (Angstroms)
 Number     Number       Type             X           Y           Z
 ---------------------------------------------------------------------
      1          6           0       -3.273441   -2.927187    0.238865
      2          6           0       -2.607026   -1.615826    0.014916
      3          6           0       -3.352520   -0.411444    0.102244
      4          6           0       -4.732325   -0.422097    0.418107
      5          6           0       -5.427054   -1.713970    0.663336
      6          6           0       -1.258287   -1.579452   -0.236680
      7          6           0       -2.686536    0.822190   -0.146251
      8          6           0       -1.291761    0.835566   -0.457998
      9          6           0       -0.553584   -0.361207   -0.437606
     10          6           0       -0.701259    2.119657   -0.931208
     11          6           0       -2.821787    3.329435   -0.345163
     12          6           0       -3.453933    2.016443   -0.067095
     13          6           0       -4.800029    1.980140    0.255865
     14          6           0       -5.444998    0.761564    0.498885
     15          1           0       -6.498459    0.724172    0.745947
     16          1           0       -5.339950    2.917316    0.310941
     17          1           0       -0.711106   -2.513484   -0.233906
     18          7           0       -1.496457    3.254807   -0.745902
     19          7           0       -4.629338   -2.851937    0.544840
     20          8           0       -2.708126   -3.999958    0.167173
     21          8           0       -6.604293   -1.809922    0.944855
     22          8           0       -3.396591    4.397755   -0.262493
     23          8           0        0.374679    2.234030   -1.481259
     24          6           0        0.902171   -0.481720   -0.538134
     25          6           0        1.589401   -1.442783   -1.248819
     26         16           0        1.994805    0.471288    0.428733
     27          6           0        2.983267   -1.389928   -1.047626
     28          1           0        1.109441   -2.142347   -1.922811
     29          6           0        3.394154   -0.417275   -0.146197
     30          8           0        3.898230   -2.201257   -1.659005
     31          6           0        4.732553   -0.133234    0.300777
     32          6           0        5.141673    0.838237    1.199121
     33         16           0        6.142075   -1.026942   -0.266614
     34          6           0        6.542699    0.875672    1.426376
     35          8           0        4.230462    1.659565    1.800159
     36          6           0        7.205746   -0.072123    0.700590
     37          1           0        7.025643    1.572069    2.100735
     38          1           0        8.266709   -0.268271    0.680297
     39          1           0        4.681288    2.366480    2.272545
     40          1           0        3.450119   -2.880262   -2.172940
     41          1           0       -5.097443   -3.737328    0.705159
     42          1           0       -1.073381    4.126366   -1.045713
 ---------------------------------------------------------------------

 The electronic state is 1-A.
 Alpha  occ. eigenvalues --  -88.88803 -88.88775 -19.17792 -19.17696 -19.13269
 Alpha  occ. eigenvalues --  -19.13212 -19.12608 -19.12538 -14.38634 -14.38011
 Alpha  occ. eigenvalues --  -10.31981 -10.31896 -10.31505 -10.31277 -10.25371
 Alpha  occ. eigenvalues --  -10.25357 -10.24391 -10.23861 -10.23572 -10.23344
 Alpha  occ. eigenvalues --  -10.23133 -10.23064 -10.22867 -10.22846 -10.22816
 Alpha  occ. eigenvalues --  -10.22337 -10.22233 -10.21933 -10.21880 -10.21537
 Alpha  occ. eigenvalues --  -10.19935 -10.19496  -7.97361  -7.97330  -5.93690
 Alpha  occ. eigenvalues --   -5.93646  -5.93293  -5.93253  -5.92890  -5.92889
 Alpha  occ. eigenvalues --   -1.09382  -1.08877  -1.08831  -1.08718  -1.07655
 Alpha  occ. eigenvalues --   -1.07091  -0.96605  -0.95975  -0.92883  -0.90892
 Alpha  occ. eigenvalues --   -0.89359  -0.87461  -0.84279  -0.81064  -0.79346
 Alpha  occ. eigenvalues --   -0.77989  -0.75207  -0.74400  -0.73401  -0.71613
 Alpha  occ. eigenvalues --   -0.71452  -0.68270  -0.67187  -0.65596  -0.63201
 Alpha  occ. eigenvalues --   -0.62275  -0.61895  -0.60884  -0.59023  -0.57397
 Alpha  occ. eigenvalues --   -0.57032  -0.55579  -0.54919  -0.52594  -0.51853
 Alpha  occ. eigenvalues --   -0.51135  -0.50747  -0.50692  -0.49453  -0.49110
 Alpha  occ. eigenvalues --   -0.48334  -0.47757  -0.47638  -0.46430  -0.46081
 Alpha  occ. eigenvalues --   -0.45967  -0.45349  -0.44957  -0.44654  -0.43971
 Alpha  occ. eigenvalues --   -0.43400  -0.43114  -0.42876  -0.42490  -0.42272
 Alpha  occ. eigenvalues --   -0.40821  -0.40000  -0.39851  -0.39110  -0.38589
 Alpha  occ. eigenvalues --   -0.37423  -0.36568  -0.35932  -0.35408  -0.34643
 Alpha  occ. eigenvalues --   -0.33094  -0.31891  -0.31491  -0.31192  -0.30666
 Alpha  occ. eigenvalues --   -0.30278  -0.29494  -0.28786  -0.28255  -0.26902
 Alpha  occ. eigenvalues --   -0.25497  -0.25082  -0.20305
 Alpha virt. eigenvalues --   -0.13826  -0.08046  -0.07139  -0.05385  -0.04402
 Alpha virt. eigenvalues --   -0.02533  -0.01504  -0.01218  -0.00883   0.00031
 Alpha virt. eigenvalues --    0.00366   0.00476   0.00775   0.01239   0.01820

 Mulliken charges:
               1
     1  C    0.444047
     2  C   -0.170734
     3  C    0.186796
     4  C    0.193865
     5  C    0.273705
     6  C   -0.211331
     7  C    0.134382
     8  C   -0.143736
     9  C    0.216351
    10  C    0.130868
    11  C    0.289792
    12  C    0.066212
    13  C   -0.382997
    14  C   -0.564001
    15  H    0.165505
    16  H    0.166340
    17  H    0.164429
    18  N   -0.354661
    19  N   -0.402782
    20  O   -0.285873
    21  O   -0.277857
    22  O   -0.289651
    23  O   -0.227356
    24  C    0.400638
    25  C   -0.419703
    26  S   -0.592822
    27  C   -0.398241
    28  H    0.120717
    29  C    0.480084
    30  O   -0.220927
    31  C    0.707081
    32  C    0.257791
    33  S   -0.246453
    34  C   -0.243644
    35  O   -0.247979
    36  C   -0.244100
    37  H    0.119253
    38  H    0.164313
    39  H    0.269239
    40  H    0.266715
    41  H    0.356499
    42  H    0.350228
 Sum of Mulliken charges =  -0.00000

 Dipole moment (field-independent basis, Debye):
    X=              3.8971    Y=             -0.2126    Z=              0.5469  Tot=              3.9410
 Quadrupole moment (field-independent basis, Debye-Ang):
   XX=           -187.9230   YY=           -205.0105   ZZ=           -190.9195
   XY=              5.6309   XZ=             12.3764   YZ=             14.6247

 Normal termination of Gaussian 16 at Tue Nov 17 16:55:23 2020.
