 Gaussian 16, Revision C.01,
 Gaussian 16:  ES64L-G16RevC.01  3-Jul-2019

 -------------------------------------
 # opt=modredundant b3lyp/6-311+g(d,p)
 -------------------------------------

 ----------
 NDI_20.pdb
 ----------
 Symbolic Z-matrix:
 Charge =  0 Multiplicity = 1

 SCF Done:  E(RB3LYP) =  -2202.03614870     A.U. after   17 cycles
 SCF Done:  E(RB3LYP) =  -2202.04767223     A.U. after   17 cycles
 SCF Done:  E(RB3LYP) =  -2202.07023281     A.U. after   16 cycles
 SCF Done:  E(RB3LYP) =  -2202.07770040     A.U. after   14 cycles
 SCF Done:  E(RB3LYP) =  -2202.08126334     A.U. after   14 cycles
 SCF Done:  E(RB3LYP) =  -2202.08185353     A.U. after   13 cycles
 SCF Done:  E(RB3LYP) =  -2202.08211338     A.U. after   14 cycles
 SCF Done:  E(RB3LYP) =  -2202.08229360     A.U. after   14 cycles
 SCF Done:  E(RB3LYP) =  -2202.08256487     A.U. after   13 cycles
 SCF Done:  E(RB3LYP) =  -2202.08273049     A.U. after   16 cycles
 SCF Done:  E(RB3LYP) =  -2202.08310101     A.U. after   12 cycles
 SCF Done:  E(RB3LYP) =  -2202.08310225     A.U. after   11 cycles
 SCF Done:  E(RB3LYP) =  -2202.08310269     A.U. after   10 cycles
 SCF Done:  E(RB3LYP) =  -2202.08310286     A.U. after    9 cycles
 SCF Done:  E(RB3LYP) =  -2202.08310301     A.U. after    9 cycles
 SCF Done:  E(RB3LYP) =  -2202.08310316     A.U. after    9 cycles
 SCF Done:  E(RB3LYP) =  -2202.08310323     A.U. after    9 cycles
 SCF Done:  E(RB3LYP) =  -2202.08310329     A.U. after    9 cycles
 SCF Done:  E(RB3LYP) =  -2202.08310333     A.U. after    9 cycles
 SCF Done:  E(RB3LYP) =  -2202.08310336     A.U. after    9 cycles
 Optimization completed.
    -- Stationary point found.

                         Standard orientation:
 ---------------------------------------------------------------------
 Center     Atomic      Atomic             Coordinates (Angstroms)
 Number     Number       Type             X           Y           Z
 ---------------------------------------------------------------------
      1          6           0        2.415894   -3.061267   -0.124902
      2          6           0        2.152057   -1.598081   -0.045510
      3          6           0        3.227086   -0.672229   -0.048611
      4          6           0        4.567662   -1.112837   -0.136056
      5          6           0        4.869503   -2.566116   -0.228025
      6          6           0        0.858923   -1.157115   -0.010638
      7          6           0        2.922409    0.715674    0.052133
      8          6           0        1.559321    1.164047    0.127348
      9          6           0        0.496975    0.224216    0.041798
     10          6           0        1.344692    2.604834    0.425807
     11          6           0        3.804180    3.069582    0.211656
     12          6           0        4.025938    1.614974    0.067525
     13          6           0        5.332317    1.160879   -0.031807
     14          6           0        5.611995   -0.203421   -0.134829
     15          1           0        6.628785   -0.567644   -0.207106
     16          1           0        6.128167    1.895248   -0.020476
     17          1           0        0.086989   -1.913870   -0.066414
     18          7           0        2.477134    3.421137    0.386170
     19          7           0        3.759955   -3.410177   -0.207987
     20          8           0        1.548794   -3.911744   -0.121001
     21          8           0        5.991729   -3.022486   -0.312890
     22          8           0        4.684305    3.909858    0.205347
     23          8           0        0.282956    3.125670    0.720965
     24          6           0       -0.928342    0.495132   -0.107128
     25          6           0       -1.611798    1.608683   -0.555031
     26         16           0       -2.082435   -0.776376    0.309520
     27          6           0       -3.004126    1.446046   -0.580385
     28          1           0       -1.130757    2.522235   -0.863840
     29          6           0       -3.455387    0.208414   -0.130049
     30          8           0       -3.893787    2.391296   -1.003987
     31          6           0       -4.812862   -0.243533   -0.004338
     32          6           0       -5.260371   -1.483189    0.427893
     33         16           0       -6.201612    0.769079   -0.398827
     34          6           0       -6.672315   -1.623189    0.444254
     35          8           0       -4.373308   -2.450189    0.797139
     36          6           0       -7.304660   -0.487661    0.023541
     37          1           0       -7.185766   -2.524833    0.754402
     38          1           0       -8.366708   -0.317086   -0.064146
     39          1           0       -4.838371   -3.256010    1.043694
     40          1           0       -3.452343    3.242057   -1.096465
     41          1           0        3.958660   -4.402984   -0.266662
     42          1           0        2.296420    4.400604    0.576179
 ---------------------------------------------------------------------

 The electronic state is 1-A.
 Alpha  occ. eigenvalues --  -88.89331 -88.89320 -19.18396 -19.17949 -19.12998
 Alpha  occ. eigenvalues --  -19.12951 -19.12346 -19.12251 -14.38385 -14.37850
 Alpha  occ. eigenvalues --  -10.31703 -10.31623 -10.31488 -10.30870 -10.26095
 Alpha  occ. eigenvalues --  -10.25741 -10.24689 -10.23678 -10.23615 -10.23184
 Alpha  occ. eigenvalues --  -10.23175 -10.23154 -10.22802 -10.22779 -10.22704
 Alpha  occ. eigenvalues --  -10.22410 -10.22155 -10.22027 -10.21486 -10.21392
 Alpha  occ. eigenvalues --  -10.20039 -10.19840  -7.97893  -7.97883  -5.94216
 Alpha  occ. eigenvalues --   -5.94199  -5.93821  -5.93805  -5.93442  -5.93431
 Alpha  occ. eigenvalues --   -1.09488  -1.09133  -1.09060  -1.08715  -1.07396
 Alpha  occ. eigenvalues --   -1.06818  -0.96355  -0.95763  -0.92576  -0.91236
 Alpha  occ. eigenvalues --   -0.89714  -0.87261  -0.83947  -0.81030  -0.79078
 Alpha  occ. eigenvalues --   -0.78340  -0.75655  -0.74885  -0.73342  -0.71586
 Alpha  occ. eigenvalues --   -0.71334  -0.68130  -0.67036  -0.65495  -0.62934
 Alpha  occ. eigenvalues --   -0.62530  -0.62405  -0.61063  -0.58797  -0.57819
 Alpha  occ. eigenvalues --   -0.57033  -0.55700  -0.54985  -0.52427  -0.51934
 Alpha  occ. eigenvalues --   -0.51130  -0.50659  -0.50415  -0.49576  -0.49112
 Alpha  occ. eigenvalues --   -0.48197  -0.47935  -0.47112  -0.46134  -0.46002
 Alpha  occ. eigenvalues --   -0.45756  -0.45347  -0.45231  -0.44987  -0.43909
 Alpha  occ. eigenvalues --   -0.43494  -0.43217  -0.42850  -0.42232  -0.42057
 Alpha  occ. eigenvalues --   -0.40627  -0.40323  -0.39819  -0.39551  -0.38566
 Alpha  occ. eigenvalues --   -0.38001  -0.37106  -0.36158  -0.35287  -0.34911
 Alpha  occ. eigenvalues --   -0.32898  -0.31764  -0.31419  -0.31066  -0.30546
 Alpha  occ. eigenvalues --   -0.30401  -0.29280  -0.28661  -0.27996  -0.26783
 Alpha  occ. eigenvalues --   -0.25725  -0.25664  -0.20715
 Alpha virt. eigenvalues --   -0.13633  -0.08483  -0.07185  -0.05061  -0.04233
 Alpha virt. eigenvalues --   -0.02674  -0.01416  -0.01088  -0.00558  -0.00335
 Alpha virt. eigenvalues --    0.00514   0.00759   0.01152   0.01315   0.01621

 Mulliken charges:
               1
     1  C    0.397900
     2  C   -0.159018
     3  C    0.226307
     4  C    0.145992
     5  C    0.242022
     6  C   -0.071868
     7  C    0.244788
     8  C    0.134544
     9  C    0.136162
    10  C   -0.175487
    11  C    0.393765
    12  C    0.025328
    13  C   -0.397381
    14  C   -0.476650
    15  H    0.163625
    16  H    0.166178
    17  H    0.172288
    18  N   -0.368445
    19  N   -0.402694
    20  O   -0.290661
    21  O   -0.275713
    22  O   -0.290779
    23  O   -0.262875
    24  C    0.048789
    25  C   -0.089344
    26  S   -0.676951
    27  C   -0.620935
    28  H    0.129764
    29  C    0.345131
    30  O   -0.227024
    31  C    0.796915
    32  C    0.484796
    33  S   -0.264457
    34  C   -0.305697
    35  O   -0.224311
    36  C   -0.213713
    37  H    0.121445
    38  H    0.166712
    39  H    0.270468
    40  H    0.276341
    41  H    0.356580
    42  H    0.348162
 Sum of Mulliken charges =  -0.00000

 Dipole moment (field-independent basis, Debye):
    X=             -5.4899    Y=             -0.6085    Z=             -0.2664  Tot=              5.5300
 Quadrupole moment (field-independent basis, Debye-Ang):
   XX=           -184.4964   YY=           -199.2334   ZZ=           -197.5053
   XY=              8.8357   XZ=             -2.5260   YZ=             -9.2279

 Normal termination of Gaussian 16 at Tue Nov 17 14:37:16 2020.
