 Gaussian 16, Revision C.01,
 Gaussian 16:  ES64L-G16RevC.01  3-Jul-2019

 -------------------------------------
 # opt=modredundant b3lyp/6-311+g(d,p)
 -------------------------------------

 ----------
 NDI_70.pdb
 ----------
 Symbolic Z-matrix:
 Charge =  0 Multiplicity = 1

 SCF Done:  E(RB3LYP) =  -2202.04191594     A.U. after   20 cycles
 SCF Done:  E(RB3LYP) =  -2202.06935462     A.U. after   14 cycles
 SCF Done:  E(RB3LYP) =  -2202.07698494     A.U. after   15 cycles
 SCF Done:  E(RB3LYP) =  -2202.08040159     A.U. after   14 cycles
 SCF Done:  E(RB3LYP) =  -2202.08068116     A.U. after   14 cycles
 SCF Done:  E(RB3LYP) =  -2202.08107984     A.U. after   13 cycles
 SCF Done:  E(RB3LYP) =  -2202.08118569     A.U. after   13 cycles
 SCF Done:  E(RB3LYP) =  -2202.08124492     A.U. after   13 cycles
 SCF Done:  E(RB3LYP) =  -2202.08128740     A.U. after   13 cycles
 SCF Done:  E(RB3LYP) =  -2202.08134454     A.U. after   13 cycles
 SCF Done:  E(RB3LYP) =  -2202.08163929     A.U. after   11 cycles
 SCF Done:  E(RB3LYP) =  -2202.08164043     A.U. after   11 cycles
 SCF Done:  E(RB3LYP) =  -2202.08164120     A.U. after   11 cycles
 SCF Done:  E(RB3LYP) =  -2202.08164139     A.U. after   10 cycles
 SCF Done:  E(RB3LYP) =  -2202.08164159     A.U. after   11 cycles
 SCF Done:  E(RB3LYP) =  -2202.08164180     A.U. after    9 cycles
 SCF Done:  E(RB3LYP) =  -2202.08164206     A.U. after   10 cycles
 SCF Done:  E(RB3LYP) =  -2202.08164218     A.U. after   10 cycles
 SCF Done:  E(RB3LYP) =  -2202.08164228     A.U. after   11 cycles
 SCF Done:  E(RB3LYP) =  -2202.08164230     A.U. after    9 cycles
 Optimization completed.
    -- Stationary point found.

                         Standard orientation:
 ---------------------------------------------------------------------
 Center     Atomic      Atomic             Coordinates (Angstroms)
 Number     Number       Type             X           Y           Z
 ---------------------------------------------------------------------
      1          6           0        2.687811   -3.010810   -0.453200
      2          6           0        2.289710   -1.584387   -0.298094
      3          6           0        3.273221   -0.588566   -0.071572
      4          6           0        4.647209   -0.922357    0.021639
      5          6           0        5.081563   -2.336690   -0.135263
      6          6           0        0.962370   -1.241587   -0.384406
      7          6           0        2.856382    0.765230    0.076831
      8          6           0        1.470829    1.104513   -0.026502
      9          6           0        0.520125    0.104536   -0.286135
     10          6           0        1.076466    2.529310    0.182444
     11          6           0        3.482962    3.159481    0.548520
     12          6           0        3.857660    1.739446    0.342910
     13          6           0        5.193064    1.386878    0.431587
     14          6           0        5.593967    0.055355    0.266076
     15          1           0        6.636551   -0.228928    0.333299
     16          1           0        5.916966    2.165847    0.636478
     17          1           0        0.237419   -2.024575   -0.567388
     18          7           0        2.121921    3.410405    0.472448
     19          7           0        4.055856   -3.253451   -0.356922
     20          8           0        1.905963   -3.917961   -0.650244
     21          8           0        6.238497   -2.700781   -0.078413
     22          8           0        4.276629    4.052311    0.773968
     23          8           0       -0.056347    2.962205    0.129656
     24          6           0       -0.929793    0.325276   -0.423271
     25          6           0       -1.613973    0.956747   -1.428390
     26         16           0       -2.025819   -0.532215    0.634246
     27          6           0       -3.014621    0.798666   -1.328257
     28          1           0       -1.131933    1.527613   -2.211555
     29          6           0       -3.433294    0.025815   -0.258044
     30          8           0       -3.923281    1.330911   -2.202837
     31          6           0       -4.782049   -0.274991    0.150318
     32          6           0       -5.195686   -1.084710    1.193164
     33         16           0       -6.197027    0.392216   -0.661089
     34          6           0       -6.605201   -1.174498    1.344585
     35          8           0       -4.282254   -1.718432    1.989518
     36          6           0       -7.270061   -0.430410    0.412741
     37          1           0       -7.092818   -1.764739    2.110773
     38          1           0       -8.336569   -0.320275    0.290864
     39          1           0       -4.731002   -2.306745    2.604585
     40          1           0       -3.524435    2.060440   -2.687673
     41          1           0        4.342657   -4.220530   -0.463454
     42          1           0        1.838656    4.373664    0.615583
 ---------------------------------------------------------------------

 The electronic state is 1-A.
 Alpha  occ. eigenvalues --  -88.88724 -88.88413 -19.17457 -19.17169 -19.13385
 Alpha  occ. eigenvalues --  -19.13383 -19.12954 -19.12931 -14.38779 -14.38398
 Alpha  occ. eigenvalues --  -10.32099 -10.32077 -10.31961 -10.31613 -10.24954
 Alpha  occ. eigenvalues --  -10.24847 -10.24602 -10.24199 -10.23905 -10.23879
 Alpha  occ. eigenvalues --  -10.23375 -10.23357 -10.23221 -10.22482 -10.22388
 Alpha  occ. eigenvalues --  -10.22281 -10.22258 -10.22206 -10.21853 -10.21150
 Alpha  occ. eigenvalues --  -10.19377 -10.19175  -7.97279  -7.96967  -5.93606
 Alpha  occ. eigenvalues --   -5.93283  -5.93212  -5.92891  -5.92814  -5.92526
 Alpha  occ. eigenvalues --   -1.09544  -1.09269  -1.08452  -1.08162  -1.07818
 Alpha  occ. eigenvalues --   -1.07470  -0.96793  -0.96315  -0.93125  -0.90627
 Alpha  occ. eigenvalues --   -0.89115  -0.87533  -0.84557  -0.81024  -0.79596
 Alpha  occ. eigenvalues --   -0.77835  -0.74881  -0.74156  -0.73093  -0.71868
 Alpha  occ. eigenvalues --   -0.71589  -0.68461  -0.67293  -0.65819  -0.63495
 Alpha  occ. eigenvalues --   -0.61873  -0.61689  -0.60695  -0.59137  -0.57567
 Alpha  occ. eigenvalues --   -0.56774  -0.55546  -0.54601  -0.52795  -0.52191
 Alpha  occ. eigenvalues --   -0.51119  -0.50909  -0.50595  -0.49596  -0.48876
 Alpha  occ. eigenvalues --   -0.48601  -0.48104  -0.47703  -0.46439  -0.46261
 Alpha  occ. eigenvalues --   -0.46151  -0.45452  -0.44698  -0.44323  -0.43837
 Alpha  occ. eigenvalues --   -0.43484  -0.43352  -0.42754  -0.42651  -0.42466
 Alpha  occ. eigenvalues --   -0.40885  -0.40109  -0.39505  -0.39020  -0.38308
 Alpha  occ. eigenvalues --   -0.36735  -0.36213  -0.35927  -0.35438  -0.34306
 Alpha  occ. eigenvalues --   -0.33417  -0.32118  -0.31587  -0.31334  -0.31188
 Alpha  occ. eigenvalues --   -0.30203  -0.29617  -0.29173  -0.28086  -0.27187
 Alpha  occ. eigenvalues --   -0.25175  -0.24997  -0.20065
 Alpha virt. eigenvalues --   -0.14053  -0.08012  -0.07036  -0.05616  -0.04744
 Alpha virt. eigenvalues --   -0.02196  -0.01270  -0.01130  -0.00843   0.00063
 Alpha virt. eigenvalues --    0.00281   0.00376   0.00467   0.01007   0.01650

 Mulliken charges:
               1
     1  C    0.502498
     2  C   -0.144434
     3  C    0.253714
     4  C    0.143718
     5  C    0.255744
     6  C   -0.475544
     7  C    0.223038
     8  C   -0.084942
     9  C    0.278650
    10  C    0.122985
    11  C    0.331567
    12  C    0.061905
    13  C   -0.387870
    14  C   -0.592648
    15  H    0.166664
    16  H    0.167249
    17  H    0.186099
    18  N   -0.427416
    19  N   -0.405848
    20  O   -0.277142
    21  O   -0.277255
    22  O   -0.285166
    23  O   -0.176027
    24  C    0.149391
    25  C   -0.416195
    26  S   -0.405471
    27  C   -0.541840
    28  H    0.110077
    29  C    0.608377
    30  O   -0.251865
    31  C    0.624244
    32  C    0.435430
    33  S   -0.285419
    34  C   -0.274480
    35  O   -0.243126
    36  C   -0.202022
    37  H    0.117939
    38  H    0.162718
    39  H    0.266160
    40  H    0.271125
    41  H    0.357930
    42  H    0.357488
 Sum of Mulliken charges =  -0.00000

 Dipole moment (field-independent basis, Debye):
    X=             -2.8244    Y=             -0.1051    Z=              0.1231  Tot=              2.8290
 Quadrupole moment (field-independent basis, Debye-Ang):
   XX=           -189.9341   YY=           -208.7616   ZZ=           -185.7913
   XY=              6.2035   XZ=            -10.2047   YZ=            -15.5773

 Normal termination of Gaussian 16 at Tue Nov 17 16:18:07 2020.
