 Gaussian 16, Revision C.01,
 Gaussian 16:  ES64L-G16RevC.01  3-Jul-2019

 -------------------------------------
 # opt=modredundant b3lyp/6-311+g(d,p)
 -------------------------------------

 ----------
 NDI_10.pdb
 ----------
 Symbolic Z-matrix:
 Charge =  0 Multiplicity = 1

 SCF Done:  E(RB3LYP) =  -2202.03180178     A.U. after   17 cycles
 SCF Done:  E(RB3LYP) =  -2202.04256043     A.U. after   17 cycles
 SCF Done:  E(RB3LYP) =  -2202.06858482     A.U. after   17 cycles
 SCF Done:  E(RB3LYP) =  -2202.07597770     A.U. after   15 cycles
 SCF Done:  E(RB3LYP) =  -2202.08022729     A.U. after   14 cycles
 SCF Done:  E(RB3LYP) =  -2202.08086668     A.U. after   13 cycles
 SCF Done:  E(RB3LYP) =  -2202.08091328     A.U. after   13 cycles
 SCF Done:  E(RB3LYP) =  -2202.08105480     A.U. after   12 cycles
 SCF Done:  E(RB3LYP) =  -2202.08120550     A.U. after   14 cycles
 SCF Done:  E(RB3LYP) =  -2202.08126294     A.U. after   14 cycles
 SCF Done:  E(RB3LYP) =  -2202.08203464     A.U. after   11 cycles
 SCF Done:  E(RB3LYP) =  -2202.08203552     A.U. after   11 cycles
 SCF Done:  E(RB3LYP) =  -2202.08203602     A.U. after   10 cycles
 SCF Done:  E(RB3LYP) =  -2202.08203638     A.U. after   10 cycles
 SCF Done:  E(RB3LYP) =  -2202.08203676     A.U. after   10 cycles
 SCF Done:  E(RB3LYP) =  -2202.08203721     A.U. after   10 cycles
 SCF Done:  E(RB3LYP) =  -2202.08203756     A.U. after   10 cycles
 SCF Done:  E(RB3LYP) =  -2202.08203776     A.U. after   10 cycles
 SCF Done:  E(RB3LYP) =  -2202.08203788     A.U. after   10 cycles
 SCF Done:  E(RB3LYP) =  -2202.08203791     A.U. after    9 cycles
 Optimization completed.
    -- Stationary point found.

                         Standard orientation:
 ---------------------------------------------------------------------
 Center     Atomic      Atomic             Coordinates (Angstroms)
 Number     Number       Type             X           Y           Z
 ---------------------------------------------------------------------
      1          6           0        2.347783   -3.062490   -0.001455
      2          6           0        2.117865   -1.591936    0.035781
      3          6           0        3.210914   -0.690531   -0.031820
      4          6           0        4.537531   -1.162830   -0.152373
      5          6           0        4.805650   -2.624551   -0.205546
      6          6           0        0.836796   -1.122712    0.093759
      7          6           0        2.935588    0.705039    0.037041
      8          6           0        1.584137    1.184957    0.149582
      9          6           0        0.495824    0.266490    0.117211
     10          6           0        1.421041    2.635611    0.424286
     11          6           0        3.873093    3.042873    0.073424
     12          6           0        4.057554    1.579916   -0.023100
     13          6           0        5.350168    1.095170   -0.157112
     14          6           0        5.599732   -0.276735   -0.221250
     15          1           0        6.605609   -0.664564   -0.318590
     16          1           0        6.159255    1.813458   -0.204467
     17          1           0        0.056163   -1.872213    0.090571
     18          7           0        2.562362    3.428095    0.291848
     19          7           0        3.680421   -3.443343   -0.118016
     20          8           0        1.463577   -3.892988    0.060945
     21          8           0        5.914476   -3.108042   -0.313534
     22          8           0        4.768454    3.863519   -0.002360
     23          8           0        0.392139    3.187983    0.777021
     24          6           0       -0.929634    0.549053   -0.019247
     25          6           0       -1.629031    1.702155   -0.328674
     26         16           0       -2.080475   -0.773632    0.236731
     27          6           0       -3.018455    1.529664   -0.383620
     28          1           0       -1.159448    2.654139   -0.508432
     29          6           0       -3.459965    0.242250   -0.091777
     30          8           0       -3.914749    2.512624   -0.689484
     31          6           0       -4.812618   -0.236107   -0.038215
     32          6           0       -5.250394   -1.521500    0.246563
     33         16           0       -6.208420    0.798497   -0.340489
     34          6           0       -6.660404   -1.677918    0.224621
     35          8           0       -4.356625   -2.513197    0.519191
     36          6           0       -7.300843   -0.509585   -0.077673
     37          1           0       -7.166952   -2.613973    0.424525
     38          1           0       -8.363672   -0.342121   -0.162067
     39          1           0       -4.814786   -3.344521    0.678919
     40          1           0       -3.472468    3.367838   -0.709036
     41          1           0        3.856644   -4.441601   -0.149455
     42          1           0        2.410314    4.415564    0.464680
 ---------------------------------------------------------------------

 The electronic state is 1-A.
 Alpha  occ. eigenvalues --  -88.89431 -88.89350 -19.18487 -19.18014 -19.12976
 Alpha  occ. eigenvalues --  -19.12919 -19.12384 -19.12192 -14.38360 -14.37826
 Alpha  occ. eigenvalues --  -10.31679 -10.31589 -10.31497 -10.30804 -10.26221
 Alpha  occ. eigenvalues --  -10.25796 -10.24820 -10.23735 -10.23649 -10.23366
 Alpha  occ. eigenvalues --  -10.23181 -10.23078 -10.22901 -10.22715 -10.22647
 Alpha  occ. eigenvalues --  -10.22345 -10.22268 -10.22021 -10.21413 -10.21318
 Alpha  occ. eigenvalues --  -10.20132 -10.19753  -7.97983  -7.97927  -5.94299
 Alpha  occ. eigenvalues --   -5.94251  -5.93905  -5.93854  -5.93542  -5.93463
 Alpha  occ. eigenvalues --   -1.09595  -1.09140  -1.09106  -1.08723  -1.07367
 Alpha  occ. eigenvalues --   -1.06793  -0.96330  -0.95753  -0.92537  -0.91290
 Alpha  occ. eigenvalues --   -0.89767  -0.87234  -0.83899  -0.81046  -0.79050
 Alpha  occ. eigenvalues --   -0.78387  -0.75722  -0.74931  -0.73393  -0.71579
 Alpha  occ. eigenvalues --   -0.71306  -0.68130  -0.67034  -0.65492  -0.62895
 Alpha  occ. eigenvalues --   -0.62588  -0.62482  -0.61101  -0.58799  -0.57902
 Alpha  occ. eigenvalues --   -0.57006  -0.55785  -0.54981  -0.52425  -0.51912
 Alpha  occ. eigenvalues --   -0.51216  -0.50623  -0.50392  -0.49628  -0.49103
 Alpha  occ. eigenvalues --   -0.48235  -0.47962  -0.47030  -0.46187  -0.45997
 Alpha  occ. eigenvalues --   -0.45717  -0.45416  -0.45289  -0.45000  -0.43808
 Alpha  occ. eigenvalues --   -0.43626  -0.43238  -0.42813  -0.42185  -0.42026
 Alpha  occ. eigenvalues --   -0.40636  -0.40306  -0.39829  -0.39497  -0.38603
 Alpha  occ. eigenvalues --   -0.38220  -0.37201  -0.36166  -0.35295  -0.34812
 Alpha  occ. eigenvalues --   -0.32876  -0.31747  -0.31432  -0.31046  -0.30512
 Alpha  occ. eigenvalues --   -0.30412  -0.29256  -0.28601  -0.28027  -0.26803
 Alpha  occ. eigenvalues --   -0.25789  -0.25755  -0.20790
 Alpha virt. eigenvalues --   -0.13588  -0.08640  -0.07171  -0.05011  -0.04185
 Alpha virt. eigenvalues --   -0.02722  -0.01412  -0.01063  -0.00515  -0.00399
 Alpha virt. eigenvalues --    0.00531   0.00796   0.01191   0.01358   0.01543

 Mulliken charges:
               1
     1  C    0.397168
     2  C   -0.126575
     3  C    0.150168
     4  C    0.190779
     5  C    0.266229
     6  C   -0.161722
     7  C    0.204444
     8  C    0.123658
     9  C    0.108831
    10  C   -0.195523
    11  C    0.410562
    12  C    0.058705
    13  C   -0.398951
    14  C   -0.479174
    15  H    0.163529
    16  H    0.166307
    17  H    0.170352
    18  N   -0.358053
    19  N   -0.400779
    20  O   -0.292951
    21  O   -0.275406
    22  O   -0.290922
    23  O   -0.274707
    24  C    0.082875
    25  C    0.084171
    26  S   -0.696960
    27  C   -0.619475
    28  H    0.138854
    29  C    0.258814
    30  O   -0.221645
    31  C    0.779966
    32  C    0.507210
    33  S   -0.257877
    34  C   -0.310044
    35  O   -0.221375
    36  C   -0.220018
    37  H    0.121796
    38  H    0.167110
    39  H    0.270824
    40  H    0.277192
    41  H    0.356314
    42  H    0.346299
 Sum of Mulliken charges =  -0.00000

 Dipole moment (field-independent basis, Debye):
    X=             -5.7539    Y=             -0.6871    Z=             -0.3296  Tot=              5.8041
 Quadrupole moment (field-independent basis, Debye-Ang):
   XX=           -183.9642   YY=           -198.0075   ZZ=           -198.9780
   XY=              8.9955   XZ=             -0.3065   YZ=             -6.1310

 Normal termination of Gaussian 16 at Tue Nov 17 16:23:51 2020.
