 Gaussian 16, Revision C.01,
 Gaussian 16:  ES64L-G16RevC.01  3-Jul-2019

 -------------------------------------
 # opt=modredundant b3lyp/6-311+g(d,p)
 -------------------------------------

 -----------
 NDI_-10.pdb
 -----------
 Symbolic Z-matrix:
 Charge =  0 Multiplicity = 1

 SCF Done:  E(RB3LYP) =  -2202.03938433     A.U. after   17 cycles
 SCF Done:  E(RB3LYP) =  -2202.04873132     A.U. after   17 cycles
 SCF Done:  E(RB3LYP) =  -2202.07041765     A.U. after   16 cycles
 SCF Done:  E(RB3LYP) =  -2202.07799705     A.U. after   14 cycles
 SCF Done:  E(RB3LYP) =  -2202.08105985     A.U. after   16 cycles
 SCF Done:  E(RB3LYP) =  -2202.08148120     A.U. after   13 cycles
 SCF Done:  E(RB3LYP) =  -2202.08161665     A.U. after   14 cycles
 SCF Done:  E(RB3LYP) =  -2202.08184613     A.U. after   13 cycles
 SCF Done:  E(RB3LYP) =  -2202.08194200     A.U. after   16 cycles
 SCF Done:  E(RB3LYP) =  -2202.08199426     A.U. after   12 cycles
 SCF Done:  E(RB3LYP) =  -2202.08203130     A.U. after   11 cycles
 SCF Done:  E(RB3LYP) =  -2202.08203273     A.U. after   11 cycles
 SCF Done:  E(RB3LYP) =  -2202.08203431     A.U. after   11 cycles
 SCF Done:  E(RB3LYP) =  -2202.08203561     A.U. after   11 cycles
 SCF Done:  E(RB3LYP) =  -2202.08203643     A.U. after   11 cycles
 SCF Done:  E(RB3LYP) =  -2202.08203733     A.U. after   11 cycles
 SCF Done:  E(RB3LYP) =  -2202.08203792     A.U. after   10 cycles
 SCF Done:  E(RB3LYP) =  -2202.08203809     A.U. after   10 cycles
 SCF Done:  E(RB3LYP) =  -2202.08203819     A.U. after    9 cycles
 SCF Done:  E(RB3LYP) =  -2202.08203824     A.U. after    9 cycles
 Optimization completed.
    -- Stationary point found.

                         Standard orientation:
 ---------------------------------------------------------------------
 Center     Atomic      Atomic             Coordinates (Angstroms)
 Number     Number       Type             X           Y           Z
 ---------------------------------------------------------------------
      1          6           0        2.348187   -3.062524    0.001306
      2          6           0        2.118039   -1.592000   -0.035820
      3          6           0        3.210964   -0.690452    0.031840
      4          6           0        4.537639   -1.162559    0.152526
      5          6           0        4.805980   -2.624228    0.205837
      6          6           0        0.836896   -1.122947   -0.093845
      7          6           0        2.935483    0.705088   -0.037051
      8          6           0        1.584003    1.184809   -0.149655
      9          6           0        0.495819    0.266208   -0.117254
     10          6           0        1.420640    2.635375   -0.424579
     11          6           0        3.872586    3.043082   -0.073514
     12          6           0        4.057308    1.580139    0.023041
     13          6           0        5.349977    1.095581    0.157107
     14          6           0        5.599709   -0.276302    0.221370
     15          1           0        6.605635   -0.663976    0.318823
     16          1           0        6.158984    1.813961    0.204408
     17          1           0        0.056312   -1.872512   -0.090723
     18          7           0        2.561771    3.428150   -0.291725
     19          7           0        3.680850   -3.443187    0.118185
     20          8           0        1.464115   -3.893148   -0.061348
     21          8           0        5.914846   -3.107561    0.314021
     22          8           0        4.767876    3.863832    0.002071
     23          8           0        0.391749    3.187421   -0.777807
     24          6           0       -0.929604    0.548755    0.019341
     25          6           0       -1.628868    1.701882    0.328951
     26         16           0       -2.080468   -0.773874   -0.236559
     27          6           0       -3.018309    1.529477    0.383825
     28          1           0       -1.159221    2.653787    0.508979
     29          6           0       -3.459898    0.242124    0.091857
     30          8           0       -3.914541    2.512457    0.689971
     31          6           0       -4.812591   -0.236135    0.038203
     32          6           0       -5.250445   -1.521404   -0.246926
     33         16           0       -6.208305    0.798443    0.340922
     34          6           0       -6.660463   -1.677800   -0.224826
     35          8           0       -4.356749   -2.513063   -0.520091
     36          6           0       -7.300819   -0.509548    0.077953
     37          1           0       -7.167052   -2.613769   -0.425009
     38          1           0       -8.363630   -0.342059    0.162532
     39          1           0       -4.814896   -3.344626   -0.678518
     40          1           0       -3.472721    3.367975    0.706986
     41          1           0        3.857185   -4.441431    0.149639
     42          1           0        2.409650    4.415557   -0.464817
 ---------------------------------------------------------------------

 The electronic state is 1-A.
 Alpha  occ. eigenvalues --  -88.89431 -88.89350 -19.18486 -19.18012 -19.12976
 Alpha  occ. eigenvalues --  -19.12920 -19.12385 -19.12192 -14.38360 -14.37826
 Alpha  occ. eigenvalues --  -10.31679 -10.31590 -10.31497 -10.30804 -10.26221
 Alpha  occ. eigenvalues --  -10.25795 -10.24819 -10.23735 -10.23649 -10.23365
 Alpha  occ. eigenvalues --  -10.23180 -10.23078 -10.22901 -10.22715 -10.22647
 Alpha  occ. eigenvalues --  -10.22345 -10.22268 -10.22021 -10.21414 -10.21318
 Alpha  occ. eigenvalues --  -10.20132 -10.19754  -7.97983  -7.97928  -5.94299
 Alpha  occ. eigenvalues --   -5.94251  -5.93905  -5.93854  -5.93542  -5.93463
 Alpha  occ. eigenvalues --   -1.09594  -1.09137  -1.09106  -1.08723  -1.07368
 Alpha  occ. eigenvalues --   -1.06794  -0.96330  -0.95753  -0.92538  -0.91290
 Alpha  occ. eigenvalues --   -0.89767  -0.87234  -0.83900  -0.81046  -0.79050
 Alpha  occ. eigenvalues --   -0.78387  -0.75722  -0.74931  -0.73393  -0.71579
 Alpha  occ. eigenvalues --   -0.71306  -0.68129  -0.67033  -0.65492  -0.62895
 Alpha  occ. eigenvalues --   -0.62588  -0.62482  -0.61100  -0.58799  -0.57902
 Alpha  occ. eigenvalues --   -0.57006  -0.55785  -0.54981  -0.52425  -0.51912
 Alpha  occ. eigenvalues --   -0.51216  -0.50623  -0.50392  -0.49629  -0.49103
 Alpha  occ. eigenvalues --   -0.48236  -0.47961  -0.47031  -0.46187  -0.45998
 Alpha  occ. eigenvalues --   -0.45718  -0.45416  -0.45287  -0.45000  -0.43809
 Alpha  occ. eigenvalues --   -0.43625  -0.43239  -0.42813  -0.42185  -0.42026
 Alpha  occ. eigenvalues --   -0.40636  -0.40307  -0.39828  -0.39497  -0.38603
 Alpha  occ. eigenvalues --   -0.38220  -0.37200  -0.36167  -0.35294  -0.34812
 Alpha  occ. eigenvalues --   -0.32876  -0.31747  -0.31433  -0.31046  -0.30513
 Alpha  occ. eigenvalues --   -0.30412  -0.29256  -0.28601  -0.28027  -0.26803
 Alpha  occ. eigenvalues --   -0.25789  -0.25755  -0.20791
 Alpha virt. eigenvalues --   -0.13589  -0.08640  -0.07171  -0.05011  -0.04185
 Alpha virt. eigenvalues --   -0.02722  -0.01412  -0.01063  -0.00515  -0.00399
 Alpha virt. eigenvalues --    0.00530   0.00796   0.01191   0.01358   0.01542

 Mulliken charges:
               1
     1  C    0.397134
     2  C   -0.126665
     3  C    0.150264
     4  C    0.190839
     5  C    0.266138
     6  C   -0.161622
     7  C    0.204305
     8  C    0.124014
     9  C    0.109288
    10  C   -0.195937
    11  C    0.410334
    12  C    0.058807
    13  C   -0.399047
    14  C   -0.479017
    15  H    0.163529
    16  H    0.166307
    17  H    0.170338
    18  N   -0.357787
    19  N   -0.400786
    20  O   -0.292957
    21  O   -0.275398
    22  O   -0.290917
    23  O   -0.274713
    24  C    0.082073
    25  C    0.084700
    26  S   -0.696845
    27  C   -0.620627
    28  H    0.138797
    29  C    0.258530
    30  O   -0.221899
    31  C    0.780334
    32  C    0.508433
    33  S   -0.258000
    34  C   -0.310242
    35  O   -0.221408
    36  C   -0.219825
    37  H    0.121799
    38  H    0.167112
    39  H    0.270816
    40  H    0.277234
    41  H    0.356311
    42  H    0.346259
 Sum of Mulliken charges =  -0.00000

 Dipole moment (field-independent basis, Debye):
    X=             -5.7534    Y=             -0.6868    Z=              0.3286  Tot=              5.8036
 Quadrupole moment (field-independent basis, Debye-Ang):
   XX=           -183.9590   YY=           -198.0011   ZZ=           -198.9894
   XY=              8.9940   XZ=              0.3097   YZ=              6.1110

 Normal termination of Gaussian 16 at Tue Nov 17 14:21:57 2020.
