 Gaussian 16, Revision C.01,
 Gaussian 16:  ES64L-G16RevC.01  3-Jul-2019

 -------------------------------------
 # opt=modredundant b3lyp/6-311+g(d,p)
 -------------------------------------

 -----------
 NDI_-40.pdb
 -----------
 Symbolic Z-matrix:
 Charge =  0 Multiplicity = 1

 SCF Done:  E(RB3LYP) =  -2202.04941938     A.U. after   17 cycles
 SCF Done:  E(RB3LYP) =  -2202.07511790     A.U. after   14 cycles
 SCF Done:  E(RB3LYP) =  -2202.08100070     A.U. after   14 cycles
 SCF Done:  E(RB3LYP) =  -2202.08292188     A.U. after   13 cycles
 SCF Done:  E(RB3LYP) =  -2202.08362657     A.U. after   14 cycles
 SCF Done:  E(RB3LYP) =  -2202.08384993     A.U. after   13 cycles
 SCF Done:  E(RB3LYP) =  -2202.08402270     A.U. after   12 cycles
 SCF Done:  E(RB3LYP) =  -2202.08404293     A.U. after   12 cycles
 SCF Done:  E(RB3LYP) =  -2202.08406460     A.U. after   11 cycles
 SCF Done:  E(RB3LYP) =  -2202.08407396     A.U. after   12 cycles
 SCF Done:  E(RB3LYP) =  -2202.08407790     A.U. after   11 cycles
 SCF Done:  E(RB3LYP) =  -2202.08408194     A.U. after   11 cycles
 SCF Done:  E(RB3LYP) =  -2202.08408501     A.U. after   11 cycles
 SCF Done:  E(RB3LYP) =  -2202.08408751     A.U. after   11 cycles
 SCF Done:  E(RB3LYP) =  -2202.08408891     A.U. after   11 cycles
 SCF Done:  E(RB3LYP) =  -2202.08408955     A.U. after   10 cycles
 SCF Done:  E(RB3LYP) =  -2202.08408979     A.U. after    9 cycles
 SCF Done:  E(RB3LYP) =  -2202.08408997     A.U. after    9 cycles
 SCF Done:  E(RB3LYP) =  -2202.08409010     A.U. after    9 cycles
 SCF Done:  E(RB3LYP) =  -2202.08409014     A.U. after    9 cycles
 Optimization completed.
    -- Stationary point found.

                         Standard orientation:
 ---------------------------------------------------------------------
 Center     Atomic      Atomic             Coordinates (Angstroms)
 Number     Number       Type             X           Y           Z
 ---------------------------------------------------------------------
      1          6           0        2.502418   -3.043420    0.317521
      2          6           0        2.195261   -1.592790    0.180842
      3          6           0        3.244083   -0.643707    0.071678
      4          6           0        4.599423   -1.049705    0.087105
      5          6           0        4.944338   -2.489162    0.232663
      6          6           0        0.888863   -1.184126    0.187588
      7          6           0        2.902854    0.732500   -0.070150
      8          6           0        1.529049    1.146582   -0.068280
      9          6           0        0.502978    0.185968    0.098994
     10          6           0        1.246309    2.582871   -0.340331
     11          6           0        3.706739    3.093202   -0.424059
     12          6           0        3.977972    1.653289   -0.218165
     13          6           0        5.298003    1.231915   -0.196544
     14          6           0        5.616762   -0.119620   -0.039075
     15          1           0        6.644880   -0.458132   -0.022534
     16          1           0        6.073502    1.978997   -0.311803
     17          1           0        0.128287   -1.944299    0.311193
     18          7           0        2.361177    3.411766   -0.487743
     19          7           0        3.858091   -3.357046    0.331064
     20          8           0        1.659675   -3.912406    0.412785
     21          8           0        6.081346   -2.914579    0.265250
     22          8           0        4.563949    3.947972   -0.545439
     23          8           0        0.143607    3.084917   -0.458701
     24          6           0       -0.929786    0.443375    0.224465
     25          6           0       -1.608526    1.432666    0.900940
     26         16           0       -2.066366   -0.725228   -0.437813
     27          6           0       -3.003596    1.268657    0.881241
     28          1           0       -1.121641    2.256553    1.400434
     29          6           0       -3.447794    0.151134    0.182759
     30          8           0       -3.897925    2.104658    1.488851
     31          6           0       -4.804267   -0.258274   -0.059784
     32          6           0       -5.245019   -1.389666   -0.728265
     33         16           0       -6.198643    0.675043    0.481711
     34          6           0       -6.656934   -1.511445   -0.807283
     35          8           0       -4.352320   -2.278473   -1.252580
     36          6           0       -7.296207   -0.469879   -0.197255
     37          1           0       -7.165176   -2.334271   -1.294695
     38          1           0       -8.359443   -0.309956   -0.104568
     39          1           0       -4.814968   -3.031038   -1.634526
     40          1           0       -3.471116    2.938768    1.710246
     41          1           0        4.085366   -4.340769    0.427367
     42          1           0        2.141380    4.385174   -0.667701
 ---------------------------------------------------------------------

 The electronic state is 1-A.
 Alpha  occ. eigenvalues --  -88.89144 -88.89060 -19.18131 -19.17696 -19.13100
 Alpha  occ. eigenvalues --  -19.13065 -19.12443 -19.12416 -14.38490 -14.37974
 Alpha  occ. eigenvalues --  -10.31808 -10.31743 -10.31587 -10.31051 -10.25763
 Alpha  occ. eigenvalues --  -10.25466 -10.24596 -10.23823 -10.23372 -10.23354
 Alpha  occ. eigenvalues --  -10.23233 -10.22953 -10.22898 -10.22882 -10.22622
 Alpha  occ. eigenvalues --  -10.22525 -10.22079 -10.21861 -10.21692 -10.21615
 Alpha  occ. eigenvalues --  -10.19788 -10.19767  -7.97711  -7.97613  -5.94034
 Alpha  occ. eigenvalues --   -5.93929  -5.93642  -5.93535  -5.93249  -5.93172
 Alpha  occ. eigenvalues --   -1.09243  -1.09193  -1.08828  -1.08764  -1.07507
 Alpha  occ. eigenvalues --   -1.06959  -0.96469  -0.95883  -0.92702  -0.91053
 Alpha  occ. eigenvalues --   -0.89534  -0.87342  -0.84106  -0.80998  -0.79200
 Alpha  occ. eigenvalues --   -0.78199  -0.75428  -0.74685  -0.73241  -0.71595
 Alpha  occ. eigenvalues --   -0.71468  -0.68189  -0.67088  -0.65563  -0.63085
 Alpha  occ. eigenvalues --   -0.62323  -0.62189  -0.60960  -0.58873  -0.57595
 Alpha  occ. eigenvalues --   -0.57066  -0.55545  -0.54934  -0.52469  -0.52004
 Alpha  occ. eigenvalues --   -0.50993  -0.50760  -0.50519  -0.49435  -0.49184
 Alpha  occ. eigenvalues --   -0.48263  -0.47949  -0.47311  -0.46224  -0.45948
 Alpha  occ. eigenvalues --   -0.45870  -0.45252  -0.45115  -0.44851  -0.43969
 Alpha  occ. eigenvalues --   -0.43284  -0.43093  -0.42982  -0.42381  -0.42213
 Alpha  occ. eigenvalues --   -0.40593  -0.40327  -0.39767  -0.39432  -0.38516
 Alpha  occ. eigenvalues --   -0.37488  -0.36837  -0.36073  -0.35396  -0.34810
 Alpha  occ. eigenvalues --   -0.33012  -0.31842  -0.31431  -0.31141  -0.30777
 Alpha  occ. eigenvalues --   -0.30274  -0.29370  -0.28799  -0.28024  -0.26840
 Alpha  occ. eigenvalues --   -0.25538  -0.25475  -0.20536
 Alpha virt. eigenvalues --   -0.13743  -0.08165  -0.07236  -0.05227  -0.04340
 Alpha virt. eigenvalues --   -0.02523  -0.01329  -0.01168  -0.00666  -0.00165
 Alpha virt. eigenvalues --    0.00403   0.00657   0.00979   0.01226   0.01813

 Mulliken charges:
               1
     1  C    0.408161
     2  C   -0.171198
     3  C    0.269077
     4  C    0.143160
     5  C    0.254954
     6  C   -0.217231
     7  C    0.246209
     8  C    0.065202
     9  C    0.246190
    10  C    0.030733
    11  C    0.375337
    12  C    0.041782
    13  C   -0.416138
    14  C   -0.562830
    15  H    0.164587
    16  H    0.166528
    17  H    0.182642
    18  N   -0.406505
    19  N   -0.404285
    20  O   -0.285029
    21  O   -0.276617
    22  O   -0.289419
    23  O   -0.238959
    24  C    0.118956
    25  C   -0.382906
    26  S   -0.583645
    27  C   -0.598282
    28  H    0.124430
    29  C    0.511722
    30  O   -0.238659
    31  C    0.735352
    32  C    0.447193
    33  S   -0.275962
    34  C   -0.287868
    35  O   -0.231073
    36  C   -0.205704
    37  H    0.120422
    38  H    0.165463
    39  H    0.269478
    40  H    0.273901
    41  H    0.356837
    42  H    0.353994
 Sum of Mulliken charges =  -0.00000

 Dipole moment (field-independent basis, Debye):
    X=             -4.7253    Y=             -0.4802    Z=              0.0690  Tot=              4.7501
 Quadrupole moment (field-independent basis, Debye-Ang):
   XX=           -186.2783   YY=           -201.9532   ZZ=           -194.0141
   XY=              8.1755   XZ=              6.2773   YZ=             13.2605

 Normal termination of Gaussian 16 at Tue Nov 17 13:25:44 2020.
