 Gaussian 16, Revision C.01,
 Gaussian 16:  ES64L-G16RevC.01  3-Jul-2019

 -------------------------------------
 # opt=modredundant b3lyp/6-311+g(d,p)
 -------------------------------------

 -----------
 NDI_160.pdb
 -----------
 Symbolic Z-matrix:
 Charge =  0 Multiplicity = 1

 SCF Done:  E(RB3LYP) =  -2202.01639927     A.U. after   18 cycles
 SCF Done:  E(RB3LYP) =  -2202.04590506     A.U. after   17 cycles
 SCF Done:  E(RB3LYP) =  -2202.06932110     A.U. after   15 cycles
 SCF Done:  E(RB3LYP) =  -2202.07711826     A.U. after   16 cycles
 SCF Done:  E(RB3LYP) =  -2202.08007736     A.U. after   16 cycles
 SCF Done:  E(RB3LYP) =  -2202.08031927     A.U. after   13 cycles
 SCF Done:  E(RB3LYP) =  -2202.08054436     A.U. after   13 cycles
 SCF Done:  E(RB3LYP) =  -2202.08063842     A.U. after   13 cycles
 SCF Done:  E(RB3LYP) =  -2202.08065072     A.U. after   12 cycles
 SCF Done:  E(RB3LYP) =  -2202.08066569     A.U. after   12 cycles
 SCF Done:  E(RB3LYP) =  -2202.08088065     A.U. after   12 cycles
 SCF Done:  E(RB3LYP) =  -2202.08091935     A.U. after   15 cycles
 SCF Done:  E(RB3LYP) =  -2202.08089096     A.U. after   14 cycles
 SCF Done:  E(RB3LYP) =  -2202.08098377     A.U. after   14 cycles
 SCF Done:  E(RB3LYP) =  -2202.08099715     A.U. after   12 cycles
 SCF Done:  E(RB3LYP) =  -2202.08099747     A.U. after   13 cycles
 SCF Done:  E(RB3LYP) =  -2202.08100071     A.U. after   12 cycles
 SCF Done:  E(RB3LYP) =  -2202.08100149     A.U. after   12 cycles
 SCF Done:  E(RB3LYP) =  -2202.08100151     A.U. after   11 cycles
 SCF Done:  E(RB3LYP) =  -2202.08100154     A.U. after    9 cycles
 Optimization completed on the basis of negligible forces.
    -- Stationary point found.

                         Standard orientation:
 ---------------------------------------------------------------------
 Center     Atomic      Atomic             Coordinates (Angstroms)
 Number     Number       Type             X           Y           Z
 ---------------------------------------------------------------------
      1          6           0       -3.252313   -2.929498   -0.146808
      2          6           0       -2.600870   -1.605933    0.047291
      3          6           0       -3.353175   -0.410711   -0.089253
      4          6           0       -4.726542   -0.442341   -0.424753
      5          6           0       -5.408318   -1.746649   -0.635806
      6          6           0       -1.258580   -1.554396    0.313234
      7          6           0       -2.692144    0.831172    0.127172
      8          6           0       -1.299281    0.863560    0.457298
      9          6           0       -0.546798   -0.331935    0.493476
     10          6           0       -0.736074    2.169178    0.891996
     11          6           0       -2.855288    3.342535    0.238047
     12          6           0       -3.468498    2.015898   -0.005193
     13          6           0       -4.810361    1.960452   -0.347107
     14          6           0       -5.446546    0.733037   -0.557681
     15          1           0       -6.495844    0.680892   -0.818905
     16          1           0       -5.352474    2.893213   -0.441505
     17          1           0       -0.722828   -2.493051    0.332840
     18          7           0       -1.537701    3.290473    0.663304
     19          7           0       -4.604155   -2.875005   -0.470715
     20          8           0       -2.678281   -3.995080   -0.037396
     21          8           0       -6.581030   -1.861867   -0.928986
     22          8           0       -3.436172    4.403659    0.110400
     23          8           0        0.334748    2.319327    1.447766
     24          6           0        0.906481   -0.474119    0.581377
     25          6           0        1.566637   -1.619737    1.002843
     26         16           0        2.045018    0.637113   -0.138551
     27          6           0        2.949762   -1.593419    0.771208
     28          1           0        1.073212   -2.447243    1.497076
     29          6           0        3.395459   -0.446727    0.122337
     30          8           0        3.831532   -2.574415    1.130670
     31          6           0        4.739121   -0.124760   -0.273820
     32          6           0        5.185407    1.016200   -0.923245
     33         16           0        6.109716   -1.192983    0.027072
     34          6           0        6.582922    1.042136   -1.169409
     35          8           0        4.310188    1.998035   -1.283969
     36          6           0        7.205715   -0.083106   -0.709446
     37          1           0        7.092295    1.857363   -1.668179
     38          1           0        8.255459   -0.327269   -0.765255
     39          1           0        4.787749    2.770586   -1.602498
     40          1           0        3.358993   -3.336403    1.480405
     41          1           0       -5.064048   -3.768249   -0.609524
     42          1           0       -1.123433    4.173515    0.940663
 ---------------------------------------------------------------------

 The electronic state is 1-A.
 Alpha  occ. eigenvalues --  -88.89126 -88.88969 -19.18136 -19.17919 -19.13148
 Alpha  occ. eigenvalues --  -19.13055 -19.12325 -19.12294 -14.38499 -14.37801
 Alpha  occ. eigenvalues --  -10.31850 -10.31729 -10.31276 -10.30975 -10.25830
 Alpha  occ. eigenvalues --  -10.25582 -10.24502 -10.23640 -10.23249 -10.23244
 Alpha  occ. eigenvalues --  -10.23134 -10.23040 -10.22874 -10.22800 -10.22586
 Alpha  occ. eigenvalues --  -10.22540 -10.22171 -10.21942 -10.21614 -10.21554
 Alpha  occ. eigenvalues --  -10.20238 -10.19834  -7.97680  -7.97513  -5.93996
 Alpha  occ. eigenvalues --   -5.93840  -5.93602  -5.93435  -5.93239  -5.93050
 Alpha  occ. eigenvalues --   -1.09237  -1.09221  -1.08966  -1.08660  -1.07506
 Alpha  occ. eigenvalues --   -1.06837  -0.96450  -0.95763  -0.92660  -0.91096
 Alpha  occ. eigenvalues --   -0.89587  -0.87327  -0.84030  -0.81084  -0.79131
 Alpha  occ. eigenvalues --   -0.78106  -0.75511  -0.74704  -0.73498  -0.71465
 Alpha  occ. eigenvalues --   -0.71322  -0.68167  -0.67051  -0.65470  -0.62978
 Alpha  occ. eigenvalues --   -0.62555  -0.62107  -0.61015  -0.58928  -0.57533
 Alpha  occ. eigenvalues --   -0.57035  -0.55708  -0.55016  -0.52466  -0.51732
 Alpha  occ. eigenvalues --   -0.51038  -0.50688  -0.50493  -0.49506  -0.49177
 Alpha  occ. eigenvalues --   -0.48208  -0.47641  -0.47423  -0.46364  -0.45949
 Alpha  occ. eigenvalues --   -0.45884  -0.45404  -0.45098  -0.44783  -0.44007
 Alpha  occ. eigenvalues --   -0.43386  -0.43049  -0.42948  -0.42298  -0.42128
 Alpha  occ. eigenvalues --   -0.40750  -0.40193  -0.39885  -0.39280  -0.38487
 Alpha  occ. eigenvalues --   -0.37833  -0.36891  -0.36092  -0.35374  -0.34690
 Alpha  occ. eigenvalues --   -0.32872  -0.31737  -0.31464  -0.31093  -0.30510
 Alpha  occ. eigenvalues --   -0.30330  -0.29383  -0.28620  -0.28142  -0.26746
 Alpha  occ. eigenvalues --   -0.25720  -0.25175  -0.20539
 Alpha virt. eigenvalues --   -0.13653  -0.08329  -0.07118  -0.05164  -0.04282
 Alpha virt. eigenvalues --   -0.02697  -0.01657  -0.01168  -0.00599  -0.00196
 Alpha virt. eigenvalues --    0.00546   0.00654   0.01037   0.01518   0.01842

 Mulliken charges:
               1
     1  C    0.401268
     2  C   -0.136413
     3  C    0.223663
     4  C    0.158135
     5  C    0.262840
     6  C   -0.001289
     7  C    0.169053
     8  C   -0.069268
     9  C    0.255907
    10  C    0.025480
    11  C    0.348852
    12  C    0.044024
    13  C   -0.398882
    14  C   -0.518229
    15  H    0.164036
    16  H    0.165791
    17  H    0.158610
    18  N   -0.342132
    19  N   -0.405165
    20  O   -0.291167
    21  O   -0.276741
    22  O   -0.291106
    23  O   -0.236917
    24  C    0.170197
    25  C   -0.287804
    26  S   -0.714848
    27  C   -0.466231
    28  H    0.120373
    29  C    0.438521
    30  O   -0.222775
    31  C    0.705127
    32  C    0.279139
    33  S   -0.239007
    34  C   -0.246950
    35  O   -0.237614
    36  C   -0.237046
    37  H    0.120651
    38  H    0.165854
    39  H    0.269473
    40  H    0.269646
    41  H    0.355659
    42  H    0.347281
 Sum of Mulliken charges =  -0.00000

 Dipole moment (field-independent basis, Debye):
    X=              4.8992    Y=             -0.3567    Z=             -0.6913  Tot=              4.9605
 Quadrupole moment (field-independent basis, Debye-Ang):
   XX=           -185.2687   YY=           -201.1081   ZZ=           -196.0849
   XY=              7.4484   XZ=            -11.6977   YZ=            -11.6730

 Normal termination of Gaussian 16 at Tue Nov 17 19:14:25 2020.
