 Gaussian 16, Revision C.01,
 Gaussian 16:  ES64L-G16RevC.01  3-Jul-2019

 -------------------------------------
 # opt=modredundant b3lyp/6-311+g(d,p)
 -------------------------------------

 ------------
 NDI_-120.pdb
 ------------
 Symbolic Z-matrix:
 Charge =  0 Multiplicity = 1

 SCF Done:  E(RB3LYP) =  -2202.04022258     A.U. after   17 cycles
 SCF Done:  E(RB3LYP) =  -2202.06839280     A.U. after   15 cycles
 SCF Done:  E(RB3LYP) =  -2202.07490012     A.U. after   15 cycles
 SCF Done:  E(RB3LYP) =  -2202.07967465     A.U. after   16 cycles
 SCF Done:  E(RB3LYP) =  -2202.08064987     A.U. after   14 cycles
 SCF Done:  E(RB3LYP) =  -2202.08084567     A.U. after   13 cycles
 SCF Done:  E(RB3LYP) =  -2202.08110554     A.U. after   13 cycles
 SCF Done:  E(RB3LYP) =  -2202.08118495     A.U. after   12 cycles
 SCF Done:  E(RB3LYP) =  -2202.08119291     A.U. after   13 cycles
 SCF Done:  E(RB3LYP) =  -2202.08122001     A.U. after   11 cycles
 SCF Done:  E(RB3LYP) =  -2202.08095733     A.U. after   14 cycles
 SCF Done:  E(RB3LYP) =  -2202.08095335     A.U. after   14 cycles
 SCF Done:  E(RB3LYP) =  -2202.08128944     A.U. after   14 cycles
 SCF Done:  E(RB3LYP) =  -2202.08129380     A.U. after   12 cycles
 SCF Done:  E(RB3LYP) =  -2202.08130475     A.U. after   12 cycles
 SCF Done:  E(RB3LYP) =  -2202.08130497     A.U. after   10 cycles
 SCF Done:  E(RB3LYP) =  -2202.08130467     A.U. after   11 cycles
 SCF Done:  E(RB3LYP) =  -2202.08130519     A.U. after   10 cycles
 SCF Done:  E(RB3LYP) =  -2202.08130525     A.U. after    9 cycles
 SCF Done:  E(RB3LYP) =  -2202.08130525     A.U. after    8 cycles
 Optimization completed.
    -- Stationary point found.

                         Standard orientation:
 ---------------------------------------------------------------------
 Center     Atomic      Atomic             Coordinates (Angstroms)
 Number     Number       Type             X           Y           Z
 ---------------------------------------------------------------------
      1          6           0       -3.282685   -2.932000    0.230502
      2          6           0       -2.611675   -1.619795    0.023944
      3          6           0       -3.359751   -0.417063    0.094293
      4          6           0       -4.748691   -0.429698    0.374887
      5          6           0       -5.448465   -1.722745    0.601583
      6          6           0       -1.256898   -1.580600   -0.207131
      7          6           0       -2.692553    0.820018   -0.133238
      8          6           0       -1.291702    0.835555   -0.411442
      9          6           0       -0.559561   -0.359454   -0.392475
     10          6           0       -0.669929    2.130940   -0.817573
     11          6           0       -2.820500    3.329439   -0.318676
     12          6           0       -3.461678    2.013770   -0.069213
     13          6           0       -4.815127    1.974391    0.215902
     14          6           0       -5.463668    0.752293    0.438243
     15          1           0       -6.523319    0.712760    0.657354
     16          1           0       -5.359020    2.909851    0.259731
     17          1           0       -0.702765   -2.510922   -0.213017
     18          7           0       -1.478910    3.260860   -0.663241
     19          7           0       -4.646322   -2.858717    0.503845
     20          8           0       -2.714872   -4.003572    0.171530
     21          8           0       -6.632553   -1.818781    0.852258
     22          8           0       -3.401010    4.395311   -0.253230
     23          8           0        0.442085    2.255337   -1.284643
     24          6           0        0.902224   -0.459853   -0.528915
     25          6           0        1.598243   -1.132268   -1.500902
     26         16           0        1.977085    0.235070    0.651655
     27          6           0        2.999766   -1.067992   -1.315423
     28          1           0        1.125304   -1.625571   -2.341754
     29          6           0        3.397775   -0.373047   -0.185837
     30          8           0        3.925324   -1.628654   -2.151908
     31          6           0        4.737042   -0.165659    0.305859
     32          6           0        5.131927    0.535285    1.431169
     33         16           0        6.163592   -0.806125   -0.506498
     34          6           0        6.536429    0.568437    1.641213
     35          8           0        4.205706    1.118711    2.251934
     36          6           0        7.216791   -0.111300    0.672276
     37          1           0        7.009133    1.071137    2.476074
     38          1           0        8.283447   -0.247482    0.582395
     39          1           0        4.642709    1.697896    2.883922
     40          1           0        3.486494   -2.158140   -2.824787
     41          1           0       -5.116507   -3.745208    0.651838
     42          1           0       -1.040977    4.138816   -0.920312
 ---------------------------------------------------------------------

 The electronic state is 1-A.
 Alpha  occ. eigenvalues --  -88.88514 -88.88335 -19.17339 -19.17333 -19.13445
 Alpha  occ. eigenvalues --  -19.13418 -19.12949 -19.12901 -14.38822 -14.38321
 Alpha  occ. eigenvalues --  -10.32160 -10.32113 -10.31833 -10.31625 -10.24951
 Alpha  occ. eigenvalues --  -10.24817 -10.24477 -10.24165 -10.23934 -10.23800
 Alpha  occ. eigenvalues --  -10.23407 -10.23380 -10.23255 -10.22528 -10.22491
 Alpha  occ. eigenvalues --  -10.22306 -10.22246 -10.22187 -10.21776 -10.21049
 Alpha  occ. eigenvalues --  -10.19531 -10.19076  -7.97069  -7.96892  -5.93400
 Alpha  occ. eigenvalues --   -5.93208  -5.93005  -5.92815  -5.92596  -5.92451
 Alpha  occ. eigenvalues --   -1.09580  -1.09213  -1.08375  -1.08285  -1.07857
 Alpha  occ. eigenvalues --   -1.07444  -0.96822  -0.96282  -0.93155  -0.90584
 Alpha  occ. eigenvalues --   -0.89061  -0.87555  -0.84577  -0.81056  -0.79614
 Alpha  occ. eigenvalues --   -0.77777  -0.74797  -0.74017  -0.73286  -0.71873
 Alpha  occ. eigenvalues --   -0.71488  -0.68459  -0.67337  -0.65803  -0.63491
 Alpha  occ. eigenvalues --   -0.61933  -0.61610  -0.60661  -0.59178  -0.57546
 Alpha  occ. eigenvalues --   -0.56705  -0.55608  -0.54604  -0.52825  -0.52081
 Alpha  occ. eigenvalues --   -0.51208  -0.50952  -0.50608  -0.49598  -0.48821
 Alpha  occ. eigenvalues --   -0.48535  -0.48140  -0.47714  -0.46500  -0.46327
 Alpha  occ. eigenvalues --   -0.46133  -0.45506  -0.44661  -0.44295  -0.43807
 Alpha  occ. eigenvalues --   -0.43540  -0.43328  -0.42799  -0.42547  -0.42400
 Alpha  occ. eigenvalues --   -0.40984  -0.39842  -0.39701  -0.38865  -0.38438
 Alpha  occ. eigenvalues --   -0.36973  -0.36155  -0.35738  -0.35351  -0.34365
 Alpha  occ. eigenvalues --   -0.33406  -0.32098  -0.31625  -0.31360  -0.30963
 Alpha  occ. eigenvalues --   -0.30102  -0.29637  -0.29104  -0.28241  -0.27191
 Alpha  occ. eigenvalues --   -0.25175  -0.24824  -0.19977
 Alpha virt. eigenvalues --   -0.14056  -0.08020  -0.06999  -0.05603  -0.04634
 Alpha virt. eigenvalues --   -0.02288  -0.01280  -0.01118  -0.01090   0.00169
 Alpha virt. eigenvalues --    0.00297   0.00307   0.00528   0.01000   0.01669

 Mulliken charges:
               1
     1  C    0.508335
     2  C   -0.189210
     3  C    0.217562
     4  C    0.169917
     5  C    0.277800
     6  C   -0.331152
     7  C    0.162712
     8  C   -0.199740
     9  C    0.175716
    10  C    0.172381
    11  C    0.267809
    12  C    0.087165
    13  C   -0.367495
    14  C   -0.619507
    15  H    0.166945
    16  H    0.167050
    17  H    0.166429
    18  N   -0.377879
    19  N   -0.401195
    20  O   -0.280107
    21  O   -0.278667
    22  O   -0.285855
    23  O   -0.199312
    24  C    0.594391
    25  C   -0.550796
    26  S   -0.406139
    27  C   -0.465557
    28  H    0.110566
    29  C    0.443687
    30  O   -0.218021
    31  C    0.664051
    32  C    0.287357
    33  S   -0.259759
    34  C   -0.233969
    35  O   -0.256822
    36  C   -0.241874
    37  H    0.117551
    38  H    0.162338
    39  H    0.268439
    40  H    0.264421
    41  H    0.357800
    42  H    0.352632
 Sum of Mulliken charges =  -0.00000

 Dipole moment (field-independent basis, Debye):
    X=              2.6760    Y=             -0.0103    Z=              0.2994  Tot=              2.6928
 Quadrupole moment (field-independent basis, Debye-Ang):
   XX=           -190.8330   YY=           -210.7548   ZZ=           -183.8188
   XY=              3.5239   XZ=             12.5818   YZ=             13.9013

 Normal termination of Gaussian 16 at Tue Nov 17 18:52:51 2020.
