 Gaussian 16, Revision C.01,
 Gaussian 16:  ES64L-G16RevC.01  3-Jul-2019

 -------------------------------------
 # opt=modredundant b3lyp/6-311+g(d,p)
 -------------------------------------

 ------------
 NDI_-100.pdb
 ------------
 Symbolic Z-matrix:
 Charge =  0 Multiplicity = 1

 SCF Done:  E(RB3LYP) =  -2202.04094385     A.U. after   21 cycles
 SCF Done:  E(RB3LYP) =  -2202.06887659     A.U. after   15 cycles
 SCF Done:  E(RB3LYP) =  -2202.07662323     A.U. after   15 cycles
 SCF Done:  E(RB3LYP) =  -2202.07947289     A.U. after   14 cycles
 SCF Done:  E(RB3LYP) =  -2202.07961068     A.U. after   14 cycles
 SCF Done:  E(RB3LYP) =  -2202.07999044     A.U. after   13 cycles
 SCF Done:  E(RB3LYP) =  -2202.08002737     A.U. after   13 cycles
 SCF Done:  E(RB3LYP) =  -2202.08005478     A.U. after   13 cycles
 SCF Done:  E(RB3LYP) =  -2202.08005964     A.U. after   13 cycles
 SCF Done:  E(RB3LYP) =  -2202.08006397     A.U. after   11 cycles
 SCF Done:  E(RB3LYP) =  -2202.08006834     A.U. after   11 cycles
 SCF Done:  E(RB3LYP) =  -2202.08006969     A.U. after   11 cycles
 SCF Done:  E(RB3LYP) =  -2202.08007093     A.U. after   11 cycles
 SCF Done:  E(RB3LYP) =  -2202.08007314     A.U. after   11 cycles
 SCF Done:  E(RB3LYP) =  -2202.08007463     A.U. after   11 cycles
 SCF Done:  E(RB3LYP) =  -2202.08007516     A.U. after   10 cycles
 SCF Done:  E(RB3LYP) =  -2202.08007550     A.U. after   10 cycles
 SCF Done:  E(RB3LYP) =  -2202.08007559     A.U. after   10 cycles
 SCF Done:  E(RB3LYP) =  -2202.08007562     A.U. after    9 cycles
 SCF Done:  E(RB3LYP) =  -2202.08007562     A.U. after    9 cycles
 Optimization completed.
    -- Stationary point found.

                         Standard orientation:
 ---------------------------------------------------------------------
 Center     Atomic      Atomic             Coordinates (Angstroms)
 Number     Number       Type             X           Y           Z
 ---------------------------------------------------------------------
      1          6           0        3.160718   -2.974320    0.010214
      2          6           0        2.546687   -1.620509    0.095451
      3          6           0        3.350835   -0.462874   -0.045725
      4          6           0        4.746849   -0.560535   -0.278293
      5          6           0        5.392564   -1.897841   -0.375981
      6          6           0        1.191364   -1.501178    0.303506
      7          6           0        2.736934    0.817996    0.051969
      8          6           0        1.331508    0.918256    0.285369
      9          6           0        0.554618   -0.238979    0.391382
     10          6           0        0.731718    2.279676    0.447647
     11          6           0        2.972766    3.327442    0.003310
     12          6           0        3.561529    1.967007   -0.092878
     13          6           0        4.919176    1.843747   -0.323139
     14          6           0        5.516617    0.578244   -0.415723
     15          1           0        6.579569    0.473615   -0.594069
     16          1           0        5.507718    2.746585   -0.429443
     17          1           0        0.594123   -2.400046    0.392156
     18          7           0        1.610417    3.350479    0.260435
     19          7           0        4.534674   -2.984649   -0.220500
     20          8           0        2.540476   -4.010412    0.129226
     21          8           0        6.578568   -2.064406   -0.574302
     22          8           0        3.608377    4.355323   -0.121107
     23          8           0       -0.424271    2.502618    0.732771
     24          6           0       -0.913333   -0.250682    0.588576
     25          6           0       -1.600733   -0.443609    1.753047
     26         16           0       -1.989877   -0.096645   -0.770263
     27          6           0       -3.008364   -0.436696    1.563989
     28          1           0       -1.124953   -0.565124    2.718701
     29          6           0       -3.411822   -0.262466    0.255565
     30          8           0       -3.926258   -0.612877    2.565378
     31          6           0       -4.756336   -0.224437   -0.270516
     32          6           0       -5.154527   -0.055911   -1.582708
     33         16           0       -6.182741   -0.393734    0.749262
     34          6           0       -6.562542   -0.060997   -1.776521
     35          8           0       -4.230171    0.105160   -2.580773
     36          6           0       -7.242212   -0.235557   -0.605875
     37          1           0       -7.038099    0.062330   -2.741990
     38          1           0       -8.310197   -0.277840   -0.458030
     39          1           0       -4.670081    0.123584   -3.436038
     40          1           0       -3.507777   -0.484201    3.422100
     41          1           0        4.965810   -3.900722   -0.283251
     42          1           0        1.192298    4.269165    0.360786
 ---------------------------------------------------------------------

 The electronic state is 1-A.
 Alpha  occ. eigenvalues --  -88.88215 -88.87857 -19.16856 -19.16794 -19.13683
 Alpha  occ. eigenvalues --  -19.13683 -19.13361 -19.13343 -14.39064 -14.38715
 Alpha  occ. eigenvalues --  -10.32396 -10.32389 -10.32265 -10.32035 -10.24708
 Alpha  occ. eigenvalues --  -10.24548 -10.24360 -10.24356 -10.24339 -10.24249
 Alpha  occ. eigenvalues --  -10.23758 -10.23731 -10.23707 -10.22742 -10.22669
 Alpha  occ. eigenvalues --  -10.22659 -10.22153 -10.21510 -10.21256 -10.20526
 Alpha  occ. eigenvalues --  -10.19021 -10.18635  -7.96761  -7.96414  -5.93093
 Alpha  occ. eigenvalues --   -5.92730  -5.92698  -5.92338  -5.92290  -5.91973
 Alpha  occ. eigenvalues --   -1.09842  -1.09646  -1.08123  -1.07887  -1.07820
 Alpha  occ. eigenvalues --   -1.07730  -0.97107  -0.96665  -0.93497  -0.90280
 Alpha  occ. eigenvalues --   -0.88807  -0.87548  -0.84932  -0.81125  -0.79945
 Alpha  occ. eigenvalues --   -0.77487  -0.74366  -0.73700  -0.73114  -0.72214
 Alpha  occ. eigenvalues --   -0.71419  -0.68744  -0.67506  -0.66072  -0.63843
 Alpha  occ. eigenvalues --   -0.61703  -0.61192  -0.60394  -0.59328  -0.57817
 Alpha  occ. eigenvalues --   -0.56253  -0.55721  -0.54180  -0.53149  -0.52386
 Alpha  occ. eigenvalues --   -0.51420  -0.51145  -0.50409  -0.49726  -0.48921
 Alpha  occ. eigenvalues --   -0.48562  -0.48374  -0.47843  -0.46710  -0.46622
 Alpha  occ. eigenvalues --   -0.46301  -0.45688  -0.44406  -0.43873  -0.43826
 Alpha  occ. eigenvalues --   -0.43597  -0.43416  -0.43095  -0.42914  -0.41974
 Alpha  occ. eigenvalues --   -0.41222  -0.39947  -0.39256  -0.38583  -0.38015
 Alpha  occ. eigenvalues --   -0.36780  -0.35701  -0.35578  -0.35070  -0.34037
 Alpha  occ. eigenvalues --   -0.33722  -0.32363  -0.31840  -0.31578  -0.31396
 Alpha  occ. eigenvalues --   -0.30123  -0.29767  -0.29533  -0.27996  -0.27618
 Alpha  occ. eigenvalues --   -0.24817  -0.24450  -0.19595
 Alpha virt. eigenvalues --   -0.14350  -0.08229  -0.06980  -0.05794  -0.04756
 Alpha virt. eigenvalues --   -0.01962  -0.01399  -0.00954  -0.00757  -0.00117
 Alpha virt. eigenvalues --    0.00031   0.00266   0.00610   0.00808   0.01459

 Mulliken charges:
               1
     1  C    0.552072
     2  C   -0.169606
     3  C    0.280324
     4  C    0.147390
     5  C    0.267941
     6  C   -0.458390
     7  C    0.231513
     8  C   -0.264149
     9  C    0.241931
    10  C    0.193020
    11  C    0.285300
    12  C    0.097971
    13  C   -0.408003
    14  C   -0.664436
    15  H    0.168391
    16  H    0.168330
    17  H    0.169922
    18  N   -0.419854
    19  N   -0.404187
    20  O   -0.272355
    21  O   -0.277857
    22  O   -0.279826
    23  O   -0.154646
    24  C    0.552467
    25  C   -0.594629
    26  S   -0.206827
    27  C   -0.461641
    28  H    0.101589
    29  C    0.298345
    30  O   -0.238442
    31  C    0.620171
    32  C    0.406910
    33  S   -0.289662
    34  C   -0.264591
    35  O   -0.257879
    36  C   -0.222671
    37  H    0.115346
    38  H    0.160193
    39  H    0.264291
    40  H    0.268241
    41  H    0.359211
    42  H    0.358781
 Sum of Mulliken charges =  -0.00000

 Dipole moment (field-independent basis, Debye):
    X=             -1.2828    Y=              0.3009    Z=             -0.1446  Tot=              1.3256
 Quadrupole moment (field-independent basis, Debye-Ang):
   XX=           -193.2230   YY=           -218.5902   ZZ=           -174.8629
   XY=             -0.0131   XZ=             12.6365   YZ=             -1.3013

 Normal termination of Gaussian 16 at Tue Nov 17 13:49:30 2020.
