 Gaussian 16, Revision C.01,
 Gaussian 16:  ES64L-G16RevC.01  3-Jul-2019

 -------------------------------------
 # opt=modredundant b3lyp/6-311+g(d,p)
 -------------------------------------

 ------------
 NDI_-110.pdb
 ------------
 Symbolic Z-matrix:
 Charge =  0 Multiplicity = 1

 SCF Done:  E(RB3LYP) =  -2202.04086821     A.U. after   20 cycles
 SCF Done:  E(RB3LYP) =  -2202.06887774     A.U. after   15 cycles
 SCF Done:  E(RB3LYP) =  -2202.07688546     A.U. after   15 cycles
 SCF Done:  E(RB3LYP) =  -2202.07984320     A.U. after   13 cycles
 SCF Done:  E(RB3LYP) =  -2202.07998832     A.U. after   14 cycles
 SCF Done:  E(RB3LYP) =  -2202.08050008     A.U. after   13 cycles
 SCF Done:  E(RB3LYP) =  -2202.08054819     A.U. after   13 cycles
 SCF Done:  E(RB3LYP) =  -2202.08058290     A.U. after   13 cycles
 SCF Done:  E(RB3LYP) =  -2202.08059021     A.U. after   12 cycles
 SCF Done:  E(RB3LYP) =  -2202.08059679     A.U. after   12 cycles
 SCF Done:  E(RB3LYP) =  -2202.08064210     A.U. after   12 cycles
 SCF Done:  E(RB3LYP) =  -2202.08064273     A.U. after   11 cycles
 SCF Done:  E(RB3LYP) =  -2202.08064356     A.U. after   11 cycles
 SCF Done:  E(RB3LYP) =  -2202.08064289     A.U. after   11 cycles
 SCF Done:  E(RB3LYP) =  -2202.08064473     A.U. after   11 cycles
 SCF Done:  E(RB3LYP) =  -2202.08064645     A.U. after   11 cycles
 SCF Done:  E(RB3LYP) =  -2202.08064752     A.U. after   11 cycles
 SCF Done:  E(RB3LYP) =  -2202.08064794     A.U. after   10 cycles
 SCF Done:  E(RB3LYP) =  -2202.08064810     A.U. after   10 cycles
 SCF Done:  E(RB3LYP) =  -2202.08064815     A.U. after    9 cycles
 Optimization completed.
    -- Stationary point found.

                         Standard orientation:
 ---------------------------------------------------------------------
 Center     Atomic      Atomic             Coordinates (Angstroms)
 Number     Number       Type             X           Y           Z
 ---------------------------------------------------------------------
      1          6           0       -3.256438   -2.944646    0.146625
      2          6           0       -2.598024   -1.619624   -0.016867
      3          6           0       -3.360299   -0.428371    0.075558
      4          6           0       -4.753680   -0.464597    0.335815
      5          6           0       -5.441949   -1.771393    0.516527
      6          6           0       -1.241549   -1.558612   -0.238900
      7          6           0       -2.705180    0.822817   -0.104951
      8          6           0       -1.301259    0.861698   -0.363848
      9          6           0       -0.560196   -0.325193   -0.389467
     10          6           0       -0.674430    2.182901   -0.674009
     11          6           0       -2.857529    3.336360   -0.207470
     12          6           0       -3.488367    2.005773   -0.014781
     13          6           0       -4.844995    1.942704    0.246869
     14          6           0       -5.482506    0.706469    0.422385
     15          1           0       -6.544778    0.648713    0.624329
     16          1           0       -5.400689    2.870031    0.310779
     17          1           0       -0.675905   -2.481283   -0.275005
     18          7           0       -1.505525    3.295416   -0.513362
     19          7           0       -4.624952   -2.894563    0.402047
     20          8           0       -2.674950   -4.007152    0.068614
     21          8           0       -6.628648   -1.886539    0.745501
     22          8           0       -3.453354    4.392156   -0.124252
     23          8           0        0.462027    2.341223   -1.064111
     24          6           0        0.905463   -0.399335   -0.555098
     25          6           0        1.599464   -0.862408   -1.639662
     26         16           0        1.977706    0.064681    0.735284
     27          6           0        3.004079   -0.817838   -1.449863
     28          1           0        1.126880   -1.198319   -2.554934
     29          6           0        3.401931   -0.345008   -0.213441
     30          8           0        3.927682   -1.219024   -2.376862
     31          6           0        4.743379   -0.199782    0.298433
     32          6           0        5.136183    0.268872    1.538152
     33         16           0        6.174119   -0.607691   -0.645228
     34          6           0        6.542991    0.310121    1.733683
     35          8           0        4.206882    0.637937    2.473685
     36          6           0        7.227254   -0.130430    0.637809
     37          1           0        7.014374    0.647527    2.648688
     38          1           0        8.295832   -0.207096    0.509110
     39          1           0        4.638651    1.085159    3.207998
     40          1           0        3.499765   -1.372683   -3.224712
     41          1           0       -5.086246   -3.790294    0.519538
     42          1           0       -1.066917    4.188778   -0.709069
 ---------------------------------------------------------------------

 The electronic state is 1-A.
 Alpha  occ. eigenvalues --  -88.88336 -88.88068 -19.17057 -19.17056 -19.13568
 Alpha  occ. eigenvalues --  -19.13559 -19.13180 -19.13153 -14.38950 -14.38544
 Alpha  occ. eigenvalues --  -10.32282 -10.32260 -10.32074 -10.31856 -10.24643
 Alpha  occ. eigenvalues --  -10.24594 -10.24487 -10.24375 -10.24159 -10.24108
 Alpha  occ. eigenvalues --  -10.23589 -10.23583 -10.23506 -10.22584 -10.22547
 Alpha  occ. eigenvalues --  -10.22476 -10.22323 -10.21806 -10.21492 -10.20753
 Alpha  occ. eigenvalues --  -10.19264 -10.18822  -7.96887  -7.96625  -5.93219
 Alpha  occ. eigenvalues --   -5.92941  -5.92824  -5.92549  -5.92414  -5.92185
 Alpha  occ. eigenvalues --   -1.09718  -1.09455  -1.08069  -1.07997  -1.07982
 Alpha  occ. eigenvalues --   -1.07691  -0.96974  -0.96498  -0.93342  -0.90406
 Alpha  occ. eigenvalues --   -0.88906  -0.87570  -0.84773  -0.81086  -0.79796
 Alpha  occ. eigenvalues --   -0.77622  -0.74548  -0.73816  -0.73213  -0.72061
 Alpha  occ. eigenvalues --   -0.71458  -0.68612  -0.67432  -0.65951  -0.63686
 Alpha  occ. eigenvalues --   -0.61780  -0.61396  -0.60502  -0.59273  -0.57692
 Alpha  occ. eigenvalues --   -0.56454  -0.55673  -0.54372  -0.53002  -0.52246
 Alpha  occ. eigenvalues --   -0.51309  -0.51074  -0.50482  -0.49693  -0.48807
 Alpha  occ. eigenvalues --   -0.48512  -0.48360  -0.47791  -0.46608  -0.46494
 Alpha  occ. eigenvalues --   -0.46216  -0.45608  -0.44524  -0.44054  -0.43774
 Alpha  occ. eigenvalues --   -0.43535  -0.43478  -0.42966  -0.42756  -0.42197
 Alpha  occ. eigenvalues --   -0.41112  -0.39891  -0.39359  -0.38668  -0.38242
 Alpha  occ. eigenvalues --   -0.36874  -0.36022  -0.35590  -0.35216  -0.34155
 Alpha  occ. eigenvalues --   -0.33594  -0.32241  -0.31735  -0.31488  -0.31192
 Alpha  occ. eigenvalues --   -0.30070  -0.29711  -0.29339  -0.28147  -0.27411
 Alpha  occ. eigenvalues --   -0.24970  -0.24627  -0.19767
 Alpha virt. eigenvalues --   -0.14219  -0.08124  -0.06955  -0.05713  -0.04736
 Alpha virt. eigenvalues --   -0.02086  -0.01304  -0.01152  -0.00874   0.00031
 Alpha virt. eigenvalues --    0.00148   0.00368   0.00503   0.00882   0.01548

 Mulliken charges:
               1
     1  C    0.535648
     2  C   -0.190371
     3  C    0.249989
     4  C    0.153012
     5  C    0.275742
     6  C   -0.378173
     7  C    0.196889
     8  C   -0.252367
     9  C    0.185891
    10  C    0.196654
    11  C    0.271871
    12  C    0.102466
    13  C   -0.380940
    14  C   -0.647490
    15  H    0.167789
    16  H    0.167672
    17  H    0.168065
    18  N   -0.397582
    19  N   -0.402268
    20  O   -0.275757
    21  O   -0.278350
    22  O   -0.283048
    23  O   -0.180482
    24  C    0.614306
    25  C   -0.552955
    26  S   -0.320409
    27  C   -0.443864
    28  H    0.105610
    29  C    0.373776
    30  O   -0.225327
    31  C    0.603365
    32  C    0.315831
    33  S   -0.271377
    34  C   -0.239112
    35  O   -0.260705
    36  C   -0.229948
    37  H    0.116414
    38  H    0.161125
    39  H    0.267670
    40  H    0.266848
    41  H    0.358629
    42  H    0.355265
 Sum of Mulliken charges =  -0.00000

 Dipole moment (field-independent basis, Debye):
    X=              1.9052    Y=              0.4645    Z=              0.0552  Tot=              1.9617
 Quadrupole moment (field-independent basis, Debye-Ang):
   XX=           -192.3218   YY=           -215.8202   ZZ=           -178.2685
   XY=              3.3989   XZ=             12.0559   YZ=              9.6045

 Normal termination of Gaussian 16 at Tue Nov 17 22:04:33 2020.
