 Gaussian 16, Revision C.01,
 Gaussian 16:  ES64L-G16RevC.01  3-Jul-2019

 -------------------------------------
 # opt=modredundant b3lyp/6-311+g(d,p)
 -------------------------------------

 -----------
 NDI_110.pdb
 -----------
 Symbolic Z-matrix:
 Charge =  0 Multiplicity = 1

 SCF Done:  E(RB3LYP) =  -2202.04342821     A.U. after   17 cycles
 SCF Done:  E(RB3LYP) =  -2202.07028802     A.U. after   15 cycles
 SCF Done:  E(RB3LYP) =  -2202.07699880     A.U. after   16 cycles
 SCF Done:  E(RB3LYP) =  -2202.07993314     A.U. after   14 cycles
 SCF Done:  E(RB3LYP) =  -2202.08029078     A.U. after   14 cycles
 SCF Done:  E(RB3LYP) =  -2202.08048738     A.U. after   13 cycles
 SCF Done:  E(RB3LYP) =  -2202.08056668     A.U. after   12 cycles
 SCF Done:  E(RB3LYP) =  -2202.08060006     A.U. after   12 cycles
 SCF Done:  E(RB3LYP) =  -2202.08061392     A.U. after   12 cycles
 SCF Done:  E(RB3LYP) =  -2202.08062009     A.U. after   11 cycles
 SCF Done:  E(RB3LYP) =  -2202.08063344     A.U. after   11 cycles
 SCF Done:  E(RB3LYP) =  -2202.08063386     A.U. after   11 cycles
 SCF Done:  E(RB3LYP) =  -2202.08063399     A.U. after   11 cycles
 SCF Done:  E(RB3LYP) =  -2202.08063408     A.U. after    9 cycles
 SCF Done:  E(RB3LYP) =  -2202.08063415     A.U. after    9 cycles
 SCF Done:  E(RB3LYP) =  -2202.08063419     A.U. after    9 cycles
 SCF Done:  E(RB3LYP) =  -2202.08063423     A.U. after    9 cycles
 SCF Done:  E(RB3LYP) =  -2202.08063428     A.U. after    9 cycles
 SCF Done:  E(RB3LYP) =  -2202.08063432     A.U. after    9 cycles
 SCF Done:  E(RB3LYP) =  -2202.08063435     A.U. after    9 cycles
 Optimization completed.
    -- Stationary point found.

                         Standard orientation:
 ---------------------------------------------------------------------
 Center     Atomic      Atomic             Coordinates (Angstroms)
 Number     Number       Type             X           Y           Z
 ---------------------------------------------------------------------
      1          6           0        3.249194   -2.948176    0.152788
      2          6           0        2.594146   -1.621884   -0.013111
      3          6           0        3.359168   -0.432240    0.078096
      4          6           0        4.752192   -0.471378    0.339339
      5          6           0        5.437102   -1.779499    0.522811
      6          6           0        1.238007   -1.557961   -0.235810
      7          6           0        2.707049    0.820132   -0.105182
      8          6           0        1.303355    0.862010   -0.365105
      9          6           0        0.559246   -0.323217   -0.387954
     10          6           0        0.680581    2.183808   -0.680291
     11          6           0        2.865885    3.333037   -0.213515
     12          6           0        3.493130    2.001309   -0.017012
     13          6           0        4.849475    1.935466    0.245754
     14          6           0        5.483864    0.698127    0.424235
     15          1           0        6.545866    0.638184    0.626946
     16          1           0        5.407313    2.861608    0.308088
     17          1           0        0.670370   -2.479448   -0.270481
     18          7           0        1.514530    3.294665   -0.522047
     19          7           0        4.617570   -2.901006    0.408902
     20          8           0        2.665133   -4.009475    0.075997
     21          8           0        6.623228   -1.897312    0.753355
     22          8           0        3.464277    4.387525   -0.131432
     23          8           0       -0.454736    2.343973   -1.072828
     24          6           0       -0.906102   -0.395958   -0.553639
     25          6           0       -1.599817   -0.861092   -1.637860
     26         16           0       -1.979573    0.087181    0.728591
     27          6           0       -3.004428   -0.811106   -1.450976
     28          1           0       -1.126555   -1.195613   -2.553318
     29          6           0       -3.402951   -0.330459   -0.217432
     30          8           0       -3.928318   -1.196356   -2.383747
     31          6           0       -4.744145   -0.192425    0.296642
     32          6           0       -5.138231    0.293320    1.529481
     33         16           0       -6.172938   -0.642012   -0.631007
     34          6           0       -6.544372    0.313615    1.732618
     35          8           0       -4.210323    0.695660    2.452531
     36          6           0       -7.226967   -0.159412    0.649298
     37          1           0       -7.016414    0.660244    2.643812
     38          1           0       -8.294787   -0.256009    0.527935
     39          1           0       -4.644433    1.158514    3.175703
     40          1           0       -3.487346   -1.584944   -3.145338
     41          1           0        5.076701   -3.797531    0.528460
     42          1           0        1.078394    4.188473   -0.721194
 ---------------------------------------------------------------------

 The electronic state is 1-A.
 Alpha  occ. eigenvalues --  -88.88350 -88.88088 -19.17118 -19.17069 -19.13562
 Alpha  occ. eigenvalues --  -19.13548 -19.13147 -19.13113 -14.38942 -14.38510
 Alpha  occ. eigenvalues --  -10.32276 -10.32249 -10.32036 -10.31823 -10.24692
 Alpha  occ. eigenvalues --  -10.24581 -10.24506 -10.24353 -10.24138 -10.24080
 Alpha  occ. eigenvalues --  -10.23568 -10.23565 -10.23479 -10.22578 -10.22523
 Alpha  occ. eigenvalues --  -10.22450 -10.22346 -10.21829 -10.21515 -10.20775
 Alpha  occ. eigenvalues --  -10.19296 -10.18838  -7.96901  -7.96645  -5.93233
 Alpha  occ. eigenvalues --   -5.92961  -5.92838  -5.92569  -5.92428  -5.92204
 Alpha  occ. eigenvalues --   -1.09709  -1.09420  -1.08129  -1.08006  -1.07987
 Alpha  occ. eigenvalues --   -1.07655  -0.96961  -0.96468  -0.93322  -0.90421
 Alpha  occ. eigenvalues --   -0.88914  -0.87569  -0.84753  -0.81081  -0.79776
 Alpha  occ. eigenvalues --   -0.77635  -0.74572  -0.73829  -0.73216  -0.72040
 Alpha  occ. eigenvalues --   -0.71464  -0.68595  -0.67424  -0.65938  -0.63665
 Alpha  occ. eigenvalues --   -0.61800  -0.61419  -0.60513  -0.59265  -0.57680
 Alpha  occ. eigenvalues --   -0.56473  -0.55668  -0.54391  -0.52982  -0.52234
 Alpha  occ. eigenvalues --   -0.51294  -0.51068  -0.50495  -0.49687  -0.48790
 Alpha  occ. eigenvalues --   -0.48517  -0.48354  -0.47774  -0.46568  -0.46473
 Alpha  occ. eigenvalues --   -0.46217  -0.45614  -0.44515  -0.44071  -0.43766
 Alpha  occ. eigenvalues --   -0.43538  -0.43462  -0.42945  -0.42723  -0.42155
 Alpha  occ. eigenvalues --   -0.41104  -0.39861  -0.39539  -0.38720  -0.38269
 Alpha  occ. eigenvalues --   -0.36812  -0.35944  -0.35663  -0.35213  -0.34191
 Alpha  occ. eigenvalues --   -0.33594  -0.32226  -0.31729  -0.31467  -0.31164
 Alpha  occ. eigenvalues --   -0.30071  -0.29707  -0.29312  -0.28152  -0.27392
 Alpha  occ. eigenvalues --   -0.24982  -0.24637  -0.19774
 Alpha virt. eigenvalues --   -0.14200  -0.08107  -0.06950  -0.05699  -0.04730
 Alpha virt. eigenvalues --   -0.02141  -0.01293  -0.01092  -0.00945   0.00048
 Alpha virt. eigenvalues --    0.00171   0.00368   0.00498   0.00888   0.01566

 Mulliken charges:
               1
     1  C    0.540434
     2  C   -0.191339
     3  C    0.246703
     4  C    0.159329
     5  C    0.274094
     6  C   -0.386085
     7  C    0.194818
     8  C   -0.252753
     9  C    0.190611
    10  C    0.207884
    11  C    0.269433
    12  C    0.104524
    13  C   -0.384437
    14  C   -0.651374
    15  H    0.167705
    16  H    0.167653
    17  H    0.167177
    18  N   -0.399024
    19  N   -0.401767
    20  O   -0.276690
    21  O   -0.278624
    22  O   -0.283336
    23  O   -0.179241
    24  C    0.627974
    25  C   -0.612223
    26  S   -0.313783
    27  C   -0.449771
    28  H    0.105704
    29  C    0.401527
    30  O   -0.218083
    31  C    0.626668
    32  C    0.310838
    33  S   -0.268517
    34  C   -0.239331
    35  O   -0.261463
    36  C   -0.238415
    37  H    0.116569
    38  H    0.161207
    39  H    0.268004
    40  H    0.263451
    41  H    0.358575
    42  H    0.355373
 Sum of Mulliken charges =  -0.00000

 Dipole moment (field-independent basis, Debye):
    X=             -1.9650    Y=              0.1177    Z=              0.1633  Tot=              1.9753
 Quadrupole moment (field-independent basis, Debye-Ang):
   XX=           -192.3285   YY=           -214.4198   ZZ=           -179.4978
   XY=             -2.1354   XZ=            -12.5793   YZ=             10.9960

 Normal termination of Gaussian 16 at Tue Nov 17 14:45:31 2020.
