 Gaussian 16, Revision C.01,
 Gaussian 16:  ES64L-G16RevC.01  3-Jul-2019

 -------------------------------------
 # opt=modredundant b3lyp/6-311+g(d,p)
 -------------------------------------

 ----------
 NDI_50.pdb
 ----------
 Symbolic Z-matrix:
 Charge =  0 Multiplicity = 1

 SCF Done:  E(RB3LYP) =  -2202.04508969     A.U. after   17 cycles
 SCF Done:  E(RB3LYP) =  -2202.07197637     A.U. after   15 cycles
 SCF Done:  E(RB3LYP) =  -2202.07881962     A.U. after   14 cycles
 SCF Done:  E(RB3LYP) =  -2202.08193361     A.U. after   14 cycles
 SCF Done:  E(RB3LYP) =  -2202.08296012     A.U. after   14 cycles
 SCF Done:  E(RB3LYP) =  -2202.08312439     A.U. after   13 cycles
 SCF Done:  E(RB3LYP) =  -2202.08329722     A.U. after   13 cycles
 SCF Done:  E(RB3LYP) =  -2202.08341408     A.U. after   13 cycles
 SCF Done:  E(RB3LYP) =  -2202.08351652     A.U. after   13 cycles
 SCF Done:  E(RB3LYP) =  -2202.08357250     A.U. after   12 cycles
 SCF Done:  E(RB3LYP) =  -2202.08375513     A.U. after   11 cycles
 SCF Done:  E(RB3LYP) =  -2202.08375679     A.U. after   11 cycles
 SCF Done:  E(RB3LYP) =  -2202.08375785     A.U. after   12 cycles
 SCF Done:  E(RB3LYP) =  -2202.08375846     A.U. after   10 cycles
 SCF Done:  E(RB3LYP) =  -2202.08375856     A.U. after    9 cycles
 SCF Done:  E(RB3LYP) =  -2202.08375860     A.U. after    9 cycles
 SCF Done:  E(RB3LYP) =  -2202.08375864     A.U. after    9 cycles
 SCF Done:  E(RB3LYP) =  -2202.08375866     A.U. after    9 cycles
 SCF Done:  E(RB3LYP) =  -2202.08375867     A.U. after    9 cycles
 SCF Done:  E(RB3LYP) =  -2202.08375868     A.U. after    8 cycles
 Optimization completed.
    -- Stationary point found.

                         Standard orientation:
 ---------------------------------------------------------------------
 Center     Atomic      Atomic             Coordinates (Angstroms)
 Number     Number       Type             X           Y           Z
 ---------------------------------------------------------------------
      1          6           0        2.529839   -3.029014   -0.407444
      2          6           0        2.208210   -1.583672   -0.248915
      3          6           0        3.246417   -0.632033   -0.080842
      4          6           0        4.604276   -1.030567   -0.049733
      5          6           0        4.963598   -2.464595   -0.214024
      6          6           0        0.898624   -1.182544   -0.282173
      7          6           0        2.894039    0.739943    0.073251
      8          6           0        1.520178    1.146593    0.024221
      9          6           0        0.506764    0.183709   -0.180273
     10          6           0        1.217303    2.586046    0.257949
     11          6           0        3.665136    3.097169    0.514955
     12          6           0        3.955257    1.663070    0.289691
     13          6           0        5.276719    1.248151    0.317813
     14          6           0        5.609037   -0.098503    0.141574
     15          1           0        6.638935   -0.431545    0.161364
     16          1           0        6.042745    1.994879    0.486383
     17          1           0        0.142026   -1.941094   -0.435716
     18          7           0        2.316609    3.410983    0.509004
     19          7           0        3.887244   -3.335078   -0.375864
     20          8           0        1.697032   -3.900027   -0.555040
     21          8           0        6.103595   -2.883029   -0.210508
     22          8           0        4.510845    3.951330    0.701773
     23          8           0        0.110133    3.090375    0.258168
     24          6           0       -0.931436    0.438001   -0.287147
     25          6           0       -1.620873    1.342003   -1.061545
     26         16           0       -2.047463   -0.672802    0.492061
     27          6           0       -3.016081    1.168648   -1.013686
     28          1           0       -1.141471    2.113825   -1.645770
     29          6           0       -3.443825    0.124882   -0.202791
     30          8           0       -3.922030    1.931944   -1.696689
     31          6           0       -4.794792   -0.265860    0.098994
     32          6           0       -5.219155   -1.330969    0.876747
     33         16           0       -6.202044    0.607488   -0.505061
     34          6           0       -6.629276   -1.450309    0.989371
     35          8           0       -4.313850   -2.163891    1.468844
     36          6           0       -7.283658   -0.473106    0.295011
     37          1           0       -7.125345   -2.226010    1.559626
     38          1           0       -8.348986   -0.327037    0.203747
     39          1           0       -4.767281   -2.885550    1.915769
     40          1           0       -3.508068    2.750180   -1.989819
     41          1           0        4.123847   -4.315186   -0.485919
     42          1           0        2.085114    4.385388    0.667943
 ---------------------------------------------------------------------

 The electronic state is 1-A.
 Alpha  occ. eigenvalues --  -88.89018 -88.88897 -19.17964 -19.17537 -19.13169
 Alpha  occ. eigenvalues --  -19.13143 -19.12575 -19.12532 -14.38561 -14.38074
 Alpha  occ. eigenvalues --  -10.31879 -10.31825 -10.31678 -10.31177 -10.25562
 Alpha  occ. eigenvalues --  -10.25282 -10.24601 -10.23920 -10.23505 -10.23497
 Alpha  occ. eigenvalues --  -10.23057 -10.22999 -10.22988 -10.22780 -10.22768
 Alpha  occ. eigenvalues --  -10.22356 -10.22131 -10.21828 -10.21762 -10.21685
 Alpha  occ. eigenvalues --  -10.19671 -10.19636  -7.97584  -7.97450  -5.93908
 Alpha  occ. eigenvalues --   -5.93766  -5.93516  -5.93373  -5.93120  -5.93009
 Alpha  occ. eigenvalues --   -1.09317  -1.09008  -1.08933  -1.08585  -1.07584
 Alpha  occ. eigenvalues --   -1.07079  -0.96548  -0.95989  -0.92797  -0.90934
 Alpha  occ. eigenvalues --   -0.89421  -0.87390  -0.84216  -0.80990  -0.79292
 Alpha  occ. eigenvalues --   -0.78109  -0.75279  -0.74550  -0.73191  -0.71596
 Alpha  occ. eigenvalues --   -0.71565  -0.68243  -0.67132  -0.65620  -0.63186
 Alpha  occ. eigenvalues --   -0.62189  -0.62058  -0.60896  -0.58942  -0.57500
 Alpha  occ. eigenvalues --   -0.57048  -0.55509  -0.54864  -0.52529  -0.52045
 Alpha  occ. eigenvalues --   -0.50947  -0.50810  -0.50586  -0.49423  -0.49168
 Alpha  occ. eigenvalues --   -0.48355  -0.47972  -0.47424  -0.46281  -0.45987
 Alpha  occ. eigenvalues --   -0.45951  -0.45271  -0.45015  -0.44720  -0.43954
 Alpha  occ. eigenvalues --   -0.43277  -0.43114  -0.42898  -0.42469  -0.42324
 Alpha  occ. eigenvalues --   -0.40626  -0.40291  -0.39702  -0.39316  -0.38489
 Alpha  occ. eigenvalues --   -0.37215  -0.36673  -0.36009  -0.35461  -0.34691
 Alpha  occ. eigenvalues --   -0.33103  -0.31906  -0.31454  -0.31181  -0.30927
 Alpha  occ. eigenvalues --   -0.30213  -0.29432  -0.28894  -0.28066  -0.26911
 Alpha  occ. eigenvalues --   -0.25417  -0.25371  -0.20430
 Alpha virt. eigenvalues --   -0.13810  -0.08039  -0.07239  -0.05333  -0.04431
 Alpha virt. eigenvalues --   -0.02429  -0.01267  -0.01208  -0.00730  -0.00070
 Alpha virt. eigenvalues --    0.00325   0.00593   0.00825   0.01181   0.01835

 Mulliken charges:
               1
     1  C    0.428124
     2  C   -0.165449
     3  C    0.261181
     4  C    0.151536
     5  C    0.262543
     6  C   -0.337266
     7  C    0.228907
     8  C    0.018947
     9  C    0.297010
    10  C    0.107430
    11  C    0.361643
    12  C    0.056733
    13  C   -0.413395
    14  C   -0.591330
    15  H    0.165150
    16  H    0.166767
    17  H    0.187376
    18  N   -0.417793
    19  N   -0.404893
    20  O   -0.282234
    21  O   -0.276925
    22  O   -0.288504
    23  O   -0.229393
    24  C    0.117240
    25  C   -0.450404
    26  S   -0.523757
    27  C   -0.565187
    28  H    0.123887
    29  C    0.581528
    30  O   -0.244276
    31  C    0.694667
    32  C    0.441049
    33  S   -0.279678
    34  C   -0.283576
    35  O   -0.234510
    36  C   -0.202128
    37  H    0.119806
    38  H    0.164777
    39  H    0.268668
    40  H    0.273306
    41  H    0.357096
    42  H    0.355326
 Sum of Mulliken charges =  -0.00000

 Dipole moment (field-independent basis, Debye):
    X=             -4.2445    Y=             -0.4079    Z=              0.0576  Tot=              4.2645
 Quadrupole moment (field-independent basis, Debye-Ang):
   XX=           -187.3923   YY=           -203.4751   ZZ=           -192.0193
   XY=              7.6864   XZ=             -8.0478   YZ=            -14.6242

 Normal termination of Gaussian 16 at Tue Nov 17 15:13:14 2020.
