 Gaussian 16, Revision C.01,
 Gaussian 16:  ES64L-G16RevC.01  3-Jul-2019

 -------------------------------------
 # opt=modredundant b3lyp/6-311+g(d,p)
 -------------------------------------

 -----------
 NDI_-30.pdb
 -----------
 Symbolic Z-matrix:
 Charge =  0 Multiplicity = 1

 SCF Done:  E(RB3LYP) =  -2202.04885079     A.U. after   17 cycles
 SCF Done:  E(RB3LYP) =  -2202.07378392     A.U. after   14 cycles
 SCF Done:  E(RB3LYP) =  -2202.07299457     A.U. after   16 cycles
 SCF Done:  E(RB3LYP) =  -2202.08275584     A.U. after   14 cycles
 SCF Done:  E(RB3LYP) =  -2202.08353545     A.U. after   13 cycles
 SCF Done:  E(RB3LYP) =  -2202.08359238     A.U. after   13 cycles
 SCF Done:  E(RB3LYP) =  -2202.08375939     A.U. after   12 cycles
 SCF Done:  E(RB3LYP) =  -2202.08379614     A.U. after   13 cycles
 SCF Done:  E(RB3LYP) =  -2202.08381831     A.U. after   12 cycles
 SCF Done:  E(RB3LYP) =  -2202.08383318     A.U. after   12 cycles
 SCF Done:  E(RB3LYP) =  -2202.08384113     A.U. after   12 cycles
 SCF Done:  E(RB3LYP) =  -2202.08384372     A.U. after   11 cycles
 SCF Done:  E(RB3LYP) =  -2202.08384531     A.U. after   11 cycles
 SCF Done:  E(RB3LYP) =  -2202.08384757     A.U. after   11 cycles
 SCF Done:  E(RB3LYP) =  -2202.08384962     A.U. after   11 cycles
 SCF Done:  E(RB3LYP) =  -2202.08385019     A.U. after   10 cycles
 SCF Done:  E(RB3LYP) =  -2202.08385083     A.U. after   11 cycles
 SCF Done:  E(RB3LYP) =  -2202.08385159     A.U. after   10 cycles
 SCF Done:  E(RB3LYP) =  -2202.08385183     A.U. after   10 cycles
 SCF Done:  E(RB3LYP) =  -2202.08385186     A.U. after    9 cycles
 Optimization completed.
    -- Stationary point found.

                         Standard orientation:
 ---------------------------------------------------------------------
 Center     Atomic      Atomic             Coordinates (Angstroms)
 Number     Number       Type             X           Y           Z
 ---------------------------------------------------------------------
      1          6           0        2.466934   -3.054355    0.225799
      2          6           0        2.177697   -1.597956    0.114953
      3          6           0        3.237933   -0.656584    0.061407
      4          6           0        4.587783   -1.075470    0.115299
      5          6           0        4.914821   -2.521191    0.237139
      6          6           0        0.876411   -1.176952    0.100181
      7          6           0        2.911531    0.724764   -0.062979
      8          6           0        1.541151    1.151575   -0.101598
      9          6           0        0.499633    0.197925    0.027456
     10          6           0        1.286857    2.587784   -0.396945
     11          6           0        3.749608    3.085378   -0.324692
     12          6           0        3.999643    1.638708   -0.145394
     13          6           0        5.314884    1.205361   -0.082201
     14          6           0        5.617296   -0.151956    0.051167
     15          1           0        6.641258   -0.500023    0.097641
     16          1           0        6.099569    1.949007   -0.146027
     17          1           0        0.111222   -1.936989    0.192935
     18          7           0        2.411115    3.415220   -0.448357
     19          7           0        3.818374   -3.381210    0.276023
     20          8           0        1.613654   -3.917291    0.271361
     21          8           0        6.046201   -2.958426    0.297835
     22          8           0        4.617219    3.936493   -0.382541
     23          8           0        0.200090    3.093288   -0.614003
     24          6           0       -0.928618    0.460422    0.168873
     25          6           0       -1.605220    1.519242    0.737200
     26         16           0       -2.077740   -0.760269   -0.376299
     27          6           0       -2.999376    1.359427    0.740075
     28          1           0       -1.117950    2.389662    1.147646
     29          6           0       -3.451376    0.178267    0.159236
     30          8           0       -3.888291    2.255713    1.262168
     31          6           0       -4.809967   -0.250967   -0.026456
     32          6           0       -5.258246   -1.439228   -0.582934
     33         16           0       -6.198296    0.727505    0.447113
     34          6           0       -6.670731   -1.567925   -0.630708
     35          8           0       -4.371482   -2.371423   -1.035286
     36          6           0       -7.302818   -0.474927   -0.109357
     37          1           0       -7.184619   -2.431749   -1.033924
     38          1           0       -8.364963   -0.307092   -0.017914
     39          1           0       -4.837715   -3.152675   -1.349398
     40          1           0       -3.452524    3.100172    1.417292
     41          1           0        4.033906   -4.369104    0.355222
     42          1           0        2.207855    4.390043   -0.639584
 ---------------------------------------------------------------------

 The electronic state is 1-A.
 Alpha  occ. eigenvalues --  -88.89247 -88.89204 -19.18275 -19.17836 -19.13043
 Alpha  occ. eigenvalues --  -19.13001 -19.12369 -19.12326 -14.38432 -14.37901
 Alpha  occ. eigenvalues --  -10.31749 -10.31676 -10.31523 -10.30952 -10.25939
 Alpha  occ. eigenvalues --  -10.25623 -10.24620 -10.23741 -10.23443 -10.23255
 Alpha  occ. eigenvalues --  -10.23242 -10.23028 -10.22861 -10.22785 -10.22674
 Alpha  occ. eigenvalues --  -10.22504 -10.22047 -10.22017 -10.21580 -10.21493
 Alpha  occ. eigenvalues --  -10.19923 -10.19830  -7.97817  -7.97757  -5.94139
 Alpha  occ. eigenvalues --   -5.94073  -5.93746  -5.93679  -5.93355  -5.93316
 Alpha  occ. eigenvalues --   -1.09352  -1.09181  -1.08929  -1.08752  -1.07445
 Alpha  occ. eigenvalues --   -1.06874  -0.96405  -0.95808  -0.92630  -0.91154
 Alpha  occ. eigenvalues --   -0.89633  -0.87299  -0.84017  -0.81013  -0.79130
 Alpha  occ. eigenvalues --   -0.78276  -0.75554  -0.74798  -0.73291  -0.71593
 Alpha  occ. eigenvalues --   -0.71390  -0.68151  -0.67056  -0.65522  -0.63001
 Alpha  occ. eigenvalues --   -0.62439  -0.62304  -0.61015  -0.58824  -0.57710
 Alpha  occ. eigenvalues --   -0.57055  -0.55614  -0.54971  -0.52438  -0.51967
 Alpha  occ. eigenvalues --   -0.51060  -0.50705  -0.50460  -0.49504  -0.49147
 Alpha  occ. eigenvalues --   -0.48209  -0.47936  -0.47207  -0.46173  -0.45958
 Alpha  occ. eigenvalues --   -0.45806  -0.45287  -0.45173  -0.44944  -0.43958
 Alpha  occ. eigenvalues --   -0.43355  -0.43184  -0.42913  -0.42301  -0.42123
 Alpha  occ. eigenvalues --   -0.40603  -0.40334  -0.39802  -0.39519  -0.38539
 Alpha  occ. eigenvalues --   -0.37750  -0.36981  -0.36125  -0.35330  -0.34893
 Alpha  occ. eigenvalues --   -0.32944  -0.31796  -0.31420  -0.31101  -0.30653
 Alpha  occ. eigenvalues --   -0.30338  -0.29319  -0.28724  -0.28000  -0.26796
 Alpha  occ. eigenvalues --   -0.25641  -0.25571  -0.20630
 Alpha virt. eigenvalues --   -0.13685  -0.08319  -0.07212  -0.05136  -0.04280
 Alpha virt. eigenvalues --   -0.02606  -0.01384  -0.01124  -0.00609  -0.00254
 Alpha virt. eigenvalues --    0.00468   0.00711   0.01087   0.01268   0.01716

 Mulliken charges:
               1
     1  C    0.398122
     2  C   -0.169361
     3  C    0.264250
     4  C    0.137958
     5  C    0.244559
     6  C   -0.106330
     7  C    0.255932
     8  C    0.113929
     9  C    0.181707
    10  C   -0.080563
    11  C    0.382426
    12  C    0.028784
    13  C   -0.408826
    14  C   -0.519779
    15  H    0.164057
    16  H    0.166307
    17  H    0.176932
    18  N   -0.387212
    19  N   -0.403513
    20  O   -0.287878
    21  O   -0.276245
    22  O   -0.290298
    23  O   -0.250462
    24  C    0.088254
    25  C   -0.254182
    26  S   -0.639409
    27  C   -0.620148
    28  H    0.125767
    29  C    0.425524
    30  O   -0.232860
    31  C    0.775187
    32  C    0.461535
    33  S   -0.270689
    34  C   -0.295949
    35  O   -0.227801
    36  C   -0.209871
    37  H    0.120976
    38  H    0.166124
    39  H    0.270114
    40  H    0.275029
    41  H    0.356677
    42  H    0.351228
 Sum of Mulliken charges =  -0.00000

 Dipole moment (field-independent basis, Debye):
    X=             -5.1385    Y=             -0.5451    Z=              0.1821  Tot=              5.1706
 Quadrupole moment (field-independent basis, Debye-Ang):
   XX=           -185.2968   YY=           -200.5360   ZZ=           -195.8582
   XY=              8.5682   XZ=              4.4425   YZ=             11.4732

 Normal termination of Gaussian 16 at Tue Nov 17 13:32:52 2020.
