 Gaussian 16, Revision C.01,
 Gaussian 16:  ES64L-G16RevC.01  3-Jul-2019

 -------------------------------------
 # opt=modredundant b3lyp/6-311+g(d,p)
 -------------------------------------

 ----------
 NDI_30.pdb
 ----------
 Symbolic Z-matrix:
 Charge =  0 Multiplicity = 1

 SCF Done:  E(RB3LYP) =  -2202.04164437     A.U. after   17 cycles
 SCF Done:  E(RB3LYP) =  -2202.05783920     A.U. after   17 cycles
 SCF Done:  E(RB3LYP) =  -2202.07328399     A.U. after   15 cycles
 SCF Done:  E(RB3LYP) =  -2202.08044059     A.U. after   15 cycles
 SCF Done:  E(RB3LYP) =  -2202.08261377     A.U. after   15 cycles
 SCF Done:  E(RB3LYP) =  -2202.08270019     A.U. after   13 cycles
 SCF Done:  E(RB3LYP) =  -2202.08319965     A.U. after   13 cycles
 SCF Done:  E(RB3LYP) =  -2202.08350360     A.U. after   16 cycles
 SCF Done:  E(RB3LYP) =  -2202.08358639     A.U. after   13 cycles
 SCF Done:  E(RB3LYP) =  -2202.08365191     A.U. after   12 cycles
 SCF Done:  E(RB3LYP) =  -2202.08384652     A.U. after   11 cycles
 SCF Done:  E(RB3LYP) =  -2202.08384722     A.U. after   11 cycles
 SCF Done:  E(RB3LYP) =  -2202.08384794     A.U. after   10 cycles
 SCF Done:  E(RB3LYP) =  -2202.08384851     A.U. after   11 cycles
 SCF Done:  E(RB3LYP) =  -2202.08384894     A.U. after   10 cycles
 SCF Done:  E(RB3LYP) =  -2202.08384918     A.U. after   10 cycles
 SCF Done:  E(RB3LYP) =  -2202.08384935     A.U. after   10 cycles
 SCF Done:  E(RB3LYP) =  -2202.08384954     A.U. after   10 cycles
 SCF Done:  E(RB3LYP) =  -2202.08384961     A.U. after   10 cycles
 SCF Done:  E(RB3LYP) =  -2202.08384964     A.U. after    9 cycles
 Optimization completed.
    -- Stationary point found.

                         Standard orientation:
 ---------------------------------------------------------------------
 Center     Atomic      Atomic             Coordinates (Angstroms)
 Number     Number       Type             X           Y           Z
 ---------------------------------------------------------------------
      1          6           0        2.466793   -3.054376   -0.225879
      2          6           0        2.177626   -1.597973   -0.114954
      3          6           0        3.237896   -0.656661   -0.061201
      4          6           0        4.587734   -1.075627   -0.114878
      5          6           0        4.914704   -2.521397   -0.236496
      6          6           0        0.876358   -1.176892   -0.100413
      7          6           0        2.911567    0.724710    0.063027
      8          6           0        1.541205    1.151568    0.101737
      9          6           0        0.499647    0.197997   -0.027426
     10          6           0        1.287033    2.587775    0.397333
     11          6           0        3.749741    3.085398    0.323871
     12          6           0        3.999718    1.638637    0.145131
     13          6           0        5.314938    1.205224    0.082049
     14          6           0        5.617284   -0.152158   -0.050877
     15          1           0        6.641236   -0.500285   -0.097133
     16          1           0        6.099649    1.948867    0.145566
     17          1           0        0.111152   -1.936868   -0.193472
     18          7           0        2.411330    3.415241    0.448151
     19          7           0        3.818215   -3.381354   -0.275418
     20          8           0        1.613433   -3.917185   -0.272553
     21          8           0        6.046056   -2.958684   -0.297242
     22          8           0        4.617379    3.936567    0.380614
     23          8           0        0.200402    3.093248    0.615017
     24          6           0       -0.928619    0.460565   -0.168857
     25          6           0       -1.605295    1.519748   -0.736363
     26         16           0       -2.077683   -0.760449    0.375774
     27          6           0       -2.999468    1.359947   -0.739148
     28          1           0       -1.118130    2.390424   -1.146395
     29          6           0       -3.451388    0.178421   -0.159011
     30          8           0       -3.888454    2.256567   -1.260514
     31          6           0       -4.809970   -0.250964    0.026470
     32          6           0       -5.258252   -1.439329    0.582718
     33         16           0       -6.198302    0.727435   -0.447248
     34          6           0       -6.670730   -1.568193    0.630171
     35          8           0       -4.371462   -2.371494    1.035081
     36          6           0       -7.302819   -0.475225    0.108766
     37          1           0       -7.184610   -2.432106    1.033203
     38          1           0       -8.364958   -0.307458    0.017134
     39          1           0       -4.837626   -3.152758    1.349134
     40          1           0       -3.452591    3.100964   -1.415643
     41          1           0        4.033748   -4.369183   -0.355020
     42          1           0        2.208042    4.390087    0.639233
 ---------------------------------------------------------------------

 The electronic state is 1-A.
 Alpha  occ. eigenvalues --  -88.89247 -88.89204 -19.18275 -19.17837 -19.13043
 Alpha  occ. eigenvalues --  -19.13001 -19.12370 -19.12326 -14.38432 -14.37901
 Alpha  occ. eigenvalues --  -10.31749 -10.31676 -10.31524 -10.30952 -10.25939
 Alpha  occ. eigenvalues --  -10.25623 -10.24620 -10.23741 -10.23443 -10.23255
 Alpha  occ. eigenvalues --  -10.23242 -10.23028 -10.22861 -10.22784 -10.22674
 Alpha  occ. eigenvalues --  -10.22504 -10.22047 -10.22017 -10.21580 -10.21493
 Alpha  occ. eigenvalues --  -10.19922 -10.19831  -7.97817  -7.97757  -5.94139
 Alpha  occ. eigenvalues --   -5.94072  -5.93746  -5.93679  -5.93355  -5.93316
 Alpha  occ. eigenvalues --   -1.09353  -1.09181  -1.08930  -1.08753  -1.07444
 Alpha  occ. eigenvalues --   -1.06875  -0.96406  -0.95809  -0.92630  -0.91154
 Alpha  occ. eigenvalues --   -0.89633  -0.87299  -0.84017  -0.81013  -0.79130
 Alpha  occ. eigenvalues --   -0.78276  -0.75554  -0.74798  -0.73291  -0.71593
 Alpha  occ. eigenvalues --   -0.71390  -0.68151  -0.67057  -0.65522  -0.63001
 Alpha  occ. eigenvalues --   -0.62439  -0.62305  -0.61015  -0.58823  -0.57711
 Alpha  occ. eigenvalues --   -0.57056  -0.55615  -0.54971  -0.52439  -0.51967
 Alpha  occ. eigenvalues --   -0.51059  -0.50705  -0.50460  -0.49504  -0.49147
 Alpha  occ. eigenvalues --   -0.48209  -0.47936  -0.47207  -0.46173  -0.45958
 Alpha  occ. eigenvalues --   -0.45806  -0.45287  -0.45173  -0.44944  -0.43958
 Alpha  occ. eigenvalues --   -0.43356  -0.43184  -0.42913  -0.42301  -0.42123
 Alpha  occ. eigenvalues --   -0.40603  -0.40334  -0.39803  -0.39519  -0.38539
 Alpha  occ. eigenvalues --   -0.37751  -0.36981  -0.36124  -0.35331  -0.34894
 Alpha  occ. eigenvalues --   -0.32944  -0.31797  -0.31419  -0.31102  -0.30653
 Alpha  occ. eigenvalues --   -0.30338  -0.29319  -0.28724  -0.28000  -0.26796
 Alpha  occ. eigenvalues --   -0.25641  -0.25571  -0.20630
 Alpha virt. eigenvalues --   -0.13685  -0.08319  -0.07212  -0.05136  -0.04280
 Alpha virt. eigenvalues --   -0.02606  -0.01384  -0.01123  -0.00609  -0.00254
 Alpha virt. eigenvalues --    0.00467   0.00711   0.01087   0.01269   0.01716

 Mulliken charges:
               1
     1  C    0.398530
     2  C   -0.169651
     3  C    0.264201
     4  C    0.138250
     5  C    0.244498
     6  C   -0.106526
     7  C    0.255657
     8  C    0.114386
     9  C    0.181514
    10  C   -0.080705
    11  C    0.382317
    12  C    0.028921
    13  C   -0.408950
    14  C   -0.519824
    15  H    0.164056
    16  H    0.166306
    17  H    0.176915
    18  N   -0.387075
    19  N   -0.403491
    20  O   -0.287886
    21  O   -0.276248
    22  O   -0.290326
    23  O   -0.250469
    24  C    0.087889
    25  C   -0.253551
    26  S   -0.640010
    27  C   -0.619846
    28  H    0.125752
    29  C    0.425697
    30  O   -0.232770
    31  C    0.775208
    32  C    0.461249
    33  S   -0.270533
    34  C   -0.295753
    35  O   -0.227817
    36  C   -0.210055
    37  H    0.120977
    38  H    0.166124
    39  H    0.270116
    40  H    0.275036
    41  H    0.356677
    42  H    0.351211
 Sum of Mulliken charges =  -0.00000

 Dipole moment (field-independent basis, Debye):
    X=             -5.1385    Y=             -0.5448    Z=             -0.1802  Tot=              5.1704
 Quadrupole moment (field-independent basis, Debye-Ang):
   XX=           -185.2988   YY=           -200.5306   ZZ=           -195.8622
   XY=              8.5664   XZ=             -4.4261   YZ=            -11.4689

 Normal termination of Gaussian 16 at Tue Nov 17 15:12:38 2020.
