 Gaussian 16, Revision C.01,
 Gaussian 16:  ES64L-G16RevC.01  3-Jul-2019

 -------------------------------------
 # opt=modredundant b3lyp/6-311+g(d,p)
 -------------------------------------

 -----------
 NDI_-70.pdb
 -----------
 Symbolic Z-matrix:
 Charge =  0 Multiplicity = 1

 SCF Done:  E(RB3LYP) =  -2202.04434337     A.U. after   17 cycles
 SCF Done:  E(RB3LYP) =  -2202.07149441     A.U. after   14 cycles
 SCF Done:  E(RB3LYP) =  -2202.07832334     A.U. after   14 cycles
 SCF Done:  E(RB3LYP) =  -2202.08107522     A.U. after   13 cycles
 SCF Done:  E(RB3LYP) =  -2202.08115385     A.U. after   13 cycles
 SCF Done:  E(RB3LYP) =  -2202.08153677     A.U. after   13 cycles
 SCF Done:  E(RB3LYP) =  -2202.08158855     A.U. after   13 cycles
 SCF Done:  E(RB3LYP) =  -2202.08160354     A.U. after   12 cycles
 SCF Done:  E(RB3LYP) =  -2202.08162050     A.U. after   11 cycles
 SCF Done:  E(RB3LYP) =  -2202.08162496     A.U. after   11 cycles
 SCF Done:  E(RB3LYP) =  -2202.08162908     A.U. after   11 cycles
 SCF Done:  E(RB3LYP) =  -2202.08163108     A.U. after   11 cycles
 SCF Done:  E(RB3LYP) =  -2202.08163360     A.U. after   10 cycles
 SCF Done:  E(RB3LYP) =  -2202.08163795     A.U. after   11 cycles
 SCF Done:  E(RB3LYP) =  -2202.08163942     A.U. after   11 cycles
 SCF Done:  E(RB3LYP) =  -2202.08163966     A.U. after   10 cycles
 Optimization completed.
    -- Stationary point found.

                         Standard orientation:
 ---------------------------------------------------------------------
 Center     Atomic      Atomic             Coordinates (Angstroms)
 Number     Number       Type             X           Y           Z
 ---------------------------------------------------------------------
      1          6           0        2.686765   -3.010623    0.454835
      2          6           0        2.289128   -1.584117    0.299400
      3          6           0        3.272854   -0.588773    0.071845
      4          6           0        4.646629   -0.923167   -0.022367
      5          6           0        5.080516   -2.337628    0.134877
      6          6           0        0.961961   -1.240789    0.386295
      7          6           0        2.856447    0.765137   -0.076616
      8          6           0        1.471147    1.105059    0.027858
      9          6           0        0.520108    0.105483    0.287872
     10          6           0        1.077467    2.530246   -0.179629
     11          6           0        3.483586    3.158868   -0.550288
     12          6           0        3.857886    1.738813   -0.344144
     13          6           0        5.193065    1.385648   -0.433854
     14          6           0        5.593574    0.054034   -0.268039
     15          1           0        6.635988   -0.230691   -0.336049
     16          1           0        5.917083    2.164221   -0.639828
     17          1           0        0.236832   -2.023482    0.569802
     18          7           0        2.122679    3.410308   -0.473573
     19          7           0        4.054576   -3.253954    0.357154
     20          8           0        1.904681   -3.917355    0.652973
     21          8           0        6.237295   -2.702156    0.077541
     22          8           0        4.277476    4.051316   -0.776512
     23          8           0       -0.054693    2.964322   -0.122402
     24          6           0       -0.929864    0.326362    0.424541
     25          6           0       -1.614803    0.958022    1.428922
     26         16           0       -2.025149   -0.532039   -0.633292
     27          6           0       -3.015427    0.799803    1.327798
     28          1           0       -1.133573    1.529221    2.212313
     29          6           0       -3.433303    0.026453    0.257704
     30          8           0       -3.924599    1.332007    2.202019
     31          6           0       -4.781730   -0.274920   -0.151371
     32          6           0       -5.194523   -1.084511   -1.194620
     33         16           0       -6.197367    0.391108    0.659893
     34          6           0       -6.603958   -1.175459   -1.346276
     35          8           0       -4.280422   -1.716482   -1.991639
     36          6           0       -7.269568   -0.432443   -0.414134
     37          1           0       -7.090922   -1.765556   -2.112979
     38          1           0       -8.336183   -0.323169   -0.292381
     39          1           0       -4.727810   -2.311883   -2.600840
     40          1           0       -3.528467    2.066737    2.681226
     41          1           0        4.341178   -4.220999    0.464152
     42          1           0        1.839691    4.373811   -0.615596
 ---------------------------------------------------------------------

 The electronic state is 1-A.
 Alpha  occ. eigenvalues --  -88.88724 -88.88415 -19.17457 -19.17162 -19.13385
 Alpha  occ. eigenvalues --  -19.13383 -19.12953 -19.12933 -14.38779 -14.38398
 Alpha  occ. eigenvalues --  -10.32100 -10.32077 -10.31962 -10.31613 -10.24955
 Alpha  occ. eigenvalues --  -10.24844 -10.24603 -10.24199 -10.23905 -10.23880
 Alpha  occ. eigenvalues --  -10.23375 -10.23357 -10.23221 -10.22481 -10.22388
 Alpha  occ. eigenvalues --  -10.22284 -10.22258 -10.22206 -10.21856 -10.21152
 Alpha  occ. eigenvalues --  -10.19375 -10.19176  -7.97279  -7.96969  -5.93606
 Alpha  occ. eigenvalues --   -5.93285  -5.93212  -5.92893  -5.92814  -5.92528
 Alpha  occ. eigenvalues --   -1.09545  -1.09269  -1.08452  -1.08153  -1.07818
 Alpha  occ. eigenvalues --   -1.07470  -0.96794  -0.96316  -0.93125  -0.90627
 Alpha  occ. eigenvalues --   -0.89116  -0.87532  -0.84557  -0.81024  -0.79596
 Alpha  occ. eigenvalues --   -0.77836  -0.74880  -0.74157  -0.73093  -0.71869
 Alpha  occ. eigenvalues --   -0.71588  -0.68462  -0.67293  -0.65819  -0.63496
 Alpha  occ. eigenvalues --   -0.61870  -0.61689  -0.60693  -0.59137  -0.57567
 Alpha  occ. eigenvalues --   -0.56777  -0.55546  -0.54602  -0.52795  -0.52190
 Alpha  occ. eigenvalues --   -0.51120  -0.50908  -0.50593  -0.49597  -0.48876
 Alpha  occ. eigenvalues --   -0.48603  -0.48104  -0.47705  -0.46442  -0.46262
 Alpha  occ. eigenvalues --   -0.46152  -0.45454  -0.44696  -0.44320  -0.43838
 Alpha  occ. eigenvalues --   -0.43484  -0.43352  -0.42755  -0.42652  -0.42469
 Alpha  occ. eigenvalues --   -0.40884  -0.40109  -0.39504  -0.39021  -0.38303
 Alpha  occ. eigenvalues --   -0.36732  -0.36208  -0.35931  -0.35435  -0.34293
 Alpha  occ. eigenvalues --   -0.33417  -0.32119  -0.31587  -0.31335  -0.31190
 Alpha  occ. eigenvalues --   -0.30203  -0.29617  -0.29174  -0.28088  -0.27187
 Alpha  occ. eigenvalues --   -0.25177  -0.25000  -0.20071
 Alpha virt. eigenvalues --   -0.14053  -0.08012  -0.07037  -0.05617  -0.04745
 Alpha virt. eigenvalues --   -0.02196  -0.01270  -0.01126  -0.00842   0.00061
 Alpha virt. eigenvalues --    0.00280   0.00375   0.00467   0.01008   0.01650

 Mulliken charges:
               1
     1  C    0.502703
     2  C   -0.143823
     3  C    0.253966
     4  C    0.143978
     5  C    0.255276
     6  C   -0.476357
     7  C    0.223302
     8  C   -0.084481
     9  C    0.279018
    10  C    0.122654
    11  C    0.331262
    12  C    0.061951
    13  C   -0.388250
    14  C   -0.592896
    15  H    0.166662
    16  H    0.167254
    17  H    0.186111
    18  N   -0.427101
    19  N   -0.405784
    20  O   -0.277156
    21  O   -0.277271
    22  O   -0.285208
    23  O   -0.176533
    24  C    0.148328
    25  C   -0.414203
    26  S   -0.405243
    27  C   -0.543982
    28  H    0.110330
    29  C    0.611433
    30  O   -0.252334
    31  C    0.624336
    32  C    0.434251
    33  S   -0.285123
    34  C   -0.274746
    35  O   -0.243666
    36  C   -0.202192
    37  H    0.117999
    38  H    0.162734
    39  H    0.266255
    40  H    0.271176
    41  H    0.357940
    42  H    0.357430
 Sum of Mulliken charges =  -0.00000

 Dipole moment (field-independent basis, Debye):
    X=             -2.8265    Y=             -0.1100    Z=             -0.1289  Tot=              2.8316
 Quadrupole moment (field-independent basis, Debye-Ang):
   XX=           -189.9237   YY=           -208.6614   ZZ=           -185.9104
   XY=              6.2135   XZ=             10.1964   YZ=             15.5802

 Normal termination of Gaussian 16 at Tue Nov 17 12:39:12 2020.
