 Gaussian 16, Revision C.01,
 Gaussian 16:  ES64L-G16RevC.01  3-Jul-2019

 -------------------------------------
 # opt=modredundant b3lyp/6-311+g(d,p)
 -------------------------------------

 -----------
 NDI_150.pdb
 -----------
 Symbolic Z-matrix:
 Charge =  0 Multiplicity = 1

 SCF Done:  E(RB3LYP) =  -2202.02722636     A.U. after   18 cycles
 SCF Done:  E(RB3LYP) =  -2202.05149101     A.U. after   17 cycles
 SCF Done:  E(RB3LYP) =  -2202.07073451     A.U. after   15 cycles
 SCF Done:  E(RB3LYP) =  -2202.07830090     A.U. after   16 cycles
 SCF Done:  E(RB3LYP) =  -2202.08058360     A.U. after   16 cycles
 SCF Done:  E(RB3LYP) =  -2202.08076135     A.U. after   14 cycles
 SCF Done:  E(RB3LYP) =  -2202.08127221     A.U. after   13 cycles
 SCF Done:  E(RB3LYP) =  -2202.08141854     A.U. after   13 cycles
 SCF Done:  E(RB3LYP) =  -2202.08149058     A.U. after   16 cycles
 SCF Done:  E(RB3LYP) =  -2202.08163806     A.U. after   14 cycles
 SCF Done:  E(RB3LYP) =  -2202.08171316     A.U. after   11 cycles
 SCF Done:  E(RB3LYP) =  -2202.08171474     A.U. after   11 cycles
 SCF Done:  E(RB3LYP) =  -2202.08171597     A.U. after   11 cycles
 SCF Done:  E(RB3LYP) =  -2202.08171672     A.U. after   10 cycles
 SCF Done:  E(RB3LYP) =  -2202.08171760     A.U. after   11 cycles
 SCF Done:  E(RB3LYP) =  -2202.08171834     A.U. after   10 cycles
 SCF Done:  E(RB3LYP) =  -2202.08171884     A.U. after   10 cycles
 SCF Done:  E(RB3LYP) =  -2202.08171911     A.U. after   10 cycles
 SCF Done:  E(RB3LYP) =  -2202.08171929     A.U. after   10 cycles
 SCF Done:  E(RB3LYP) =  -2202.08171935     A.U. after    9 cycles
 Optimization completed.
    -- Stationary point found.

                         Standard orientation:
 ---------------------------------------------------------------------
 Center     Atomic      Atomic             Coordinates (Angstroms)
 Number     Number       Type             X           Y           Z
 ---------------------------------------------------------------------
      1          6           0       -3.260987   -2.929064   -0.201412
      2          6           0       -2.601872   -1.612521    0.013253
      3          6           0       -3.349982   -0.411681   -0.098034
      4          6           0       -4.725392   -0.430974   -0.429132
      5          6           0       -5.413435   -1.728157   -0.663732
      6          6           0       -1.256824   -1.569743    0.275540
      7          6           0       -2.687387    0.825526    0.140855
      8          6           0       -1.295046    0.846876    0.467107
      9          6           0       -0.550173   -0.349424    0.470935
     10          6           0       -0.720856    2.138500    0.935302
     11          6           0       -2.835356    3.334653    0.304197
     12          6           0       -3.458150    2.016032    0.036106
     13          6           0       -4.800774    1.971865   -0.302097
     14          6           0       -5.440768    0.749544   -0.535243
     15          1           0       -6.491191    0.706067   -0.793752
     16          1           0       -5.341327    2.907364   -0.376217
     17          1           0       -0.713649   -2.505454    0.281775
     18          7           0       -1.516289    3.268833    0.725127
     19          7           0       -4.613617   -2.862355   -0.521729
     20          8           0       -2.692495   -3.999040   -0.110917
     21          8           0       -6.587343   -1.832269   -0.956161
     22          8           0       -3.411807    4.400370    0.199004
     23          8           0        0.345815    2.265792    1.502053
     24          6           0        0.903872   -0.478308    0.562528
     25          6           0        1.580852   -1.541253    1.132090
     26         16           0        2.013487    0.561235   -0.291533
     27          6           0        2.969489   -1.500859    0.914832
     28          1           0        1.095688   -2.310993    1.720033
     29          6           0        3.393383   -0.432558    0.133536
     30          8           0        3.871854   -2.404227    1.403359
     31          6           0        4.732789   -0.126045   -0.291705
     32          6           0        5.155532    0.937962   -1.072432
     33         16           0        6.127187   -1.111838    0.147034
     34          6           0        6.554550    0.971927   -1.310472
     35          8           0        4.258093    1.844751   -1.557796
     36          6           0        7.202202   -0.070879   -0.711919
     37          1           0        7.047192    1.733708   -1.901988
     38          1           0        8.258483   -0.291268   -0.729356
     39          1           0        4.719543    2.588455   -1.958022
     40          1           0        3.414496   -3.128568    1.841816
     41          1           0       -5.077558   -3.751095   -0.675260
     42          1           0       -1.100073    4.144573    1.022204
 ---------------------------------------------------------------------

 The electronic state is 1-A.
 Alpha  occ. eigenvalues --  -88.88963 -88.88907 -19.17982 -19.17825 -19.13203
 Alpha  occ. eigenvalues --  -19.13128 -19.12461 -19.12397 -14.38561 -14.37891
 Alpha  occ. eigenvalues --  -10.31910 -10.31808 -10.31378 -10.31122 -10.25613
 Alpha  occ. eigenvalues --  -10.25494 -10.24416 -10.23741 -10.23407 -10.23171
 Alpha  occ. eigenvalues --  -10.23065 -10.23005 -10.22988 -10.22928 -10.22698
 Alpha  occ. eigenvalues --  -10.22424 -10.22259 -10.21770 -10.21750 -10.21715
 Alpha  occ. eigenvalues --  -10.20101 -10.19677  -7.97518  -7.97461  -5.93834
 Alpha  occ. eigenvalues --   -5.93789  -5.93441  -5.93389  -5.93077  -5.92993
 Alpha  occ. eigenvalues --   -1.09304  -1.09041  -1.08863  -1.08751  -1.07576
 Alpha  occ. eigenvalues --   -1.06952  -0.96521  -0.95854  -0.92769  -0.91012
 Alpha  occ. eigenvalues --   -0.89488  -0.87398  -0.84150  -0.81077  -0.79234
 Alpha  occ. eigenvalues --   -0.78060  -0.75375  -0.74567  -0.73453  -0.71528
 Alpha  occ. eigenvalues --   -0.71394  -0.68209  -0.67117  -0.65522  -0.63082
 Alpha  occ. eigenvalues --   -0.62430  -0.62012  -0.60959  -0.58965  -0.57442
 Alpha  occ. eigenvalues --   -0.57063  -0.55627  -0.54994  -0.52519  -0.51782
 Alpha  occ. eigenvalues --   -0.51097  -0.50725  -0.50598  -0.49452  -0.49179
 Alpha  occ. eigenvalues --   -0.48257  -0.47628  -0.47584  -0.46398  -0.45990
 Alpha  occ. eigenvalues --   -0.45912  -0.45353  -0.45048  -0.44761  -0.44005
 Alpha  occ. eigenvalues --   -0.43363  -0.43052  -0.42982  -0.42391  -0.42181
 Alpha  occ. eigenvalues --   -0.40777  -0.40110  -0.39871  -0.39210  -0.38566
 Alpha  occ. eigenvalues --   -0.37646  -0.36745  -0.36028  -0.35393  -0.34707
 Alpha  occ. eigenvalues --   -0.32973  -0.31808  -0.31465  -0.31137  -0.30562
 Alpha  occ. eigenvalues --   -0.30339  -0.29434  -0.28683  -0.28209  -0.26809
 Alpha  occ. eigenvalues --   -0.25624  -0.25146  -0.20432
 Alpha virt. eigenvalues --   -0.13735  -0.08167  -0.07147  -0.05274  -0.04324
 Alpha virt. eigenvalues --   -0.02627  -0.01594  -0.01212  -0.00744  -0.00089
 Alpha virt. eigenvalues --    0.00453   0.00560   0.00900   0.01367   0.01853

 Mulliken charges:
               1
     1  C    0.415752
     2  C   -0.152378
     3  C    0.195834
     4  C    0.187435
     5  C    0.271228
     6  C   -0.117147
     7  C    0.145608
     8  C   -0.123676
     9  C    0.234011
    10  C    0.096523
    11  C    0.311355
    12  C    0.058685
    13  C   -0.395599
    14  C   -0.543025
    15  H    0.164795
    16  H    0.166062
    17  H    0.162273
    18  N   -0.347322
    19  N   -0.404005
    20  O   -0.288664
    21  O   -0.277289
    22  O   -0.290757
    23  O   -0.233327
    24  C    0.288369
    25  C   -0.355162
    26  S   -0.667154
    27  C   -0.391242
    28  H    0.122437
    29  C    0.462016
    30  O   -0.222565
    31  C    0.715118
    32  C    0.258320
    33  S   -0.241232
    34  C   -0.248230
    35  O   -0.242884
    36  C   -0.241930
    37  H    0.119971
    38  H    0.165160
    39  H    0.269416
    40  H    0.268210
    41  H    0.356009
    42  H    0.349003
 Sum of Mulliken charges =  -0.00000

 Dipole moment (field-independent basis, Debye):
    X=              4.4212    Y=             -0.2923    Z=             -0.6412  Tot=              4.4770
 Quadrupole moment (field-independent basis, Debye-Ang):
   XX=           -186.5639   YY=           -202.8933   ZZ=           -193.6890
   XY=              6.5181   XZ=            -12.1719   YZ=            -13.5730

 Normal termination of Gaussian 16 at Tue Nov 17 14:17:24 2020.
