 Gaussian 16, Revision C.01,
 Gaussian 16:  ES64L-G16RevC.01  3-Jul-2019

 -------------------------------------
 # opt=modredundant b3lyp/6-311+g(d,p)
 -------------------------------------

 -----------
 NDI_120.pdb
 -----------
 Symbolic Z-matrix:
 Charge =  0 Multiplicity = 1

 SCF Done:  E(RB3LYP) =  -2202.04343778     A.U. after   17 cycles
 SCF Done:  E(RB3LYP) =  -2202.07077940     A.U. after   15 cycles
 SCF Done:  E(RB3LYP) =  -2202.07730908     A.U. after   15 cycles
 SCF Done:  E(RB3LYP) =  -2202.07987981     A.U. after   17 cycles
 SCF Done:  E(RB3LYP) =  -2202.08092158     A.U. after   14 cycles
 SCF Done:  E(RB3LYP) =  -2202.08094992     A.U. after   14 cycles
 SCF Done:  E(RB3LYP) =  -2202.08120851     A.U. after   13 cycles
 SCF Done:  E(RB3LYP) =  -2202.08124811     A.U. after   12 cycles
 SCF Done:  E(RB3LYP) =  -2202.08128017     A.U. after   12 cycles
 SCF Done:  E(RB3LYP) =  -2202.08128745     A.U. after   12 cycles
 SCF Done:  E(RB3LYP) =  -2202.08129304     A.U. after   11 cycles
 SCF Done:  E(RB3LYP) =  -2202.08129446     A.U. after   11 cycles
 SCF Done:  E(RB3LYP) =  -2202.08129525     A.U. after   11 cycles
 SCF Done:  E(RB3LYP) =  -2202.08129764     A.U. after   11 cycles
 SCF Done:  E(RB3LYP) =  -2202.08129988     A.U. after   11 cycles
 SCF Done:  E(RB3LYP) =  -2202.08130134     A.U. after   11 cycles
 SCF Done:  E(RB3LYP) =  -2202.08130238     A.U. after   11 cycles
 SCF Done:  E(RB3LYP) =  -2202.08130276     A.U. after   11 cycles
 SCF Done:  E(RB3LYP) =  -2202.08130291     A.U. after   10 cycles
 Optimization completed.
    -- Stationary point found.

                         Standard orientation:
 ---------------------------------------------------------------------
 Center     Atomic      Atomic             Coordinates (Angstroms)
 Number     Number       Type             X           Y           Z
 ---------------------------------------------------------------------
      1          6           0        3.282115   -2.932262    0.230280
      2          6           0        2.611378   -1.619918    0.023750
      3          6           0        3.359634   -0.417321    0.094372
      4          6           0        4.748552   -0.430221    0.375108
      5          6           0        5.448066   -1.723419    0.601690
      6          6           0        1.256641   -1.580463   -0.207587
      7          6           0        2.692661    0.819898   -0.133101
      8          6           0        1.291849    0.835714   -0.411458
      9          6           0        0.559529   -0.359191   -0.392837
     10          6           0        0.670308    2.131293   -0.817309
     11          6           0        2.821092    3.329323   -0.318261
     12          6           0        3.461993    2.013514   -0.068862
     13          6           0        4.815406    1.973866    0.216370
     14          6           0        5.463727    0.751635    0.438641
     15          1           0        6.523353    0.711904    0.657830
     16          1           0        5.359460    2.909226    0.260344
     17          1           0        0.702376   -2.510704   -0.213796
     18          7           0        1.479443    3.261035   -0.662767
     19          7           0        4.645655   -2.859213    0.504197
     20          8           0        2.714159   -4.003735    0.170974
     21          8           0        6.632188   -1.819709    0.852149
     22          8           0        3.401811    4.395070   -0.252852
     23          8           0       -0.441712    2.255936   -1.284335
     24          6           0       -0.902259   -0.459335   -0.529527
     25          6           0       -1.598423   -1.130809   -1.502029
     26         16           0       -1.977004    0.235071    0.651504
     27          6           0       -2.999940   -1.066390   -1.316474
     28          1           0       -1.125640   -1.623367   -2.343404
     29          6           0       -3.397821   -0.372263   -0.186345
     30          8           0       -3.925614   -1.625880   -2.153655
     31          6           0       -4.737006   -0.165390    0.305764
     32          6           0       -5.131800    0.535148    1.431375
     33         16           0       -6.163554   -0.806599   -0.506042
     34          6           0       -6.536222    0.567300    1.642102
     35          8           0       -4.205629    1.119505    2.251434
     36          6           0       -7.216606   -0.112820    0.673445
     37          1           0       -7.008904    1.069768    2.477126
     38          1           0       -8.283227   -0.249580    0.584034
     39          1           0       -4.643257    1.693628    2.887597
     40          1           0       -3.487188   -2.159287   -2.823702
     41          1           0        5.115715   -3.745813    0.651975
     42          1           0        1.041676    4.139101   -0.919758
 ---------------------------------------------------------------------

 The electronic state is 1-A.
 Alpha  occ. eigenvalues --  -88.88513 -88.88335 -19.17336 -19.17336 -19.13446
 Alpha  occ. eigenvalues --  -19.13418 -19.12949 -19.12899 -14.38822 -14.38321
 Alpha  occ. eigenvalues --  -10.32160 -10.32113 -10.31832 -10.31625 -10.24948
 Alpha  occ. eigenvalues --  -10.24819 -10.24476 -10.24165 -10.23934 -10.23800
 Alpha  occ. eigenvalues --  -10.23407 -10.23381 -10.23255 -10.22527 -10.22490
 Alpha  occ. eigenvalues --  -10.22306 -10.22246 -10.22187 -10.21775 -10.21050
 Alpha  occ. eigenvalues --  -10.19529 -10.19077  -7.97068  -7.96892  -5.93399
 Alpha  occ. eigenvalues --   -5.93208  -5.93004  -5.92815  -5.92595  -5.92451
 Alpha  occ. eigenvalues --   -1.09580  -1.09212  -1.08374  -1.08287  -1.07857
 Alpha  occ. eigenvalues --   -1.07443  -0.96822  -0.96282  -0.93155  -0.90583
 Alpha  occ. eigenvalues --   -0.89061  -0.87554  -0.84577  -0.81056  -0.79614
 Alpha  occ. eigenvalues --   -0.77777  -0.74795  -0.74016  -0.73286  -0.71873
 Alpha  occ. eigenvalues --   -0.71488  -0.68458  -0.67337  -0.65803  -0.63490
 Alpha  occ. eigenvalues --   -0.61933  -0.61610  -0.60663  -0.59177  -0.57546
 Alpha  occ. eigenvalues --   -0.56704  -0.55607  -0.54603  -0.52825  -0.52081
 Alpha  occ. eigenvalues --   -0.51207  -0.50951  -0.50608  -0.49598  -0.48822
 Alpha  occ. eigenvalues --   -0.48534  -0.48140  -0.47713  -0.46499  -0.46327
 Alpha  occ. eigenvalues --   -0.46134  -0.45506  -0.44659  -0.44295  -0.43807
 Alpha  occ. eigenvalues --   -0.43540  -0.43328  -0.42798  -0.42546  -0.42399
 Alpha  occ. eigenvalues --   -0.40984  -0.39842  -0.39702  -0.38867  -0.38438
 Alpha  occ. eigenvalues --   -0.36969  -0.36152  -0.35743  -0.35349  -0.34367
 Alpha  occ. eigenvalues --   -0.33406  -0.32098  -0.31625  -0.31360  -0.30962
 Alpha  occ. eigenvalues --   -0.30101  -0.29637  -0.29104  -0.28240  -0.27191
 Alpha  occ. eigenvalues --   -0.25174  -0.24823  -0.19976
 Alpha virt. eigenvalues --   -0.14055  -0.08020  -0.06998  -0.05602  -0.04634
 Alpha virt. eigenvalues --   -0.02289  -0.01279  -0.01118  -0.01090   0.00169
 Alpha virt. eigenvalues --    0.00298   0.00307   0.00527   0.01000   0.01669

 Mulliken charges:
               1
     1  C    0.508433
     2  C   -0.189209
     3  C    0.217625
     4  C    0.170040
     5  C    0.277830
     6  C   -0.331802
     7  C    0.162961
     8  C   -0.199765
     9  C    0.175280
    10  C    0.171937
    11  C    0.267684
    12  C    0.087269
    13  C   -0.367483
    14  C   -0.619716
    15  H    0.166946
    16  H    0.167051
    17  H    0.166412
    18  N   -0.377839
    19  N   -0.401187
    20  O   -0.280117
    21  O   -0.278678
    22  O   -0.285836
    23  O   -0.199182
    24  C    0.593248
    25  C   -0.550157
    26  S   -0.404969
    27  C   -0.468849
    28  H    0.110523
    29  C    0.442760
    30  O   -0.218494
    31  C    0.665834
    32  C    0.291044
    33  S   -0.260551
    34  C   -0.234779
    35  O   -0.256246
    36  C   -0.241124
    37  H    0.117508
    38  H    0.162335
    39  H    0.268332
    40  H    0.264482
    41  H    0.357806
    42  H    0.352640
 Sum of Mulliken charges =  -0.00000

 Dipole moment (field-independent basis, Debye):
    X=             -2.6769    Y=             -0.0224    Z=              0.3127  Tot=              2.6952
 Quadrupole moment (field-independent basis, Debye-Ang):
   XX=           -190.8252   YY=           -210.7633   ZZ=           -183.7936
   XY=             -3.4587   XZ=            -12.6391   YZ=             13.8931

 Normal termination of Gaussian 16 at Tue Nov 17 13:27:43 2020.
