 Gaussian 16, Revision C.01,
 Gaussian 16:  ES64L-G16RevC.01  3-Jul-2019

 -------------------------------------
 # opt=modredundant b3lyp/6-311+g(d,p)
 -------------------------------------

 -----------
 NDI_140.pdb
 -----------
 Symbolic Z-matrix:
 Charge =  0 Multiplicity = 1

 SCF Done:  E(RB3LYP) =  -2202.03609893     A.U. after   18 cycles
 SCF Done:  E(RB3LYP) =  -2202.06008171     A.U. after   17 cycles
 SCF Done:  E(RB3LYP) =  -2202.07223879     A.U. after   14 cycles
 SCF Done:  E(RB3LYP) =  -2202.07987580     A.U. after   16 cycles
 SCF Done:  E(RB3LYP) =  -2202.08145985     A.U. after   14 cycles
 SCF Done:  E(RB3LYP) =  -2202.08151203     A.U. after   14 cycles
 SCF Done:  E(RB3LYP) =  -2202.08181021     A.U. after   13 cycles
 SCF Done:  E(RB3LYP) =  -2202.08189175     A.U. after   13 cycles
 SCF Done:  E(RB3LYP) =  -2202.08194515     A.U. after   13 cycles
 SCF Done:  E(RB3LYP) =  -2202.08195934     A.U. after   12 cycles
 SCF Done:  E(RB3LYP) =  -2202.08196875     A.U. after   12 cycles
 SCF Done:  E(RB3LYP) =  -2202.08197174     A.U. after   11 cycles
 SCF Done:  E(RB3LYP) =  -2202.08197427     A.U. after   10 cycles
 SCF Done:  E(RB3LYP) =  -2202.08197758     A.U. after   11 cycles
 SCF Done:  E(RB3LYP) =  -2202.08197879     A.U. after   10 cycles
 SCF Done:  E(RB3LYP) =  -2202.08198035     A.U. after   11 cycles
 SCF Done:  E(RB3LYP) =  -2202.08198098     A.U. after   11 cycles
 SCF Done:  E(RB3LYP) =  -2202.08198125     A.U. after   11 cycles
 SCF Done:  E(RB3LYP) =  -2202.08198133     A.U. after    9 cycles
 Optimization completed.
    -- Stationary point found.

                         Standard orientation:
 ---------------------------------------------------------------------
 Center     Atomic      Atomic             Coordinates (Angstroms)
 Number     Number       Type             X           Y           Z
 ---------------------------------------------------------------------
      1          6           0        3.272893   -2.927412    0.238700
      2          6           0        2.606737   -1.615928    0.014757
      3          6           0        3.352381   -0.411660    0.102316
      4          6           0        4.732144   -0.422552    0.418436
      5          6           0        5.426621   -1.714570    0.663634
      6          6           0        1.258042   -1.579315   -0.237117
      7          6           0        2.686645    0.822099   -0.146238
      8          6           0        1.291911    0.835726   -0.458159
      9          6           0        0.553593   -0.360945   -0.438019
     10          6           0        0.701612    2.119996   -0.931175
     11          6           0        2.822425    3.329322   -0.345138
     12          6           0        3.454260    2.016214   -0.066930
     13          6           0        4.800276    1.979667    0.256275
     14          6           0        5.444999    0.760969    0.499401
     15          1           0        6.498410    0.723398    0.746649
     16          1           0        5.340364    2.916743    0.311450
     17          1           0        0.710700   -2.513253   -0.234635
     18          7           0        1.497097    3.254935   -0.745996
     19          7           0        4.628661   -2.852372    0.545330
     20          8           0        2.707448   -4.000086    0.166738
     21          8           0        6.603789   -1.810720    0.945401
     22          8           0        3.397408    4.397530   -0.262470
     23          8           0       -0.374321    2.234602   -1.481183
     24          6           0       -0.902187   -0.481244   -0.538804
     25          6           0       -1.589583   -1.441810   -1.249927
     26         16           0       -1.994675    0.471580    0.428497
     27          6           0       -2.983449   -1.388879   -1.048595
     28          1           0       -1.109817   -2.140992   -1.924458
     29          6           0       -3.394159   -0.416681   -0.146632
     30          8           0       -3.898571   -2.199528   -1.660681
     31          6           0       -4.732490   -0.132999    0.300777
     32          6           0       -5.141605    0.837890    1.199767
     33         16           0       -6.141931   -1.026860   -0.266590
     34          6           0       -6.542570    0.874723    1.427526
     35          8           0       -4.230557    1.659558    1.800511
     36          6           0       -7.205556   -0.072974    0.701566
     37          1           0       -7.025549    1.570746    2.102259
     38          1           0       -8.266466   -0.269426    0.681525
     39          1           0       -4.681674    2.363118    2.277577
     40          1           0       -3.450571   -2.881249   -2.171097
     41          1           0        5.096652   -3.737864    0.705386
     42          1           0        1.074125    4.126636   -1.045560
 ---------------------------------------------------------------------

 The electronic state is 1-A.
 Alpha  occ. eigenvalues --  -88.88803 -88.88774 -19.17794 -19.17694 -19.13269
 Alpha  occ. eigenvalues --  -19.13211 -19.12608 -19.12537 -14.38635 -14.38011
 Alpha  occ. eigenvalues --  -10.31981 -10.31896 -10.31505 -10.31277 -10.25373
 Alpha  occ. eigenvalues --  -10.25355 -10.24391 -10.23861 -10.23572 -10.23344
 Alpha  occ. eigenvalues --  -10.23133 -10.23065 -10.22867 -10.22846 -10.22815
 Alpha  occ. eigenvalues --  -10.22337 -10.22232 -10.21933 -10.21880 -10.21537
 Alpha  occ. eigenvalues --  -10.19934 -10.19497  -7.97360  -7.97330  -5.93689
 Alpha  occ. eigenvalues --   -5.93646  -5.93292  -5.93252  -5.92890  -5.92888
 Alpha  occ. eigenvalues --   -1.09382  -1.08877  -1.08834  -1.08716  -1.07655
 Alpha  occ. eigenvalues --   -1.07092  -0.96605  -0.95974  -0.92883  -0.90891
 Alpha  occ. eigenvalues --   -0.89359  -0.87461  -0.84279  -0.81063  -0.79346
 Alpha  occ. eigenvalues --   -0.77989  -0.75206  -0.74400  -0.73401  -0.71613
 Alpha  occ. eigenvalues --   -0.71452  -0.68270  -0.67186  -0.65596  -0.63201
 Alpha  occ. eigenvalues --   -0.62275  -0.61896  -0.60884  -0.59023  -0.57397
 Alpha  occ. eigenvalues --   -0.57031  -0.55578  -0.54918  -0.52594  -0.51853
 Alpha  occ. eigenvalues --   -0.51135  -0.50747  -0.50691  -0.49453  -0.49110
 Alpha  occ. eigenvalues --   -0.48334  -0.47758  -0.47638  -0.46430  -0.46080
 Alpha  occ. eigenvalues --   -0.45967  -0.45348  -0.44955  -0.44653  -0.43971
 Alpha  occ. eigenvalues --   -0.43400  -0.43114  -0.42873  -0.42492  -0.42273
 Alpha  occ. eigenvalues --   -0.40820  -0.40002  -0.39852  -0.39111  -0.38589
 Alpha  occ. eigenvalues --   -0.37419  -0.36566  -0.35935  -0.35405  -0.34645
 Alpha  occ. eigenvalues --   -0.33094  -0.31891  -0.31492  -0.31192  -0.30666
 Alpha  occ. eigenvalues --   -0.30278  -0.29494  -0.28786  -0.28255  -0.26902
 Alpha  occ. eigenvalues --   -0.25496  -0.25081  -0.20304
 Alpha virt. eigenvalues --   -0.13826  -0.08045  -0.07139  -0.05385  -0.04402
 Alpha virt. eigenvalues --   -0.02534  -0.01501  -0.01221  -0.00882   0.00031
 Alpha virt. eigenvalues --    0.00366   0.00477   0.00774   0.01239   0.01821

 Mulliken charges:
               1
     1  C    0.443926
     2  C   -0.170836
     3  C    0.186841
     4  C    0.193690
     5  C    0.273663
     6  C   -0.211829
     7  C    0.134593
     8  C   -0.143968
     9  C    0.216043
    10  C    0.130513
    11  C    0.290059
    12  C    0.066084
    13  C   -0.382683
    14  C   -0.563848
    15  H    0.165506
    16  H    0.166340
    17  H    0.164415
    18  N   -0.354829
    19  N   -0.402790
    20  O   -0.285882
    21  O   -0.277859
    22  O   -0.289635
    23  O   -0.227297
    24  C    0.399637
    25  C   -0.419019
    26  S   -0.592563
    27  C   -0.400713
    28  H    0.120690
    29  C    0.479809
    30  O   -0.221292
    31  C    0.708518
    32  C    0.260632
    33  S   -0.246926
    34  C   -0.244074
    35  O   -0.247523
    36  C   -0.243624
    37  H    0.119219
    38  H    0.164309
    39  H    0.269138
    40  H    0.266791
    41  H    0.356505
    42  H    0.350270
 Sum of Mulliken charges =  -0.00000

 Dipole moment (field-independent basis, Debye):
    X=             -3.8965    Y=             -0.2207    Z=              0.5605  Tot=              3.9428
 Quadrupole moment (field-independent basis, Debye-Ang):
   XX=           -187.9222   YY=           -205.0181   ZZ=           -190.9008
   XY=             -5.5889   XZ=            -12.4435   YZ=             14.6284

 Normal termination of Gaussian 16 at Tue Nov 17 13:31:30 2020.
