 Gaussian 16, Revision C.01,
 Gaussian 16:  ES64L-G16RevC.01  3-Jul-2019

 -------------------------------------
 # opt=modredundant b3lyp/6-311+g(d,p)
 -------------------------------------

 -----------
 NDI_-90.pdb
 -----------
 Symbolic Z-matrix:
 Charge =  0 Multiplicity = 1

 SCF Done:  E(RB3LYP) =  -2202.04117493     A.U. after   21 cycles
 SCF Done:  E(RB3LYP) =  -2202.06920070     A.U. after   13 cycles
 SCF Done:  E(RB3LYP) =  -2202.07672135     A.U. after   14 cycles
 SCF Done:  E(RB3LYP) =  -2202.07948072     A.U. after   14 cycles
 SCF Done:  E(RB3LYP) =  -2202.07952790     A.U. after   14 cycles
 SCF Done:  E(RB3LYP) =  -2202.07994191     A.U. after   13 cycles
 SCF Done:  E(RB3LYP) =  -2202.07996927     A.U. after   13 cycles
 SCF Done:  E(RB3LYP) =  -2202.07998874     A.U. after   13 cycles
 SCF Done:  E(RB3LYP) =  -2202.07999477     A.U. after   12 cycles
 SCF Done:  E(RB3LYP) =  -2202.07999902     A.U. after   11 cycles
 SCF Done:  E(RB3LYP) =  -2202.08000204     A.U. after   11 cycles
 SCF Done:  E(RB3LYP) =  -2202.08000313     A.U. after   10 cycles
 SCF Done:  E(RB3LYP) =  -2202.08000420     A.U. after   10 cycles
 SCF Done:  E(RB3LYP) =  -2202.08000511     A.U. after   10 cycles
 SCF Done:  E(RB3LYP) =  -2202.08000658     A.U. after   10 cycles
 SCF Done:  E(RB3LYP) =  -2202.08000782     A.U. after   11 cycles
 SCF Done:  E(RB3LYP) =  -2202.08000812     A.U. after   10 cycles
 SCF Done:  E(RB3LYP) =  -2202.08000839     A.U. after   10 cycles
 SCF Done:  E(RB3LYP) =  -2202.08000849     A.U. after   10 cycles
 Optimization completed.
    -- Stationary point found.

                         Standard orientation:
 ---------------------------------------------------------------------
 Center     Atomic      Atomic             Coordinates (Angstroms)
 Number     Number       Type             X           Y           Z
 ---------------------------------------------------------------------
      1          6           0        3.012452   -2.995854    0.218551
      2          6           0        2.466128   -1.610746    0.196800
      3          6           0        3.330979   -0.506235   -0.000263
      4          6           0        4.725587   -0.687955   -0.186139
      5          6           0        5.305353   -2.058672   -0.172237
      6          6           0        1.115655   -1.410751    0.371045
      7          6           0        2.779585    0.806270   -0.013818
      8          6           0        1.375701    0.990832    0.174417
      9          6           0        0.544258   -0.114547    0.373952
     10          6           0        0.829822    2.384325    0.149833
     11          6           0        3.140200    3.289587   -0.253757
     12          6           0        3.663658    1.899960   -0.221892
     13          6           0        5.019056    1.695067   -0.401849
     14          6           0        5.554766    0.399107   -0.383321
     15          1           0        6.615201    0.230432   -0.523463
     16          1           0        5.654223    2.558165   -0.558107
     17          1           0        0.474003   -2.270585    0.517786
     18          7           0        1.769986    3.395146   -0.068748
     19          7           0        4.389713   -3.089096    0.029525
     20          8           0        2.337365   -3.989866    0.386662
     21          8           0        6.486444   -2.295723   -0.322340
     22          8           0        3.830473    4.274280   -0.426481
     23          8           0       -0.335106    2.680253    0.301231
     24          6           0       -0.921221   -0.035780    0.580218
     25          6           0       -1.600134    0.084668    1.758667
     26         16           0       -2.006882   -0.275942   -0.759663
     27          6           0       -3.008860    0.025307    1.586654
     28          1           0       -1.118295    0.224493    2.718659
     29          6           0       -3.421872   -0.164492    0.283846
     30          8           0       -3.918621    0.115566    2.607401
     31          6           0       -4.770115   -0.255667   -0.225933
     32          6           0       -5.176891   -0.468471   -1.528882
     33         16           0       -6.189942   -0.092650    0.803979
     34          6           0       -6.586538   -0.502965   -1.707984
     35          8           0       -4.258710   -0.618354   -2.534565
     36          6           0       -7.258606   -0.316755   -0.534826
     37          1           0       -7.068342   -0.656635   -2.665954
     38          1           0       -8.325791   -0.296882   -0.376814
     39          1           0       -4.701904   -0.877833   -3.348001
     40          1           0       -3.511467    0.529277    3.374797
     41          1           0        4.775347   -4.027259    0.041324
     42          1           0        1.389747    4.335310   -0.088452
 ---------------------------------------------------------------------

 The electronic state is 1-A.
 Alpha  occ. eigenvalues --  -88.88262 -88.87845 -19.16838 -19.16729 -19.13697
 Alpha  occ. eigenvalues --  -19.13689 -19.13410 -19.13388 -14.39075 -14.38770
 Alpha  occ. eigenvalues --  -10.32404 -10.32403 -10.32327 -10.32080 -10.24745
 Alpha  occ. eigenvalues --  -10.24578 -10.24404 -10.24365 -10.24299 -10.24231
 Alpha  occ. eigenvalues --  -10.23785 -10.23751 -10.23739 -10.22767 -10.22688
 Alpha  occ. eigenvalues --  -10.22685 -10.22145 -10.21491 -10.21250 -10.20513
 Alpha  occ. eigenvalues --  -10.18961 -10.18621  -7.96806  -7.96401  -5.93138
 Alpha  occ. eigenvalues --   -5.92742  -5.92717  -5.92337  -5.92325  -5.91961
 Alpha  occ. eigenvalues --   -1.09855  -1.09696  -1.08135  -1.07934  -1.07789
 Alpha  occ. eigenvalues --   -1.07662  -0.97127  -0.96705  -0.93524  -0.90285
 Alpha  occ. eigenvalues --   -0.88807  -0.87550  -0.84960  -0.81135  -0.79972
 Alpha  occ. eigenvalues --   -0.77480  -0.74379  -0.73709  -0.73057  -0.72243
 Alpha  occ. eigenvalues --   -0.71441  -0.68773  -0.67515  -0.66096  -0.63873
 Alpha  occ. eigenvalues --   -0.61685  -0.61175  -0.60377  -0.59331  -0.57847
 Alpha  occ. eigenvalues --   -0.56257  -0.55720  -0.54163  -0.53172  -0.52427
 Alpha  occ. eigenvalues --   -0.51443  -0.51145  -0.50409  -0.49728  -0.48948
 Alpha  occ. eigenvalues --   -0.48637  -0.48326  -0.47853  -0.46725  -0.46639
 Alpha  occ. eigenvalues --   -0.46322  -0.45698  -0.44393  -0.43907  -0.43804
 Alpha  occ. eigenvalues --   -0.43622  -0.43399  -0.43115  -0.42961  -0.41976
 Alpha  occ. eigenvalues --   -0.41228  -0.39970  -0.39291  -0.38586  -0.37952
 Alpha  occ. eigenvalues --   -0.36702  -0.35733  -0.35572  -0.35059  -0.33969
 Alpha  occ. eigenvalues --   -0.33719  -0.32389  -0.31850  -0.31566  -0.31504
 Alpha  occ. eigenvalues --   -0.30171  -0.29813  -0.29564  -0.27933  -0.27663
 Alpha  occ. eigenvalues --   -0.24831  -0.24463  -0.19605
 Alpha virt. eigenvalues --   -0.14370  -0.08249  -0.06989  -0.05815  -0.04803
 Alpha virt. eigenvalues --   -0.01939  -0.01415  -0.00938  -0.00667  -0.00184
 Alpha virt. eigenvalues --    0.00016   0.00236   0.00617   0.00800   0.01433

 Mulliken charges:
               1
     1  C    0.540503
     2  C   -0.149781
     3  C    0.291649
     4  C    0.132699
     5  C    0.257617
     6  C   -0.526533
     7  C    0.251813
     8  C   -0.211399
     9  C    0.306626
    10  C    0.140105
    11  C    0.295494
    12  C    0.081078
    13  C   -0.405371
    14  C   -0.640584
    15  H    0.168342
    16  H    0.168360
    17  H    0.173527
    18  N   -0.431603
    19  N   -0.406635
    20  O   -0.271222
    21  O   -0.277224
    22  O   -0.278472
    23  O   -0.132823
    24  C    0.414176
    25  C   -0.583221
    26  S   -0.174524
    27  C   -0.485468
    28  H    0.100435
    29  C    0.336328
    30  O   -0.248897
    31  C    0.620746
    32  C    0.459122
    33  S   -0.295009
    34  C   -0.276519
    35  O   -0.258685
    36  C   -0.213192
    37  H    0.115626
    38  H    0.160175
    39  H    0.264751
    40  H    0.268657
    41  H    0.359172
    42  H    0.360161
 Sum of Mulliken charges =  -0.00000

 Dipole moment (field-independent basis, Debye):
    X=             -1.1971    Y=              0.2625    Z=             -0.1253  Tot=              1.2319
 Quadrupole moment (field-independent basis, Debye-Ang):
   XX=           -193.0842   YY=           -217.0423   ZZ=           -176.4510
   XY=              2.5616   XZ=             11.9973   YZ=              7.4041

 Normal termination of Gaussian 16 at Tue Nov 17 13:16:31 2020.
