 Gaussian 16, Revision C.01,
 Gaussian 16:  ES64L-G16RevC.01  3-Jul-2019

 -------------------------------------
 # opt=modredundant b3lyp/6-311+g(d,p)
 -------------------------------------

 ----------
 NDI_80.pdb
 ----------
 Symbolic Z-matrix:
 Charge =  0 Multiplicity = 1

 SCF Done:  E(RB3LYP) =  -2202.04120927     A.U. after   20 cycles
 SCF Done:  E(RB3LYP) =  -2202.06872390     A.U. after   14 cycles
 SCF Done:  E(RB3LYP) =  -2202.07625571     A.U. after   15 cycles
 SCF Done:  E(RB3LYP) =  -2202.07947250     A.U. after   15 cycles
 SCF Done:  E(RB3LYP) =  -2202.07970988     A.U. after   14 cycles
 SCF Done:  E(RB3LYP) =  -2202.08011794     A.U. after   13 cycles
 SCF Done:  E(RB3LYP) =  -2202.08018878     A.U. after   14 cycles
 SCF Done:  E(RB3LYP) =  -2202.08023600     A.U. after   13 cycles
 SCF Done:  E(RB3LYP) =  -2202.08025886     A.U. after   13 cycles
 SCF Done:  E(RB3LYP) =  -2202.08028096     A.U. after   13 cycles
 SCF Done:  E(RB3LYP) =  -2202.08053575     A.U. after   14 cycles
 SCF Done:  E(RB3LYP) =  -2202.08051747     A.U. after   13 cycles
 SCF Done:  E(RB3LYP) =  -2202.08057813     A.U. after   13 cycles
 SCF Done:  E(RB3LYP) =  -2202.08058276     A.U. after   12 cycles
 SCF Done:  E(RB3LYP) =  -2202.08058689     A.U. after   11 cycles
 SCF Done:  E(RB3LYP) =  -2202.08058626     A.U. after   12 cycles
 SCF Done:  E(RB3LYP) =  -2202.08058751     A.U. after   11 cycles
 SCF Done:  E(RB3LYP) =  -2202.08058764     A.U. after    9 cycles
 SCF Done:  E(RB3LYP) =  -2202.08058771     A.U. after    9 cycles
 SCF Done:  E(RB3LYP) =  -2202.08058774     A.U. after    9 cycles
 Optimization completed.
    -- Stationary point found.

                         Standard orientation:
 ---------------------------------------------------------------------
 Center     Atomic      Atomic             Coordinates (Angstroms)
 Number     Number       Type             X           Y           Z
 ---------------------------------------------------------------------
      1          6           0        2.859710   -3.003299   -0.366354
      2          6           0        2.382720   -1.596739   -0.260277
      3          6           0        3.306581   -0.544818   -0.039605
      4          6           0        4.695244   -0.801179    0.089275
      5          6           0        5.207093   -2.194677   -0.014323
      6          6           0        1.040283   -1.325409   -0.386606
      7          6           0        2.818645    0.788964    0.061848
      8          6           0        1.419909    1.049034   -0.072274
      9          6           0        0.532404   -0.003274   -0.324166
     10          6           0        0.939287    2.455460    0.092616
     11          6           0        3.305351    3.232174    0.441062
     12          6           0        3.760569    1.825933    0.303896
     13          6           0        5.110233    1.548783    0.425514
     14          6           0        5.582606    0.233667    0.316378
     15          1           0        6.637435    0.008182    0.411233
     16          1           0        5.789940    2.371545    0.609526
     17          1           0        0.356671   -2.146556   -0.562603
     18          7           0        1.934200    3.407667    0.331526
     19          7           0        4.236269   -3.170068   -0.231417
     20          8           0        2.131985   -3.955479   -0.556477
     21          8           0        6.379872   -2.494204    0.079790
     22          8           0        4.046979    4.174059    0.639822
     23          8           0       -0.218942    2.810356    0.044555
     24          6           0       -0.925660    0.154831   -0.510404
     25          6           0       -1.598057    0.554416   -1.631653
     26         16           0       -2.022577   -0.432162    0.710191
     27          6           0       -3.004570    0.435912   -1.499593
     28          1           0       -1.109209    0.928863   -2.522573
     29          6           0       -3.428201   -0.076354   -0.288297
     30          8           0       -3.907037    0.766546   -2.475536
     31          6           0       -4.779866   -0.278172    0.174491
     32          6           0       -5.197816   -0.834091    1.369074
     33         16           0       -6.190660    0.201008   -0.765813
     34          6           0       -6.608217   -0.876060    1.537325
     35          8           0       -4.288254   -1.294915    2.282368
     36          6           0       -7.269520   -0.350341    0.465146
     37          1           0       -7.098764   -1.282049    2.413640
     38          1           0       -8.335251   -0.261527    0.321475
     39          1           0       -4.742110   -1.607693    3.070808
     40          1           0       -3.502470    1.370350   -3.106228
     41          1           0        4.575551   -4.123337   -0.302779
     42          1           0        1.597534    4.358031    0.442053
 ---------------------------------------------------------------------

 The electronic state is 1-A.
 Alpha  occ. eigenvalues --  -88.88473 -88.88075 -19.17101 -19.16911 -19.13560
 Alpha  occ. eigenvalues --  -19.13549 -19.13243 -19.13209 -14.38942 -14.38632
 Alpha  occ. eigenvalues --  -10.32265 -10.32262 -10.32187 -10.31909 -10.24666
 Alpha  occ. eigenvalues --  -10.24536 -10.24525 -10.24417 -10.24181 -10.24176
 Alpha  occ. eigenvalues --  -10.23610 -10.23594 -10.23533 -10.22571 -10.22560
 Alpha  occ. eigenvalues --  -10.22498 -10.22296 -10.21800 -10.21488 -10.20777
 Alpha  occ. eigenvalues --  -10.19127 -10.18854  -7.97020  -7.96630  -5.93350
 Alpha  occ. eigenvalues --   -5.92955  -5.92946  -5.92554  -5.92554  -5.92189
 Alpha  occ. eigenvalues --   -1.09716  -1.09529  -1.08073  -1.07994  -1.07870
 Alpha  occ. eigenvalues --   -1.07755  -0.96982  -0.96552  -0.93362  -0.90422
 Alpha  occ. eigenvalues --   -0.88923  -0.87572  -0.84796  -0.81082  -0.79818
 Alpha  occ. eigenvalues --   -0.77629  -0.74594  -0.73881  -0.73069  -0.72089
 Alpha  occ. eigenvalues --   -0.71529  -0.68643  -0.67422  -0.65981  -0.63719
 Alpha  occ. eigenvalues --   -0.61740  -0.61395  -0.60527  -0.59261  -0.57734
 Alpha  occ. eigenvalues --   -0.56474  -0.55639  -0.54351  -0.53013  -0.52328
 Alpha  occ. eigenvalues --   -0.51305  -0.51052  -0.50474  -0.49703  -0.48826
 Alpha  occ. eigenvalues --   -0.48641  -0.48293  -0.47803  -0.46592  -0.46483
 Alpha  occ. eigenvalues --   -0.46247  -0.45601  -0.44507  -0.44043  -0.43783
 Alpha  occ. eigenvalues --   -0.43563  -0.43477  -0.42969  -0.42843  -0.42207
 Alpha  occ. eigenvalues --   -0.41084  -0.39991  -0.39392  -0.38719  -0.38132
 Alpha  occ. eigenvalues --   -0.36633  -0.36077  -0.35726  -0.35244  -0.34038
 Alpha  occ. eigenvalues --   -0.33638  -0.32273  -0.31727  -0.31457  -0.31390
 Alpha  occ. eigenvalues --   -0.30185  -0.29752  -0.29392  -0.28017  -0.27442
 Alpha  occ. eigenvalues --   -0.25001  -0.24674  -0.19788
 Alpha virt. eigenvalues --   -0.14236  -0.08139  -0.06949  -0.05738  -0.04847
 Alpha virt. eigenvalues --   -0.02026  -0.01332  -0.01101  -0.00724  -0.00070
 Alpha virt. eigenvalues --    0.00150   0.00319   0.00485   0.00868   0.01513

 Mulliken charges:
               1
     1  C    0.523873
     2  C   -0.145674
     3  C    0.270106
     4  C    0.130910
     5  C    0.254123
     6  C   -0.495460
     7  C    0.234821
     8  C   -0.139377
     9  C    0.283269
    10  C    0.107577
    11  C    0.307099
    12  C    0.070023
    13  C   -0.383980
    14  C   -0.602266
    15  H    0.167638
    16  H    0.167737
    17  H    0.178862
    18  N   -0.429340
    19  N   -0.406846
    20  O   -0.273296
    21  O   -0.277130
    22  O   -0.281069
    23  O   -0.136059
    24  C    0.272923
    25  C   -0.465579
    26  S   -0.316125
    27  C   -0.504252
    28  H    0.102154
    29  C    0.464224
    30  O   -0.252632
    31  C    0.589649
    32  C    0.467689
    33  S   -0.295785
    34  C   -0.268725
    35  O   -0.250274
    36  C   -0.198384
    37  H    0.116262
    38  H    0.161217
    39  H    0.265249
    40  H    0.269480
    41  H    0.358548
    42  H    0.358818
 Sum of Mulliken charges =  -0.00000

 Dipole moment (field-independent basis, Debye):
    X=             -1.8590    Y=              0.3242    Z=              0.2084  Tot=              1.8985
 Quadrupole moment (field-independent basis, Debye-Ang):
   XX=           -191.6391   YY=           -213.9637   ZZ=           -180.0432
   XY=              3.6273   XZ=            -11.5909   YZ=            -12.5368

 Normal termination of Gaussian 16 at Tue Nov 17 15:29:38 2020.
