 Gaussian 16, Revision C.01,
 Gaussian 16:  ES64L-G16RevC.01  3-Jul-2019

 -------------------------------------
 # opt=modredundant b3lyp/6-311+g(d,p)
 -------------------------------------

 ----------
 NDI_40.pdb
 ----------
 Symbolic Z-matrix:
 Charge =  0 Multiplicity = 1

 SCF Done:  E(RB3LYP) =  -2202.04474723     A.U. after   17 cycles
 SCF Done:  E(RB3LYP) =  -2202.06888442     A.U. after   15 cycles
 SCF Done:  E(RB3LYP) =  -2202.07277224     A.U. after   15 cycles
 SCF Done:  E(RB3LYP) =  -2202.08218217     A.U. after   15 cycles
 SCF Done:  E(RB3LYP) =  -2202.08321337     A.U. after   14 cycles
 SCF Done:  E(RB3LYP) =  -2202.08341708     A.U. after   13 cycles
 SCF Done:  E(RB3LYP) =  -2202.08359294     A.U. after   13 cycles
 SCF Done:  E(RB3LYP) =  -2202.08376601     A.U. after   13 cycles
 SCF Done:  E(RB3LYP) =  -2202.08386012     A.U. after   13 cycles
 SCF Done:  E(RB3LYP) =  -2202.08390541     A.U. after   12 cycles
 SCF Done:  E(RB3LYP) =  -2202.08407960     A.U. after   12 cycles
 SCF Done:  E(RB3LYP) =  -2202.08408360     A.U. after   11 cycles
 SCF Done:  E(RB3LYP) =  -2202.08408482     A.U. after   11 cycles
 SCF Done:  E(RB3LYP) =  -2202.08408549     A.U. after   10 cycles
 SCF Done:  E(RB3LYP) =  -2202.08408617     A.U. after   10 cycles
 SCF Done:  E(RB3LYP) =  -2202.08408744     A.U. after   10 cycles
 SCF Done:  E(RB3LYP) =  -2202.08408870     A.U. after   11 cycles
 SCF Done:  E(RB3LYP) =  -2202.08408963     A.U. after   12 cycles
 SCF Done:  E(RB3LYP) =  -2202.08408994     A.U. after   10 cycles
 SCF Done:  E(RB3LYP) =  -2202.08409004     A.U. after    9 cycles
 Optimization completed.
    -- Stationary point found.

                         Standard orientation:
 ---------------------------------------------------------------------
 Center     Atomic      Atomic             Coordinates (Angstroms)
 Number     Number       Type             X           Y           Z
 ---------------------------------------------------------------------
      1          6           0        2.501729   -3.043193   -0.319176
      2          6           0        2.194878   -1.592533   -0.181993
      3          6           0        3.243874   -0.643785   -0.071774
      4          6           0        4.599097   -1.050212   -0.086116
      5          6           0        4.943751   -2.489722   -0.231852
      6          6           0        0.888609   -1.183527   -0.189341
      7          6           0        2.902956    0.732491    0.070054
      8          6           0        1.529255    1.147020    0.067203
      9          6           0        0.502971    0.186655   -0.100457
     10          6           0        1.246801    2.583538    0.338388
     11          6           0        3.707339    3.092867    0.425123
     12          6           0        3.978249    1.652892    0.219184
     13          6           0        5.298173    1.231123    0.198614
     14          6           0        5.616622   -0.120481    0.041157
     15          1           0        6.644645   -0.459334    0.025486
     16          1           0        6.073806    1.977937    0.314672
     17          1           0        0.127895   -1.943430   -0.313686
     18          7           0        2.361895    3.411667    0.488849
     19          7           0        3.857293   -3.357317   -0.330817
     20          8           0        1.658800   -3.911823   -0.416060
     21          8           0        6.080639   -2.915459   -0.263649
     22          8           0        4.564783    3.947372    0.546829
     23          8           0        0.144223    3.086531    0.453542
     24          6           0       -0.929866    0.444021   -0.225840
     25          6           0       -1.609173    1.433134   -0.901986
     26         16           0       -2.065941   -0.724732    0.437191
     27          6           0       -3.004212    1.268798   -0.881599
     28          1           0       -1.122700    2.256891   -1.402055
     29          6           0       -3.447832    0.151261   -0.182806
     30          8           0       -3.899000    2.104585   -1.488877
     31          6           0       -4.804128   -0.258382    0.060452
     32          6           0       -5.244282   -1.389741    0.729338
     33         16           0       -6.198971    0.674558   -0.480466
     34          6           0       -6.656132   -1.511784    0.809205
     35          8           0       -4.351084   -2.278393    1.253150
     36          6           0       -7.295942   -0.470434    0.199363
     37          1           0       -7.163925   -2.334648    1.297008
     38          1           0       -8.359261   -0.310735    0.107229
     39          1           0       -4.813451   -3.030167    1.636957
     40          1           0       -3.472628    2.939040   -1.709856
     41          1           0        4.084359   -4.341065   -0.427553
     42          1           0        2.142215    4.385310    0.667652
 ---------------------------------------------------------------------

 The electronic state is 1-A.
 Alpha  occ. eigenvalues --  -88.89142 -88.89060 -19.18131 -19.17694 -19.13100
 Alpha  occ. eigenvalues --  -19.13066 -19.12446 -19.12414 -14.38491 -14.37974
 Alpha  occ. eigenvalues --  -10.31808 -10.31743 -10.31589 -10.31049 -10.25763
 Alpha  occ. eigenvalues --  -10.25464 -10.24598 -10.23824 -10.23372 -10.23357
 Alpha  occ. eigenvalues --  -10.23232 -10.22953 -10.22898 -10.22882 -10.22622
 Alpha  occ. eigenvalues --  -10.22525 -10.22078 -10.21861 -10.21692 -10.21615
 Alpha  occ. eigenvalues --  -10.19789 -10.19765  -7.97710  -7.97613  -5.94033
 Alpha  occ. eigenvalues --   -5.93929  -5.93641  -5.93535  -5.93248  -5.93172
 Alpha  occ. eigenvalues --   -1.09243  -1.09192  -1.08829  -1.08762  -1.07508
 Alpha  occ. eigenvalues --   -1.06959  -0.96469  -0.95883  -0.92702  -0.91052
 Alpha  occ. eigenvalues --   -0.89534  -0.87341  -0.84106  -0.80998  -0.79200
 Alpha  occ. eigenvalues --   -0.78199  -0.75427  -0.74684  -0.73241  -0.71594
 Alpha  occ. eigenvalues --   -0.71468  -0.68189  -0.67088  -0.65564  -0.63085
 Alpha  occ. eigenvalues --   -0.62322  -0.62188  -0.60959  -0.58873  -0.57594
 Alpha  occ. eigenvalues --   -0.57065  -0.55545  -0.54933  -0.52469  -0.52004
 Alpha  occ. eigenvalues --   -0.50992  -0.50760  -0.50519  -0.49434  -0.49184
 Alpha  occ. eigenvalues --   -0.48263  -0.47950  -0.47310  -0.46224  -0.45948
 Alpha  occ. eigenvalues --   -0.45870  -0.45251  -0.45114  -0.44850  -0.43968
 Alpha  occ. eigenvalues --   -0.43282  -0.43092  -0.42982  -0.42381  -0.42214
 Alpha  occ. eigenvalues --   -0.40592  -0.40326  -0.39767  -0.39432  -0.38517
 Alpha  occ. eigenvalues --   -0.37485  -0.36838  -0.36073  -0.35396  -0.34809
 Alpha  occ. eigenvalues --   -0.33012  -0.31843  -0.31430  -0.31142  -0.30781
 Alpha  occ. eigenvalues --   -0.30271  -0.29370  -0.28799  -0.28025  -0.26840
 Alpha  occ. eigenvalues --   -0.25538  -0.25474  -0.20536
 Alpha virt. eigenvalues --   -0.13743  -0.08164  -0.07236  -0.05226  -0.04341
 Alpha virt. eigenvalues --   -0.02522  -0.01328  -0.01168  -0.00667  -0.00165
 Alpha virt. eigenvalues --    0.00403   0.00656   0.00979   0.01226   0.01814

 Mulliken charges:
               1
     1  C    0.408268
     2  C   -0.170833
     3  C    0.269250
     4  C    0.143297
     5  C    0.254766
     6  C   -0.217805
     7  C    0.246868
     8  C    0.064539
     9  C    0.245978
    10  C    0.031513
    11  C    0.375435
    12  C    0.041972
    13  C   -0.416384
    14  C   -0.563451
    15  H    0.164587
    16  H    0.166531
    17  H    0.182679
    18  N   -0.406890
    19  N   -0.404266
    20  O   -0.284990
    21  O   -0.276618
    22  O   -0.289469
    23  O   -0.238983
    24  C    0.117106
    25  C   -0.381858
    26  S   -0.583933
    27  C   -0.597792
    28  H    0.124550
    29  C    0.511902
    30  O   -0.238747
    31  C    0.735380
    32  C    0.447706
    33  S   -0.276022
    34  C   -0.287787
    35  O   -0.231018
    36  C   -0.205588
    37  H    0.120418
    38  H    0.165463
    39  H    0.269458
    40  H    0.273923
    41  H    0.356831
    42  H    0.354013
 Sum of Mulliken charges =  -0.00000

 Dipole moment (field-independent basis, Debye):
    X=             -4.7247    Y=             -0.4796    Z=             -0.0601  Tot=              4.7494
 Quadrupole moment (field-independent basis, Debye-Ang):
   XX=           -186.2903   YY=           -201.9638   ZZ=           -193.9968
   XY=              8.1572   XZ=             -6.3153   YZ=            -13.2671

 Normal termination of Gaussian 16 at Tue Nov 17 14:05:13 2020.
