 Gaussian 16, Revision C.01,
 Gaussian 16:  ES64L-G16RevC.01  3-Jul-2019

 -------------------------------------
 # opt=modredundant b3lyp/6-311+g(d,p)
 -------------------------------------

 -----------
 NDI_-60.pdb
 -----------
 Symbolic Z-matrix:
 Charge =  0 Multiplicity = 1

 SCF Done:  E(RB3LYP) =  -2202.04640804     A.U. after   17 cycles
 SCF Done:  E(RB3LYP) =  -2202.07299069     A.U. after   14 cycles
 SCF Done:  E(RB3LYP) =  -2202.07944955     A.U. after   14 cycles
 SCF Done:  E(RB3LYP) =  -2202.08225842     A.U. after   13 cycles
 SCF Done:  E(RB3LYP) =  -2202.08244279     A.U. after   13 cycles
 SCF Done:  E(RB3LYP) =  -2202.08271379     A.U. after   12 cycles
 SCF Done:  E(RB3LYP) =  -2202.08280008     A.U. after   12 cycles
 SCF Done:  E(RB3LYP) =  -2202.08282164     A.U. after   13 cycles
 SCF Done:  E(RB3LYP) =  -2202.08284455     A.U. after   12 cycles
 SCF Done:  E(RB3LYP) =  -2202.08285225     A.U. after   11 cycles
 SCF Done:  E(RB3LYP) =  -2202.08287052     A.U. after   11 cycles
 SCF Done:  E(RB3LYP) =  -2202.08287583     A.U. after   11 cycles
 SCF Done:  E(RB3LYP) =  -2202.08287761     A.U. after   11 cycles
 SCF Done:  E(RB3LYP) =  -2202.08287789     A.U. after    9 cycles
 SCF Done:  E(RB3LYP) =  -2202.08287805     A.U. after    9 cycles
 SCF Done:  E(RB3LYP) =  -2202.08287822     A.U. after   10 cycles
 SCF Done:  E(RB3LYP) =  -2202.08287840     A.U. after   10 cycles
 SCF Done:  E(RB3LYP) =  -2202.08287859     A.U. after   10 cycles
 SCF Done:  E(RB3LYP) =  -2202.08287868     A.U. after   10 cycles
 SCF Done:  E(RB3LYP) =  -2202.08287874     A.U. after   10 cycles
 Optimization completed.
    -- Stationary point found.

                         Standard orientation:
 ---------------------------------------------------------------------
 Center     Atomic      Atomic             Coordinates (Angstroms)
 Number     Number       Type             X           Y           Z
 ---------------------------------------------------------------------
      1          6           0        2.570345   -3.015044    0.475715
      2          6           0        2.227729   -1.575968    0.304640
      3          6           0        3.249907   -0.617819    0.085794
      4          6           0        4.610420   -1.003280    0.010191
      5          6           0        4.990362   -2.430918    0.184456
      6          6           0        0.913926   -1.187033    0.366547
      7          6           0        2.881185    0.748882   -0.074199
      8          6           0        1.507390    1.142028    0.018071
      9          6           0        0.511474    0.173917    0.257271
     10          6           0        1.180956    2.582417   -0.180419
     11          6           0        3.605558    3.108259   -0.580447
     12          6           0        3.921907    1.679946   -0.346891
     13          6           0        5.244647    1.276918   -0.421454
     14          6           0        5.596338   -0.064443   -0.235344
     15          1           0        6.628167   -0.387743   -0.289526
     16          1           0        5.996745    2.026744   -0.633420
     17          1           0        0.164823   -1.947655    0.544774
     18          7           0        2.255659    3.411754   -0.511497
     19          7           0        3.929350   -3.308172    0.401042
     20          8           0        1.752781   -3.891596    0.667494
     21          8           0        6.133673   -2.838149    0.145447
     22          8           0        4.433381    3.966410   -0.819738
     23          8           0        0.075172    3.078137   -0.084061
     24          6           0       -0.932401    0.422749    0.355174
     25          6           0       -1.632234    1.220374    1.227267
     26         16           0       -2.026913   -0.608721   -0.546940
     27          6           0       -3.027662    1.040552    1.149039
     28          1           0       -1.160917    1.924668    1.898446
     29          6           0       -3.438478    0.091875    0.223662
     30          8           0       -3.944998    1.714314    1.908142
     31          6           0       -4.783521   -0.273025   -0.136196
     32          6           0       -5.190657   -1.249724   -1.029323
     33         16           0       -6.204012    0.521211    0.540954
     34          6           0       -6.598728   -1.365019   -1.171979
     35          8           0       -4.272305   -2.008485   -1.698170
     36          6           0       -7.268884   -0.473230   -0.384315
     37          1           0       -7.081951   -2.077582   -1.829118
     38          1           0       -8.336233   -0.344957   -0.290300
     39          1           0       -4.716161   -2.685560   -2.218360
     40          1           0       -3.544365    2.505683    2.282140
     41          1           0        4.179399   -4.284116    0.518604
     42          1           0        2.011141    4.386070   -0.650740
 ---------------------------------------------------------------------

 The electronic state is 1-A.
 Alpha  occ. eigenvalues --  -88.88889 -88.88707 -19.17766 -19.17372 -19.13253
 Alpha  occ. eigenvalues --  -19.13237 -19.12744 -19.12692 -14.38644 -14.38203
 Alpha  occ. eigenvalues --  -10.31963 -10.31923 -10.31790 -10.31346 -10.25325
 Alpha  occ. eigenvalues --  -10.25090 -10.24606 -10.24028 -10.23662 -10.23652
 Alpha  occ. eigenvalues --  -10.23181 -10.23140 -10.22949 -10.22704 -10.22652
 Alpha  occ. eigenvalues --  -10.22219 -10.22158 -10.21998 -10.21942 -10.21476
 Alpha  occ. eigenvalues --  -10.19560 -10.19457  -7.97451  -7.97261  -5.93776
 Alpha  occ. eigenvalues --   -5.93576  -5.93384  -5.93184  -5.92987  -5.92820
 Alpha  occ. eigenvalues --   -1.09405  -1.09071  -1.08790  -1.08398  -1.07675
 Alpha  occ. eigenvalues --   -1.07236  -0.96642  -0.96125  -0.92923  -0.90803
 Alpha  occ. eigenvalues --   -0.89296  -0.87449  -0.84352  -0.80992  -0.79409
 Alpha  occ. eigenvalues --   -0.78003  -0.75112  -0.74394  -0.73140  -0.71689
 Alpha  occ. eigenvalues --   -0.71591  -0.68318  -0.67193  -0.65691  -0.63308
 Alpha  occ. eigenvalues --   -0.62047  -0.61909  -0.60820  -0.59026  -0.57474
 Alpha  occ. eigenvalues --   -0.56970  -0.55511  -0.54762  -0.52624  -0.52095
 Alpha  occ. eigenvalues --   -0.50992  -0.50821  -0.50633  -0.49492  -0.49066
 Alpha  occ. eigenvalues --   -0.48471  -0.48000  -0.47553  -0.46345  -0.46088
 Alpha  occ. eigenvalues --   -0.46036  -0.45336  -0.44881  -0.44565  -0.43921
 Alpha  occ. eigenvalues --   -0.43326  -0.43215  -0.42727  -0.42575  -0.42448
 Alpha  occ. eigenvalues --   -0.40714  -0.40228  -0.39608  -0.39193  -0.38439
 Alpha  occ. eigenvalues --   -0.36956  -0.36486  -0.35960  -0.35499  -0.34545
 Alpha  occ. eigenvalues --   -0.33222  -0.31994  -0.31495  -0.31231  -0.31071
 Alpha  occ. eigenvalues --   -0.30178  -0.29505  -0.29011  -0.28110  -0.27010
 Alpha  occ. eigenvalues --   -0.25291  -0.25245  -0.20299
 Alpha virt. eigenvalues --   -0.13897  -0.07974  -0.07189  -0.05455  -0.04563
 Alpha virt. eigenvalues --   -0.02327  -0.01273  -0.01171  -0.00795   0.00025
 Alpha virt. eigenvalues --    0.00249   0.00513   0.00644   0.01121   0.01767

 Mulliken charges:
               1
     1  C    0.455322
     2  C   -0.153667
     3  C    0.252790
     4  C    0.155981
     5  C    0.263473
     6  C   -0.425723
     7  C    0.214283
     8  C   -0.015160
     9  C    0.314218
    10  C    0.129818
    11  C    0.340839
    12  C    0.065598
    13  C   -0.401715
    14  C   -0.599815
    15  H    0.165776
    16  H    0.166977
    17  H    0.189323
    18  N   -0.418991
    19  N   -0.405144
    20  O   -0.279813
    21  O   -0.277249
    22  O   -0.287433
    23  O   -0.218394
    24  C    0.118815
    25  C   -0.457652
    26  S   -0.470524
    27  C   -0.540718
    28  H    0.121185
    29  C    0.615369
    30  O   -0.248983
    31  C    0.661162
    32  C    0.434536
    33  S   -0.282039
    34  C   -0.280405
    35  O   -0.237948
    36  C   -0.200519
    37  H    0.119059
    38  H    0.164002
    39  H    0.267665
    40  H    0.272834
    41  H    0.357422
    42  H    0.355445
 Sum of Mulliken charges =  -0.00000

 Dipole moment (field-independent basis, Debye):
    X=             -3.6779    Y=             -0.3024    Z=             -0.1611  Tot=              3.6938
 Quadrupole moment (field-independent basis, Debye-Ang):
   XX=           -188.5301   YY=           -205.3860   ZZ=           -189.6670
   XY=              7.0942   XZ=              9.5242   YZ=             15.5655

 Normal termination of Gaussian 16 at Tue Nov 17 13:49:57 2020.
