 Gaussian 16, Revision C.01,
 Gaussian 16:  ES64L-G16RevC.01  3-Jul-2019

 -------------------------------------
 # opt=modredundant b3lyp/6-311+g(d,p)
 -------------------------------------

 ------------
 NDI_-160.pdb
 ------------
 Symbolic Z-matrix:
 Charge =  0 Multiplicity = 1

 SCF Done:  E(RB3LYP) =  -2202.01577845     A.U. after   18 cycles
 SCF Done:  E(RB3LYP) =  -2202.04556364     A.U. after   17 cycles
 SCF Done:  E(RB3LYP) =  -2202.07005806     A.U. after   15 cycles
 SCF Done:  E(RB3LYP) =  -2202.07678333     A.U. after   15 cycles
 SCF Done:  E(RB3LYP) =  -2202.07970986     A.U. after   15 cycles
 SCF Done:  E(RB3LYP) =  -2202.08009807     A.U. after   14 cycles
 SCF Done:  E(RB3LYP) =  -2202.08023264     A.U. after   13 cycles
 SCF Done:  E(RB3LYP) =  -2202.08039791     A.U. after   13 cycles
 SCF Done:  E(RB3LYP) =  -2202.08047052     A.U. after   14 cycles
 SCF Done:  E(RB3LYP) =  -2202.08052512     A.U. after   12 cycles
 SCF Done:  E(RB3LYP) =  -2202.08054106     A.U. after   11 cycles
 SCF Done:  E(RB3LYP) =  -2202.08057253     A.U. after   13 cycles
 SCF Done:  E(RB3LYP) =  -2202.08061056     A.U. after   13 cycles
 SCF Done:  E(RB3LYP) =  -2202.08063338     A.U. after   12 cycles
 SCF Done:  E(RB3LYP) =  -2202.08066796     A.U. after   12 cycles
 SCF Done:  E(RB3LYP) =  -2202.08067223     A.U. after   12 cycles
 SCF Done:  E(RB3LYP) =  -2202.08067615     A.U. after   12 cycles
 SCF Done:  E(RB3LYP) =  -2202.08067638     A.U. after    9 cycles
 SCF Done:  E(RB3LYP) =  -2202.08067648     A.U. after    9 cycles
 SCF Done:  E(RB3LYP) =  -2202.08067653     A.U. after    9 cycles
 Optimization completed.
    -- Stationary point found.

                         Standard orientation:
 ---------------------------------------------------------------------
 Center     Atomic      Atomic             Coordinates (Angstroms)
 Number     Number       Type             X           Y           Z
 ---------------------------------------------------------------------
      1          6           0       -3.158049   -2.939957    0.243306
      2          6           0       -2.567770   -1.584150    0.071746
      3          6           0       -3.396622   -0.433586    0.076657
      4          6           0       -4.797346   -0.543191    0.227154
      5          6           0       -5.423710   -1.880697    0.396867
      6          6           0       -1.215145   -1.464992   -0.075379
      7          6           0       -2.775530    0.837862   -0.071874
      8          6           0       -1.348506    0.947666   -0.205190
      9          6           0       -0.532938   -0.215139   -0.232630
     10          6           0       -0.795948    2.309487   -0.358521
     11          6           0       -3.083237    3.330527   -0.287272
     12          6           0       -3.635608    1.972224   -0.093757
     13          6           0       -5.009315    1.841604    0.047595
     14          6           0       -5.598332    0.586852    0.215658
     15          1           0       -6.668993    0.476514    0.330981
     16          1           0       -5.610513    2.741937    0.020230
     17          1           0       -0.646147   -2.380108   -0.020160
     18          7           0       -1.707747    3.361550   -0.431593
     19          7           0       -4.540335   -2.960983    0.391353
     20          8           0       -2.512250   -3.969636    0.252243
     21          8           0       -6.616691   -2.060458    0.534531
     22          8           0       -3.746434    4.350059   -0.323961
     23          8           0        0.391133    2.578310   -0.427347
     24          6           0        0.920151   -0.360718   -0.373877
     25          6           0        1.513851   -1.555058   -0.783240
     26         16           0        2.173946    0.755050    0.148019
     27          6           0        2.905277   -1.579545   -0.662486
     28          1           0        0.962376   -2.388269   -1.197770
     29          6           0        3.444810   -0.415088   -0.122475
     30          8           0        3.714774   -2.615157   -1.037861
     31          6           0        4.830330   -0.134077    0.139556
     32          6           0        5.379212    1.021256    0.676802
     33         16           0        6.124222   -1.284835   -0.199292
     34          6           0        6.791862    0.991998    0.810943
     35          8           0        4.582594    2.065695    1.038131
     36          6           0        7.324199   -0.188894    0.377487
     37          1           0        7.376052    1.809908    1.214194
     38          1           0        8.363164   -0.480856    0.367214
     39          1           0        5.118405    2.823543    1.293061
     40          1           0        3.186562   -3.388729   -1.259580
     41          1           0       -4.961851   -3.876146    0.507243
     42          1           0       -1.287998    4.277987   -0.541672
 ---------------------------------------------------------------------

 The electronic state is 1-A.
 Alpha  occ. eigenvalues --  -88.89065 -88.88880 -19.18011 -19.17873 -19.13167
 Alpha  occ. eigenvalues --  -19.13054 -19.12484 -19.12193 -14.38516 -14.37856
 Alpha  occ. eigenvalues --  -10.31863 -10.31721 -10.31296 -10.30843 -10.25803
 Alpha  occ. eigenvalues --  -10.25463 -10.24828 -10.23682 -10.23301 -10.23162
 Alpha  occ. eigenvalues --  -10.23159 -10.22923 -10.22783 -10.22739 -10.22482
 Alpha  occ. eigenvalues --  -10.22453 -10.22046 -10.21925 -10.21499 -10.21440
 Alpha  occ. eigenvalues --  -10.20029 -10.19786  -7.97621  -7.97340  -5.93935
 Alpha  occ. eigenvalues --   -5.93665  -5.93542  -5.93249  -5.93181  -5.92889
 Alpha  occ. eigenvalues --   -1.09252  -1.09145  -1.08922  -1.08768  -1.07515
 Alpha  occ. eigenvalues --   -1.06837  -0.96466  -0.95827  -0.92566  -0.90921
 Alpha  occ. eigenvalues --   -0.89456  -0.87241  -0.83979  -0.81051  -0.79093
 Alpha  occ. eigenvalues --   -0.77983  -0.75405  -0.74614  -0.73524  -0.71457
 Alpha  occ. eigenvalues --   -0.71242  -0.68187  -0.67026  -0.65518  -0.62981
 Alpha  occ. eigenvalues --   -0.62465  -0.61990  -0.60990  -0.59006  -0.57445
 Alpha  occ. eigenvalues --   -0.57015  -0.55715  -0.54899  -0.52432  -0.51704
 Alpha  occ. eigenvalues --   -0.51001  -0.50644  -0.50328  -0.49386  -0.49244
 Alpha  occ. eigenvalues --   -0.48220  -0.47938  -0.47323  -0.46410  -0.46059
 Alpha  occ. eigenvalues --   -0.45900  -0.45305  -0.45141  -0.44584  -0.43819
 Alpha  occ. eigenvalues --   -0.43317  -0.42972  -0.42918  -0.42255  -0.42182
 Alpha  occ. eigenvalues --   -0.40686  -0.40174  -0.39874  -0.39126  -0.38321
 Alpha  occ. eigenvalues --   -0.37631  -0.36798  -0.35930  -0.35382  -0.34300
 Alpha  occ. eigenvalues --   -0.32887  -0.31668  -0.31442  -0.31017  -0.30636
 Alpha  occ. eigenvalues --   -0.30296  -0.29397  -0.28570  -0.28076  -0.26770
 Alpha  occ. eigenvalues --   -0.25590  -0.25184  -0.20571
 Alpha virt. eigenvalues --   -0.13540  -0.08306  -0.07216  -0.05072  -0.04283
 Alpha virt. eigenvalues --   -0.02586  -0.01550  -0.01154  -0.00547  -0.00168
 Alpha virt. eigenvalues --    0.00571   0.00690   0.01129   0.01664   0.01920

 Mulliken charges:
               1
     1  C    0.439925
     2  C   -0.114885
     3  C    0.255982
     4  C    0.138007
     5  C    0.259941
     6  C   -0.055071
     7  C    0.213317
     8  C    0.000082
     9  C    0.173183
    10  C    0.189673
    11  C    0.412374
    12  C    0.002164
    13  C   -0.383858
    14  C   -0.577904
    15  H    0.163658
    16  H    0.165928
    17  H    0.163628
    18  N   -0.435113
    19  N   -0.403407
    20  O   -0.292855
    21  O   -0.275768
    22  O   -0.287973
    23  O   -0.235270
    24  C   -0.042735
    25  C   -0.371282
    26  S   -0.471507
    27  C   -0.596995
    28  H    0.120742
    29  C    0.440801
    30  O   -0.226946
    31  C    0.721345
    32  C    0.327715
    33  S   -0.248664
    34  C   -0.238989
    35  O   -0.227089
    36  C   -0.238242
    37  H    0.120590
    38  H    0.165816
    39  H    0.268867
    40  H    0.270526
    41  H    0.356047
    42  H    0.354245
 Sum of Mulliken charges =  -0.00000

 Dipole moment (field-independent basis, Debye):
    X=              5.0739    Y=             -0.3763    Z=              0.2150  Tot=              5.0924
 Quadrupole moment (field-independent basis, Debye-Ang):
   XX=           -184.7707   YY=           -201.4714   ZZ=           -195.7825
   XY=              9.1369   XZ=              7.4347   YZ=              9.6888

 Normal termination of Gaussian 16 at Tue Nov 17 13:48:03 2020.
