 Gaussian 16, Revision C.01,
 Gaussian 16:  ES64L-G16RevC.01  3-Jul-2019

 -------------------------------------
 # opt=modredundant b3lyp/6-311+g(d,p)
 -------------------------------------

 -----------
 NDI_180.pdb
 -----------
 Symbolic Z-matrix:
 Charge =  0 Multiplicity = 1

 SCF Done:  E(RB3LYP) =  -2202.00309138     A.U. after   18 cycles
 SCF Done:  E(RB3LYP) =  -2202.04138507     A.U. after   18 cycles
 SCF Done:  E(RB3LYP) =  -2202.06760105     A.U. after   15 cycles
 SCF Done:  E(RB3LYP) =  -2202.07437958     A.U. after   15 cycles
 SCF Done:  E(RB3LYP) =  -2202.07813163     A.U. after   14 cycles
 SCF Done:  E(RB3LYP) =  -2202.07860046     A.U. after   12 cycles
 SCF Done:  E(RB3LYP) =  -2202.07866043     A.U. after   13 cycles
 SCF Done:  E(RB3LYP) =  -2202.07871727     A.U. after   12 cycles
 SCF Done:  E(RB3LYP) =  -2202.07876280     A.U. after   13 cycles
 SCF Done:  E(RB3LYP) =  -2202.07879142     A.U. after   13 cycles
 SCF Done:  E(RB3LYP) =  -2202.07906803     A.U. after   12 cycles
 SCF Done:  E(RB3LYP) =  -2202.07906842     A.U. after   11 cycles
 SCF Done:  E(RB3LYP) =  -2202.07906887     A.U. after   11 cycles
 SCF Done:  E(RB3LYP) =  -2202.07906956     A.U. after   11 cycles
 SCF Done:  E(RB3LYP) =  -2202.07906999     A.U. after   11 cycles
 SCF Done:  E(RB3LYP) =  -2202.07907036     A.U. after   10 cycles
 SCF Done:  E(RB3LYP) =  -2202.07907093     A.U. after   11 cycles
 SCF Done:  E(RB3LYP) =  -2202.07907118     A.U. after   12 cycles
 SCF Done:  E(RB3LYP) =  -2202.07907130     A.U. after   11 cycles
 SCF Done:  E(RB3LYP) =  -2202.07907133     A.U. after    9 cycles
 Optimization completed.
    -- Stationary point found.

                         Standard orientation:
 ---------------------------------------------------------------------
 Center     Atomic      Atomic             Coordinates (Angstroms)
 Number     Number       Type             X           Y           Z
 ---------------------------------------------------------------------
      1          6           0       -3.302942   -2.909402    0.032592
      2          6           0       -2.644477   -1.577013    0.112714
      3          6           0       -3.403222   -0.389953   -0.048842
      4          6           0       -4.791558   -0.438183   -0.302451
      5          6           0       -5.482731   -1.750623   -0.398602
      6          6           0       -1.295317   -1.519093    0.310218
      7          6           0       -2.721703    0.853299    0.061050
      8          6           0       -1.306259    0.896973    0.310882
      9          6           0       -0.543114   -0.302352    0.385864
     10          6           0       -0.727645    2.230366    0.576810
     11          6           0       -2.892340    3.367356    0.030872
     12          6           0       -3.508547    2.029267   -0.095636
     13          6           0       -4.869839    1.960332   -0.355885
     14          6           0       -5.520434    0.729763   -0.460131
     15          1           0       -6.582993    0.667241   -0.657041
     16          1           0       -5.412234    2.890617   -0.470684
     17          1           0       -0.798004   -2.472495    0.379276
     18          7           0       -1.549177    3.335679    0.360874
     19          7           0       -4.670033   -2.870924   -0.216035
     20          8           0       -2.720737   -3.968251    0.167319
     21          8           0       -6.670221   -1.880216   -0.616569
     22          8           0       -3.483582    4.420993   -0.114585
     23          8           0        0.401900    2.432027    0.990164
     24          6           0        0.909541   -0.496866    0.436838
     25          6           0        1.517100   -1.754336    0.510162
     26         16           0        2.153709    0.712942    0.143448
     27          6           0        2.898878   -1.746417    0.317815
     28          1           0        0.993035   -2.677712    0.709330
     29          6           0        3.426243   -0.483966    0.061924
     30          8           0        3.711786   -2.843945    0.371603
     31          6           0        4.800993   -0.142780   -0.175433
     32          6           0        5.337212    1.111616   -0.432967
     33         16           0        6.099504   -1.337989   -0.178876
     34          6           0        6.743375    1.119831   -0.622854
     35          8           0        4.535141    2.209919   -0.496112
     36          6           0        7.283464   -0.130184   -0.512796
     37          1           0        7.317937    2.013245   -0.833769
     38          1           0        8.320382   -0.412332   -0.613113
     39          1           0        5.065240    3.007767   -0.590742
     40          1           0        3.189751   -3.641490    0.505759
     41          1           0       -5.137123   -3.769057   -0.277410
     42          1           0       -1.107278    4.231676    0.533958
 ---------------------------------------------------------------------

 The electronic state is 1-A.
 Alpha  occ. eigenvalues --  -88.89271 -88.88956 -19.18226 -19.18010 -19.13106
 Alpha  occ. eigenvalues --  -19.12974 -19.12367 -19.12091 -14.38441 -14.37746
 Alpha  occ. eigenvalues --  -10.31792 -10.31637 -10.31189 -10.30727 -10.26070
 Alpha  occ. eigenvalues --  -10.25614 -10.24906 -10.23574 -10.23541 -10.23163
 Alpha  occ. eigenvalues --  -10.22983 -10.22974 -10.22702 -10.22665 -10.22609
 Alpha  occ. eigenvalues --  -10.22301 -10.22160 -10.22035 -10.21356 -10.21289
 Alpha  occ. eigenvalues --  -10.20322 -10.19986  -7.97826  -7.97425  -5.94140
 Alpha  occ. eigenvalues --   -5.93753  -5.93747  -5.93386  -5.93335  -5.92969
 Alpha  occ. eigenvalues --   -1.09381  -1.09173  -1.09078  -1.08660  -1.07437
 Alpha  occ. eigenvalues --   -1.06726  -0.96383  -0.95721  -0.92479  -0.91070
 Alpha  occ. eigenvalues --   -0.89593  -0.87200  -0.83861  -0.81062  -0.79000
 Alpha  occ. eigenvalues --   -0.78099  -0.75600  -0.74801  -0.73552  -0.71388
 Alpha  occ. eigenvalues --   -0.71237  -0.68161  -0.66992  -0.65459  -0.62855
 Alpha  occ. eigenvalues --   -0.62657  -0.62140  -0.61086  -0.58969  -0.57632
 Alpha  occ. eigenvalues --   -0.57027  -0.55836  -0.54981  -0.52411  -0.51694
 Alpha  occ. eigenvalues --   -0.50978  -0.50611  -0.50237  -0.49532  -0.49174
 Alpha  occ. eigenvalues --   -0.48245  -0.47827  -0.47162  -0.46349  -0.46135
 Alpha  occ. eigenvalues --   -0.45896  -0.45448  -0.45106  -0.44635  -0.43989
 Alpha  occ. eigenvalues --   -0.43503  -0.42913  -0.42884  -0.42163  -0.42110
 Alpha  occ. eigenvalues --   -0.40680  -0.40237  -0.39824  -0.39274  -0.38242
 Alpha  occ. eigenvalues --   -0.38021  -0.37013  -0.36019  -0.35398  -0.34390
 Alpha  occ. eigenvalues --   -0.32767  -0.31639  -0.31469  -0.31037  -0.30558
 Alpha  occ. eigenvalues --   -0.30125  -0.29327  -0.28451  -0.28018  -0.26698
 Alpha  occ. eigenvalues --   -0.25732  -0.25379  -0.20677
 Alpha virt. eigenvalues --   -0.13462  -0.08597  -0.07111  -0.04971  -0.04271
 Alpha virt. eigenvalues --   -0.02705  -0.01656  -0.01045  -0.00428  -0.00309
 Alpha virt. eigenvalues --    0.00663   0.00736   0.01326   0.01728   0.01878

 Mulliken charges:
               1
     1  C    0.415031
     2  C   -0.234192
     3  C    0.166145
     4  C    0.193930
     5  C    0.275720
     6  C   -0.016987
     7  C    0.136798
     8  C    0.089336
     9  C    0.299731
    10  C    0.120574
    11  C    0.385795
    12  C    0.048138
    13  C   -0.443520
    14  C   -0.583096
    15  H    0.163109
    16  H    0.165954
    17  H    0.157712
    18  N   -0.377835
    19  N   -0.405821
    20  O   -0.296694
    21  O   -0.275729
    22  O   -0.292563
    23  O   -0.238796
    24  C    0.031930
    25  C   -0.061609
    26  S   -0.675162
    27  C   -0.582372
    28  H    0.107149
    29  C    0.312332
    30  O   -0.214425
    31  C    0.715001
    32  C    0.345171
    33  S   -0.246683
    34  C   -0.262917
    35  O   -0.220795
    36  C   -0.231863
    37  H    0.121183
    38  H    0.166356
    39  H    0.269534
    40  H    0.269942
    41  H    0.355759
    42  H    0.348727
 Sum of Mulliken charges =  -0.00000

 Dipole moment (field-independent basis, Debye):
    X=              5.5860    Y=             -0.4154    Z=             -0.5071  Tot=              5.6243
 Quadrupole moment (field-independent basis, Debye-Ang):
   XX=           -183.1847   YY=           -198.8339   ZZ=           -199.3321
   XY=              9.7154   XZ=             -7.4847   YZ=             -4.1872

 Normal termination of Gaussian 16 at Tue Nov 17 20:58:21 2020.
