 Gaussian 16, Revision C.01,
 Gaussian 16:  ES64L-G16RevC.01  3-Jul-2019

 -------------------------------------
 # opt=modredundant b3lyp/6-311+g(d,p)
 -------------------------------------

 -----------
 NDI_130.pdb
 -----------
 Symbolic Z-matrix:
 Charge =  0 Multiplicity = 1

 SCF Done:  E(RB3LYP) =  -2202.04148281     A.U. after   17 cycles
 SCF Done:  E(RB3LYP) =  -2202.06837780     A.U. after   16 cycles
 SCF Done:  E(RB3LYP) =  -2202.07282333     A.U. after   14 cycles
 SCF Done:  E(RB3LYP) =  -2202.08073594     A.U. after   16 cycles
 SCF Done:  E(RB3LYP) =  -2202.08147342     A.U. after   14 cycles
 SCF Done:  E(RB3LYP) =  -2202.08150532     A.U. after   13 cycles
 SCF Done:  E(RB3LYP) =  -2202.08169736     A.U. after   12 cycles
 SCF Done:  E(RB3LYP) =  -2202.08175567     A.U. after   13 cycles
 SCF Done:  E(RB3LYP) =  -2202.08178587     A.U. after   12 cycles
 SCF Done:  E(RB3LYP) =  -2202.08179227     A.U. after   11 cycles
 SCF Done:  E(RB3LYP) =  -2202.08179626     A.U. after   11 cycles
 SCF Done:  E(RB3LYP) =  -2202.08179943     A.U. after   12 cycles
 SCF Done:  E(RB3LYP) =  -2202.08180165     A.U. after   11 cycles
 SCF Done:  E(RB3LYP) =  -2202.08180401     A.U. after   11 cycles
 SCF Done:  E(RB3LYP) =  -2202.08180536     A.U. after   10 cycles
 SCF Done:  E(RB3LYP) =  -2202.08180689     A.U. after   11 cycles
 SCF Done:  E(RB3LYP) =  -2202.08180732     A.U. after   11 cycles
 SCF Done:  E(RB3LYP) =  -2202.08180746     A.U. after    9 cycles
 SCF Done:  E(RB3LYP) =  -2202.08180752     A.U. after    9 cycles
 Optimization completed.
    -- Stationary point found.

                         Standard orientation:
 ---------------------------------------------------------------------
 Center     Atomic      Atomic             Coordinates (Angstroms)
 Number     Number       Type             X           Y           Z
 ---------------------------------------------------------------------
      1          6           0        3.285354   -2.926427    0.252880
      2          6           0        2.612979   -1.617756    0.030351
      3          6           0        3.356858   -0.411747    0.101556
      4          6           0        4.741462   -0.417943    0.399375
      5          6           0        5.442096   -1.707117    0.643269
      6          6           0        1.260721   -1.584736   -0.209668
      7          6           0        2.687376    0.820518   -0.144580
      8          6           0        1.289488    0.829655   -0.439238
      9          6           0        0.557146   -0.367536   -0.408457
     10          6           0        0.681039    2.113563   -0.893960
     11          6           0        2.812282    3.327622   -0.354879
     12          6           0        3.452616    2.016894   -0.081480
     13          6           0        4.802644    1.984394    0.222701
     14          6           0        5.452413    0.767160    0.463442
     15          1           0        6.509219    0.732817    0.696483
     16          1           0        5.342394    2.922293    0.265775
     17          1           0        0.711473   -2.517860   -0.205004
     18          7           0        1.479234    3.249788   -0.729342
     19          7           0        4.645027   -2.846785    0.542160
     20          8           0        2.721729   -4.000527    0.193631
     21          8           0        6.623172   -1.798474    0.909697
     22          8           0        3.386937    4.396806   -0.287394
     23          8           0       -0.410712    2.224849   -1.411069
     24          6           0       -0.901246   -0.480779   -0.523410
     25          6           0       -1.594694   -1.314374   -1.368886
     26         16           0       -1.982934    0.362783    0.550173
     27          6           0       -2.992863   -1.251728   -1.179375
     28          1           0       -1.118983   -1.925033   -2.127117
     29          6           0       -3.395499   -0.399168   -0.162663
     30          8           0       -3.915206   -1.950880   -1.907589
     31          6           0       -4.734065   -0.146152    0.305497
     32          6           0       -5.134529    0.708580    1.317927
     33         16           0       -6.153868   -0.928074   -0.386684
     34          6           0       -6.537472    0.746206    1.535163
     35          8           0       -4.214394    1.426073    2.030256
     36          6           0       -7.210854   -0.084504    0.686215
     37          1           0       -7.014281    1.359580    2.289810
     38          1           0       -8.275206   -0.253075    0.629734
     39          1           0       -4.657969    2.075594    2.584628
     40          1           0       -3.473319   -2.571814   -2.494967
     41          1           0        5.116634   -3.730569    0.701202
     42          1           0        1.047318    4.121150   -1.017036
 ---------------------------------------------------------------------

 The electronic state is 1-A.
 Alpha  occ. eigenvalues --  -88.88669 -88.88565 -19.17579 -19.17532 -19.13348
 Alpha  occ. eigenvalues --  -19.13307 -19.12770 -19.12707 -14.38720 -14.38154
 Alpha  occ. eigenvalues --  -10.32062 -10.31996 -10.31655 -10.31443 -10.25173
 Alpha  occ. eigenvalues --  -10.25109 -10.24412 -10.24001 -10.23746 -10.23553
 Alpha  occ. eigenvalues --  -10.23264 -10.23214 -10.23051 -10.22695 -10.22520
 Alpha  occ. eigenvalues --  -10.22412 -10.22110 -10.22056 -10.22015 -10.21304
 Alpha  occ. eigenvalues --  -10.19745 -10.19298  -7.97226  -7.97121  -5.93556
 Alpha  occ. eigenvalues --   -5.93437  -5.93161  -5.93044  -5.92754  -5.92680
 Alpha  occ. eigenvalues --   -1.09472  -1.09031  -1.08609  -1.08527  -1.07747
 Alpha  occ. eigenvalues --   -1.07255  -0.96704  -0.96117  -0.93009  -0.90746
 Alpha  occ. eigenvalues --   -0.89213  -0.87514  -0.84420  -0.81053  -0.79471
 Alpha  occ. eigenvalues --   -0.77896  -0.75012  -0.74214  -0.73345  -0.71729
 Alpha  occ. eigenvalues --   -0.71484  -0.68351  -0.67259  -0.65689  -0.63336
 Alpha  occ. eigenvalues --   -0.62104  -0.61764  -0.60787  -0.59095  -0.57443
 Alpha  occ. eigenvalues --   -0.56900  -0.55574  -0.54785  -0.52695  -0.51952
 Alpha  occ. eigenvalues --   -0.51163  -0.50833  -0.50688  -0.49512  -0.48976
 Alpha  occ. eigenvalues --   -0.48432  -0.47941  -0.47667  -0.46460  -0.46194
 Alpha  occ. eigenvalues --   -0.46045  -0.45408  -0.44817  -0.44493  -0.43902
 Alpha  occ. eigenvalues --   -0.43468  -0.43211  -0.42736  -0.42554  -0.42395
 Alpha  occ. eigenvalues --   -0.40889  -0.39877  -0.39826  -0.38994  -0.38549
 Alpha  occ. eigenvalues --   -0.37187  -0.36368  -0.35829  -0.35407  -0.34527
 Alpha  occ. eigenvalues --   -0.33237  -0.31987  -0.31545  -0.31266  -0.30798
 Alpha  occ. eigenvalues --   -0.30186  -0.29563  -0.28927  -0.28270  -0.27028
 Alpha  occ. eigenvalues --   -0.25346  -0.24973  -0.20153
 Alpha virt. eigenvalues --   -0.13931  -0.07994  -0.07082  -0.05496  -0.04510
 Alpha virt. eigenvalues --   -0.02421  -0.01390  -0.01183  -0.01009   0.00160
 Alpha virt. eigenvalues --    0.00278   0.00395   0.00649   0.01118   0.01756

 Mulliken charges:
               1
     1  C    0.476026
     2  C   -0.181879
     3  C    0.195710
     4  C    0.184550
     5  C    0.275295
     6  C   -0.279635
     7  C    0.140538
     8  C   -0.160818
     9  C    0.193599
    10  C    0.145035
    11  C    0.275760
    12  C    0.073430
    13  C   -0.369801
    14  C   -0.586631
    15  H    0.166204
    16  H    0.166643
    17  H    0.165505
    18  N   -0.363310
    19  N   -0.401764
    20  O   -0.283029
    21  O   -0.278358
    22  O   -0.287960
    23  O   -0.215955
    24  C    0.505564
    25  C   -0.485341
    26  S   -0.498886
    27  C   -0.441096
    28  H    0.116084
    29  C    0.470859
    30  O   -0.219233
    31  C    0.692328
    32  C    0.272171
    33  S   -0.253169
    34  C   -0.236890
    35  O   -0.251861
    36  C   -0.243917
    37  H    0.118389
    38  H    0.163367
    39  H    0.268715
    40  H    0.265506
    41  H    0.357106
    42  H    0.351152
 Sum of Mulliken charges =  -0.00000

 Dipole moment (field-independent basis, Debye):
    X=             -3.3204    Y=             -0.1298    Z=              0.4457  Tot=              3.3527
 Quadrupole moment (field-independent basis, Debye-Ang):
   XX=           -189.3397   YY=           -207.6121   ZZ=           -187.6274
   XY=             -4.6087   XZ=            -12.5661   YZ=             14.8473

 Normal termination of Gaussian 16 at Tue Nov 17 13:27:33 2020.
