 Gaussian 16, Revision C.01,
 Gaussian 16:  ES64L-G16RevC.01  3-Jul-2019

 -------------------------------------
 # opt=modredundant b3lyp/6-311+g(d,p)
 -------------------------------------

 ------------
 NDI_-170.pdb
 ------------
 Symbolic Z-matrix:
 Charge =  0 Multiplicity = 1

 SCF Done:  E(RB3LYP) =  -2202.00675795     A.U. after   18 cycles
 SCF Done:  E(RB3LYP) =  -2202.04262940     A.U. after   17 cycles
 SCF Done:  E(RB3LYP) =  -2202.06860044     A.U. after   15 cycles
 SCF Done:  E(RB3LYP) =  -2202.07521635     A.U. after   15 cycles
 SCF Done:  E(RB3LYP) =  -2202.07880919     A.U. after   14 cycles
 SCF Done:  E(RB3LYP) =  -2202.07930255     A.U. after   14 cycles
 SCF Done:  E(RB3LYP) =  -2202.07933523     A.U. after   14 cycles
 SCF Done:  E(RB3LYP) =  -2202.07950749     A.U. after   12 cycles
 SCF Done:  E(RB3LYP) =  -2202.07963825     A.U. after   15 cycles
 SCF Done:  E(RB3LYP) =  -2202.07968923     A.U. after   14 cycles
 SCF Done:  E(RB3LYP) =  -2202.08000598     A.U. after   14 cycles
 SCF Done:  E(RB3LYP) =  -2202.07998291     A.U. after   14 cycles
 SCF Done:  E(RB3LYP) =  -2202.08000861     A.U. after   14 cycles
 SCF Done:  E(RB3LYP) =  -2202.07998405     A.U. after   14 cycles
 SCF Done:  E(RB3LYP) =  -2202.08000950     A.U. after   14 cycles
 SCF Done:  E(RB3LYP) =  -2202.07999026     A.U. after   14 cycles
 SCF Done:  E(RB3LYP) =  -2202.08000984     A.U. after   14 cycles
 SCF Done:  E(RB3LYP) =  -2202.08000992     A.U. after   11 cycles
 SCF Done:  E(RB3LYP) =  -2202.08000968     A.U. after   12 cycles
 SCF Done:  E(RB3LYP) =  -2202.08000997     A.U. after   12 cycles
 Optimization completed.
    -- Stationary point found.

                         Standard orientation:
 ---------------------------------------------------------------------
 Center     Atomic      Atomic             Coordinates (Angstroms)
 Number     Number       Type             X           Y           Z
 ---------------------------------------------------------------------
      1          6           0       -3.251601   -2.926317    0.078083
      2          6           0       -2.608521   -1.593109   -0.075351
      3          6           0       -3.371703   -0.406978    0.073686
      4          6           0       -4.750418   -0.457012    0.379723
      5          6           0       -5.425996   -1.770734    0.546164
      6          6           0       -1.265212   -1.528881   -0.320004
      7          6           0       -2.709659    0.840654   -0.098631
      8          6           0       -1.307093    0.889006   -0.398199
      9          6           0       -0.542567   -0.304119   -0.465504
     10          6           0       -0.744490    2.215074   -0.748588
     11          6           0       -2.897678    3.352775   -0.150524
     12          6           0       -3.500018    2.015426    0.046141
     13          6           0       -4.849604    1.943406    0.356768
     14          6           0       -5.482947    0.709594    0.525243
     15          1           0       -6.537081    0.644585    0.762735
     16          1           0       -5.398341    2.871351    0.459834
     17          1           0       -0.740973   -2.471657   -0.353478
     18          7           0       -1.568378    3.321022   -0.535473
     19          7           0       -4.609812   -2.889729    0.373925
     20          8           0       -2.665531   -3.984722   -0.040340
     21          8           0       -6.603769   -1.901651    0.811160
     22          8           0       -3.492016    4.405978   -0.016555
     23          8           0        0.360389    2.402512   -1.225152
     24          6           0        0.910621   -0.467931   -0.552220
     25          6           0        1.543169   -1.682219   -0.813626
     26         16           0        2.102220    0.701114   -0.021104
     27          6           0        2.922999   -1.671991   -0.587282
     28          1           0        1.034285   -2.560098   -1.188491
     29          6           0        3.408443   -0.459705   -0.105604
     30          8           0        3.770526   -2.721565   -0.809100
     31          6           0        4.765330   -0.130257    0.232020
     32          6           0        5.255823    1.075532    0.712543
     33         16           0        6.097278   -1.277128    0.079952
     34          6           0        6.655141    1.086746    0.948066
     35          8           0        4.418649    2.127793    0.932122
     36          6           0        7.235204   -0.113512    0.649767
     37          1           0        7.196332    1.945967    1.324426
     38          1           0        8.276575   -0.383382    0.736459
     39          1           0        4.923184    2.915927    1.157424
     40          1           0        3.271658   -3.510397   -1.044289
     41          1           0       -5.065618   -3.789036    0.483951
     42          1           0       -1.145981    4.214466   -0.762405
 ---------------------------------------------------------------------

 The electronic state is 1-A.
 Alpha  occ. eigenvalues --  -88.89239 -88.88971 -19.18226 -19.17971 -19.13111
 Alpha  occ. eigenvalues --  -19.12996 -19.12267 -19.12184 -14.38455 -14.37752
 Alpha  occ. eigenvalues --  -10.31804 -10.31664 -10.31206 -10.30822 -10.26003
 Alpha  occ. eigenvalues --  -10.25605 -10.24690 -10.23569 -10.23326 -10.23283
 Alpha  occ. eigenvalues --  -10.23083 -10.22971 -10.22740 -10.22686 -10.22678
 Alpha  occ. eigenvalues --  -10.22387 -10.22096 -10.22069 -10.21455 -10.21390
 Alpha  occ. eigenvalues --  -10.20304 -10.19949  -7.97793  -7.97483  -5.94109
 Alpha  occ. eigenvalues --   -5.93810  -5.93715  -5.93396  -5.93353  -5.93026
 Alpha  occ. eigenvalues --   -1.09349  -1.09188  -1.09026  -1.08625  -1.07454
 Alpha  occ. eigenvalues --   -1.06752  -0.96398  -0.95714  -0.92545  -0.91109
 Alpha  occ. eigenvalues --   -0.89621  -0.87245  -0.83917  -0.81072  -0.79038
 Alpha  occ. eigenvalues --   -0.78111  -0.75588  -0.74785  -0.73531  -0.71410
 Alpha  occ. eigenvalues --   -0.71256  -0.68147  -0.66996  -0.65450  -0.62894
 Alpha  occ. eigenvalues --   -0.62631  -0.62150  -0.61052  -0.58927  -0.57601
 Alpha  occ. eigenvalues --   -0.57005  -0.55789  -0.54991  -0.52426  -0.51696
 Alpha  occ. eigenvalues --   -0.50975  -0.50635  -0.50359  -0.49544  -0.49160
 Alpha  occ. eigenvalues --   -0.48196  -0.47717  -0.47270  -0.46333  -0.46026
 Alpha  occ. eigenvalues --   -0.45871  -0.45437  -0.45114  -0.44708  -0.43980
 Alpha  occ. eigenvalues --   -0.43428  -0.42974  -0.42916  -0.42211  -0.42114
 Alpha  occ. eigenvalues --   -0.40717  -0.40238  -0.39876  -0.39305  -0.38331
 Alpha  occ. eigenvalues --   -0.37949  -0.36986  -0.36090  -0.35357  -0.34553
 Alpha  occ. eigenvalues --   -0.32793  -0.31674  -0.31469  -0.31053  -0.30519
 Alpha  occ. eigenvalues --   -0.30221  -0.29347  -0.28572  -0.28059  -0.26707
 Alpha  occ. eigenvalues --   -0.25755  -0.25219  -0.20625
 Alpha virt. eigenvalues --   -0.13557  -0.08487  -0.07095  -0.05051  -0.04272
 Alpha virt. eigenvalues --   -0.02718  -0.01672  -0.01107  -0.00476  -0.00274
 Alpha virt. eigenvalues --    0.00638   0.00724   0.01193   0.01683   0.01855

 Mulliken charges:
               1
     1  C    0.400513
     2  C   -0.164436
     3  C    0.236340
     4  C    0.133007
     5  C    0.261364
     6  C    0.062965
     7  C    0.175582
     8  C    0.029169
     9  C    0.302954
    10  C    0.018676
    11  C    0.388237
    12  C    0.023998
    13  C   -0.401451
    14  C   -0.537874
    15  H    0.163383
    16  H    0.165689
    17  H    0.155670
    18  N   -0.362000
    19  N   -0.405908
    20  O   -0.293891
    21  O   -0.276126
    22  O   -0.291730
    23  O   -0.240295
    24  C    0.100716
    25  C   -0.203330
    26  S   -0.735244
    27  C   -0.605079
    28  H    0.115344
    29  C    0.408168
    30  O   -0.220390
    31  C    0.699443
    32  C    0.314694
    33  S   -0.242236
    34  C   -0.246651
    35  O   -0.228810
    36  C   -0.230826
    37  H    0.121121
    38  H    0.166300
    39  H    0.269240
    40  H    0.270303
    41  H    0.355533
    42  H    0.347867
 Sum of Mulliken charges =  -0.00000

 Dipole moment (field-independent basis, Debye):
    X=              5.3290    Y=             -0.4040    Z=              0.6497  Tot=              5.3836
 Quadrupole moment (field-independent basis, Debye-Ang):
   XX=           -184.0842   YY=           -199.8129   ZZ=           -197.8572
   XY=              8.6380   XZ=             10.3613   YZ=              8.6045

 Normal termination of Gaussian 16 at Tue Nov 17 17:42:50 2020.
