 Gaussian 16, Revision C.01,
 Gaussian 16:  ES64L-G16RevC.01  3-Jul-2019

 -------------------------------------
 # opt=modredundant b3lyp/6-311+g(d,p)
 -------------------------------------

 ------------
 NDI_-150.pdb
 ------------
 Symbolic Z-matrix:
 Charge =  0 Multiplicity = 1

 SCF Done:  E(RB3LYP) =  -2202.02560763     A.U. after   18 cycles
 SCF Done:  E(RB3LYP) =  -2202.04967031     A.U. after   18 cycles
 SCF Done:  E(RB3LYP) =  -2202.07105641     A.U. after   15 cycles
 SCF Done:  E(RB3LYP) =  -2202.07788263     A.U. after   14 cycles
 SCF Done:  E(RB3LYP) =  -2202.08013516     A.U. after   14 cycles
 SCF Done:  E(RB3LYP) =  -2202.08024743     A.U. after   14 cycles
 SCF Done:  E(RB3LYP) =  -2202.08053787     A.U. after   13 cycles
 SCF Done:  E(RB3LYP) =  -2202.08066996     A.U. after   14 cycles
 SCF Done:  E(RB3LYP) =  -2202.08072119     A.U. after   13 cycles
 SCF Done:  E(RB3LYP) =  -2202.08074084     A.U. after   12 cycles
 SCF Done:  E(RB3LYP) =  -2202.08092132     A.U. after   11 cycles
 SCF Done:  E(RB3LYP) =  -2202.08092267     A.U. after   11 cycles
 SCF Done:  E(RB3LYP) =  -2202.08092443     A.U. after   12 cycles
 SCF Done:  E(RB3LYP) =  -2202.08092473     A.U. after   10 cycles
 SCF Done:  E(RB3LYP) =  -2202.08092520     A.U. after   11 cycles
 SCF Done:  E(RB3LYP) =  -2202.08092522     A.U. after   12 cycles
 SCF Done:  E(RB3LYP) =  -2202.08092544     A.U. after   12 cycles
 SCF Done:  E(RB3LYP) =  -2202.08092554     A.U. after   10 cycles
 SCF Done:  E(RB3LYP) =  -2202.08092559     A.U. after   11 cycles
 SCF Done:  E(RB3LYP) =  -2202.08092560     A.U. after    8 cycles
 Optimization completed.
    -- Stationary point found.

                         Standard orientation:
 ---------------------------------------------------------------------
 Center     Atomic      Atomic             Coordinates (Angstroms)
 Number     Number       Type             X           Y           Z
 ---------------------------------------------------------------------
      1          6           0       -3.145516   -2.933971    0.349607
      2          6           0       -2.559252   -1.578918    0.159636
      3          6           0       -3.398254   -0.437910    0.088325
      4          6           0       -4.804307   -0.556892    0.171507
      5          6           0       -5.426225   -1.894369    0.358245
      6          6           0       -1.202161   -1.449559    0.055953
      7          6           0       -2.784936    0.836540   -0.067339
      8          6           0       -1.356260    0.958798   -0.130909
      9          6           0       -0.532898   -0.195023   -0.112190
     10          6           0       -0.804637    2.326653   -0.226202
     11          6           0       -3.098652    3.317203   -0.389256
     12          6           0       -3.651424    1.960592   -0.178426
     13          6           0       -5.028996    1.818711   -0.108997
     14          6           0       -5.613217    0.563121    0.075825
     15          1           0       -6.687434    0.444874    0.138789
     16          1           0       -5.637789    2.709186   -0.205068
     17          1           0       -0.617236   -2.352557    0.150197
     18          7           0       -1.715542    3.362344   -0.431138
     19          7           0       -4.533443   -2.963958    0.434753
     20          8           0       -2.492527   -3.956269    0.422057
     21          8           0       -6.622850   -2.081837    0.443824
     22          8           0       -3.768076    4.325423   -0.513300
     23          8           0        0.376996    2.608437   -0.131535
     24          6           0        0.918460   -0.331672   -0.280909
     25          6           0        1.489557   -1.476316   -0.830206
     26         16           0        2.187320    0.732358    0.301158
     27          6           0        2.886817   -1.507582   -0.765109
     28          1           0        0.913896   -2.264064   -1.298717
     29          6           0        3.446756   -0.401063   -0.133475
     30          8           0        3.680711   -2.497753   -1.273603
     31          6           0        4.841984   -0.144252    0.107040
     32          6           0        5.410195    0.952535    0.736966
     33         16           0        6.121767   -1.251831   -0.390359
     34          6           0        6.826939    0.914020    0.818080
     35          8           0        4.627198    1.954034    1.228874
     36          6           0        7.342983   -0.215938    0.250430
     37          1           0        7.425378    1.689153    1.280631
     38          1           0        8.380574   -0.502967    0.174611
     39          1           0        5.172257    2.686184    1.534132
     40          1           0        3.145814   -3.256300   -1.528590
     41          1           0       -4.951470   -3.879225    0.562109
     42          1           0       -1.299839    4.284057   -0.508317
 ---------------------------------------------------------------------

 The electronic state is 1-A.
 Alpha  occ. eigenvalues --  -88.88929 -88.88838 -19.17865 -19.17791 -19.13214
 Alpha  occ. eigenvalues --  -19.13118 -19.12657 -19.12318 -14.38567 -14.37958
 Alpha  occ. eigenvalues --  -10.31917 -10.31789 -10.31402 -10.30981 -10.25619
 Alpha  occ. eigenvalues --  -10.25372 -10.24787 -10.23765 -10.23281 -10.23273
 Alpha  occ. eigenvalues --  -10.23156 -10.22883 -10.22845 -10.22767 -10.22589
 Alpha  occ. eigenvalues --  -10.22338 -10.22104 -10.21764 -10.21630 -10.21573
 Alpha  occ. eigenvalues --  -10.19911 -10.19653  -7.97484  -7.97300  -5.93799
 Alpha  occ. eigenvalues --   -5.93624  -5.93406  -5.93210  -5.93045  -5.92850
 Alpha  occ. eigenvalues --   -1.09308  -1.08984  -1.08879  -1.08822  -1.07574
 Alpha  occ. eigenvalues --   -1.06964  -0.96526  -0.95940  -0.92662  -0.90842
 Alpha  occ. eigenvalues --   -0.89378  -0.87294  -0.84088  -0.81059  -0.79180
 Alpha  occ. eigenvalues --   -0.77925  -0.75284  -0.74498  -0.73510  -0.71533
 Alpha  occ. eigenvalues --   -0.71264  -0.68217  -0.67071  -0.65563  -0.63077
 Alpha  occ. eigenvalues --   -0.62349  -0.61907  -0.60933  -0.59052  -0.57337
 Alpha  occ. eigenvalues --   -0.57051  -0.55656  -0.54877  -0.52482  -0.51745
 Alpha  occ. eigenvalues --   -0.51026  -0.50675  -0.50435  -0.49363  -0.49243
 Alpha  occ. eigenvalues --   -0.48334  -0.47908  -0.47427  -0.46451  -0.46073
 Alpha  occ. eigenvalues --   -0.45927  -0.45282  -0.45137  -0.44556  -0.43793
 Alpha  occ. eigenvalues --   -0.43235  -0.43053  -0.42912  -0.42335  -0.42250
 Alpha  occ. eigenvalues --   -0.40730  -0.40100  -0.39901  -0.39034  -0.38423
 Alpha  occ. eigenvalues --   -0.37403  -0.36661  -0.35878  -0.35403  -0.34264
 Alpha  occ. eigenvalues --   -0.32977  -0.31750  -0.31437  -0.31031  -0.30782
 Alpha  occ. eigenvalues --   -0.30297  -0.29454  -0.28683  -0.28155  -0.26822
 Alpha  occ. eigenvalues --   -0.25493  -0.25107  -0.20495
 Alpha virt. eigenvalues --   -0.13604  -0.08168  -0.07270  -0.05154  -0.04313
 Alpha virt. eigenvalues --   -0.02518  -0.01496  -0.01192  -0.00623  -0.00082
 Alpha virt. eigenvalues --    0.00479   0.00640   0.00977   0.01603   0.01881

 Mulliken charges:
               1
     1  C    0.464126
     2  C   -0.122086
     3  C    0.233556
     4  C    0.180398
     5  C    0.255052
     6  C   -0.121966
     7  C    0.195333
     8  C    0.035459
     9  C    0.116066
    10  C    0.211389
    11  C    0.346311
    12  C    0.064069
    13  C   -0.380141
    14  C   -0.573459
    15  H    0.164119
    16  H    0.166159
    17  H    0.170828
    18  N   -0.418291
    19  N   -0.402786
    20  O   -0.290084
    21  O   -0.276570
    22  O   -0.286257
    23  O   -0.238160
    24  C   -0.052893
    25  C   -0.465781
    26  S   -0.354221
    27  C   -0.582641
    28  H    0.125023
    29  C    0.481282
    30  O   -0.231339
    31  C    0.719285
    32  C    0.297349
    33  S   -0.256909
    34  C   -0.234204
    35  O   -0.231183
    36  C   -0.239895
    37  H    0.120099
    38  H    0.165222
    39  H    0.268772
    40  H    0.270234
    41  H    0.356454
    42  H    0.352279
 Sum of Mulliken charges =  -0.00000

 Dipole moment (field-independent basis, Debye):
    X=              4.7052    Y=             -0.3300    Z=              0.0477  Tot=              4.7170
 Quadrupole moment (field-independent basis, Debye-Ang):
   XX=           -185.2369   YY=           -202.5824   ZZ=           -194.7543
   XY=              8.6251   XZ=              6.6350   YZ=             11.1450

 Normal termination of Gaussian 16 at Tue Nov 17 15:56:14 2020.
