 Gaussian 16, Revision C.01,
 Gaussian 16:  ES64L-G16RevC.01  3-Jul-2019

 -------------------------------------
 # opt=modredundant b3lyp/6-311+g(d,p)
 -------------------------------------

 ------------
 NDI_-130.pdb
 ------------
 Symbolic Z-matrix:
 Charge =  0 Multiplicity = 1

 SCF Done:  E(RB3LYP) =  -2202.03802709     A.U. after   18 cycles
 SCF Done:  E(RB3LYP) =  -2202.06403648     A.U. after   16 cycles
 SCF Done:  E(RB3LYP) =  -2202.07106958     A.U. after   15 cycles
 SCF Done:  E(RB3LYP) =  -2202.07929917     A.U. after   14 cycles
 SCF Done:  E(RB3LYP) =  -2202.08073202     A.U. after   14 cycles
 SCF Done:  E(RB3LYP) =  -2202.08114035     A.U. after   15 cycles
 SCF Done:  E(RB3LYP) =  -2202.08145774     A.U. after   13 cycles
 SCF Done:  E(RB3LYP) =  -2202.08161613     A.U. after   13 cycles
 SCF Done:  E(RB3LYP) =  -2202.08167811     A.U. after   12 cycles
 SCF Done:  E(RB3LYP) =  -2202.08169555     A.U. after   12 cycles
 SCF Done:  E(RB3LYP) =  -2202.08180515     A.U. after   13 cycles
 SCF Done:  E(RB3LYP) =  -2202.08179849     A.U. after   13 cycles
 SCF Done:  E(RB3LYP) =  -2202.08180736     A.U. after   12 cycles
 SCF Done:  E(RB3LYP) =  -2202.08179837     A.U. after   12 cycles
 SCF Done:  E(RB3LYP) =  -2202.08180806     A.U. after   12 cycles
 SCF Done:  E(RB3LYP) =  -2202.08180694     A.U. after   12 cycles
 SCF Done:  E(RB3LYP) =  -2202.08180878     A.U. after   11 cycles
 SCF Done:  E(RB3LYP) =  -2202.08180882     A.U. after    9 cycles
 SCF Done:  E(RB3LYP) =  -2202.08180861     A.U. after   10 cycles
 SCF Done:  E(RB3LYP) =  -2202.08180882     A.U. after   10 cycles
 Optimization completed.
    -- Stationary point found.

                         Standard orientation:
 ---------------------------------------------------------------------
 Center     Atomic      Atomic             Coordinates (Angstroms)
 Number     Number       Type             X           Y           Z
 ---------------------------------------------------------------------
      1          6           0       -3.285650   -2.926275    0.253033
      2          6           0       -2.613134   -1.617668    0.030510
      3          6           0       -3.356958   -0.411601    0.101484
      4          6           0       -4.741592   -0.417678    0.399108
      5          6           0       -5.442373   -1.706767    0.643002
      6          6           0       -1.260845   -1.584768   -0.209248
      7          6           0       -2.687349    0.820596   -0.144623
      8          6           0       -1.289412    0.829604   -0.439103
      9          6           0       -0.557132   -0.367635   -0.408083
     10          6           0       -0.680844    2.113406   -0.893937
     11          6           0       -2.812005    3.327699   -0.355037
     12          6           0       -3.452489    2.017032   -0.081682
     13          6           0       -4.802569    1.984660    0.222321
     14          6           0       -5.452461    0.767495    0.463021
     15          1           0       -6.509299    0.733238    0.695927
     16          1           0       -5.342242    2.922608    0.265291
     17          1           0       -0.711662   -2.517931   -0.204330
     18          7           0       -1.478949    3.249747   -0.729376
     19          7           0       -4.645403   -2.846521    0.541888
     20          8           0       -2.722081   -4.000419    0.194019
     21          8           0       -6.623436   -1.798010    0.909504
     22          8           0       -3.386593    4.396933   -0.287598
     23          8           0        0.410892    2.224600   -1.411078
     24          6           0        0.901247   -0.481040   -0.522837
     25          6           0        1.594504   -1.315392   -1.367782
     26         16           0        1.983145    0.362883    0.550198
     27          6           0        2.992674   -1.252902   -1.178405
     28          1           0        1.118581   -1.926591   -2.125443
     29          6           0        3.395521   -0.399698   -0.162293
     30          8           0        3.914829   -1.953006   -1.905918
     31          6           0        4.734164   -0.146323    0.305452
     32          6           0        5.134682    0.709054    1.317304
     33         16           0        6.153975   -0.928233   -0.386706
     34          6           0        6.537678    0.747257    1.534084
     35          8           0        4.214473    1.426308    2.029840
     36          6           0        7.211053   -0.083649    0.685316
     37          1           0        7.014500    1.361058    2.288367
     38          1           0        8.275436   -0.251954    0.628615
     39          1           0        4.657716    2.079212    2.580507
     40          1           0        3.472636   -2.571086   -2.496080
     41          1           0       -5.117038   -3.730245    0.701204
     42          1           0       -1.047012    4.121016   -1.017307
 ---------------------------------------------------------------------

 The electronic state is 1-A.
 Alpha  occ. eigenvalues --  -88.88670 -88.88566 -19.17577 -19.17534 -19.13348
 Alpha  occ. eigenvalues --  -19.13307 -19.12769 -19.12707 -14.38720 -14.38154
 Alpha  occ. eigenvalues --  -10.32062 -10.31996 -10.31656 -10.31443 -10.25175
 Alpha  occ. eigenvalues --  -10.25108 -10.24413 -10.24001 -10.23745 -10.23553
 Alpha  occ. eigenvalues --  -10.23264 -10.23213 -10.23051 -10.22696 -10.22521
 Alpha  occ. eigenvalues --  -10.22412 -10.22109 -10.22055 -10.22017 -10.21305
 Alpha  occ. eigenvalues --  -10.19746 -10.19297  -7.97227  -7.97122  -5.93557
 Alpha  occ. eigenvalues --   -5.93438  -5.93162  -5.93045  -5.92755  -5.92681
 Alpha  occ. eigenvalues --   -1.09472  -1.09031  -1.08609  -1.08528  -1.07747
 Alpha  occ. eigenvalues --   -1.07255  -0.96703  -0.96117  -0.93009  -0.90747
 Alpha  occ. eigenvalues --   -0.89214  -0.87515  -0.84420  -0.81053  -0.79471
 Alpha  occ. eigenvalues --   -0.77896  -0.75013  -0.74214  -0.73345  -0.71729
 Alpha  occ. eigenvalues --   -0.71484  -0.68351  -0.67259  -0.65689  -0.63336
 Alpha  occ. eigenvalues --   -0.62104  -0.61764  -0.60786  -0.59095  -0.57443
 Alpha  occ. eigenvalues --   -0.56901  -0.55574  -0.54786  -0.52695  -0.51952
 Alpha  occ. eigenvalues --   -0.51163  -0.50832  -0.50688  -0.49512  -0.48976
 Alpha  occ. eigenvalues --   -0.48432  -0.47940  -0.47667  -0.46460  -0.46194
 Alpha  occ. eigenvalues --   -0.46045  -0.45408  -0.44819  -0.44494  -0.43902
 Alpha  occ. eigenvalues --   -0.43468  -0.43211  -0.42739  -0.42553  -0.42395
 Alpha  occ. eigenvalues --   -0.40889  -0.39876  -0.39825  -0.38994  -0.38549
 Alpha  occ. eigenvalues --   -0.37191  -0.36370  -0.35826  -0.35409  -0.34526
 Alpha  occ. eigenvalues --   -0.33237  -0.31987  -0.31545  -0.31266  -0.30798
 Alpha  occ. eigenvalues --   -0.30186  -0.29563  -0.28927  -0.28271  -0.27027
 Alpha  occ. eigenvalues --   -0.25347  -0.24974  -0.20154
 Alpha virt. eigenvalues --   -0.13931  -0.07995  -0.07082  -0.05496  -0.04510
 Alpha virt. eigenvalues --   -0.02420  -0.01393  -0.01181  -0.01010   0.00160
 Alpha virt. eigenvalues --    0.00278   0.00395   0.00649   0.01118   0.01756

 Mulliken charges:
               1
     1  C    0.476055
     2  C   -0.181837
     3  C    0.195700
     4  C    0.184605
     5  C    0.275285
     6  C   -0.279070
     7  C    0.140353
     8  C   -0.160781
     9  C    0.193925
    10  C    0.145415
    11  C    0.275699
    12  C    0.073434
    13  C   -0.369963
    14  C   -0.586597
    15  H    0.166202
    16  H    0.166643
    17  H    0.165522
    18  N   -0.363263
    19  N   -0.401771
    20  O   -0.283023
    21  O   -0.278353
    22  O   -0.287971
    23  O   -0.216037
    24  C    0.506152
    25  C   -0.485921
    26  S   -0.499444
    27  C   -0.438538
    28  H    0.116121
    29  C    0.471317
    30  O   -0.218891
    31  C    0.691117
    32  C    0.269456
    33  S   -0.252678
    34  C   -0.236465
    35  O   -0.252249
    36  C   -0.244407
    37  H    0.118419
    38  H    0.163371
    39  H    0.268803
    40  H    0.265440
    41  H    0.357100
    42  H    0.351123
 Sum of Mulliken charges =  -0.00000

 Dipole moment (field-independent basis, Debye):
    X=              3.3211    Y=             -0.1215    Z=              0.4345  Tot=              3.3516
 Quadrupole moment (field-independent basis, Debye-Ang):
   XX=           -189.3409   YY=           -207.6052   ZZ=           -187.6467
   XY=              4.6552   XZ=             12.5146   YZ=             14.8484

 Normal termination of Gaussian 16 at Tue Nov 17 17:59:15 2020.
