 Gaussian 16, Revision C.01,
 Gaussian 16:  ES64L-G16RevC.01  3-Jul-2019

 -------------------------------------
 # opt=modredundant b3lyp/6-311+g(d,p)
 -------------------------------------

 -----------
 NDI_-80.pdb
 -----------
 Symbolic Z-matrix:
 Charge =  0 Multiplicity = 1

 SCF Done:  E(RB3LYP) =  -2202.04270963     A.U. after   20 cycles
 SCF Done:  E(RB3LYP) =  -2202.07024077     A.U. after   14 cycles
 SCF Done:  E(RB3LYP) =  -2202.07737832     A.U. after   14 cycles
 SCF Done:  E(RB3LYP) =  -2202.08006425     A.U. after   14 cycles
 SCF Done:  E(RB3LYP) =  -2202.08008903     A.U. after   13 cycles
 SCF Done:  E(RB3LYP) =  -2202.08051439     A.U. after   13 cycles
 SCF Done:  E(RB3LYP) =  -2202.08054773     A.U. after   12 cycles
 SCF Done:  E(RB3LYP) =  -2202.08056559     A.U. after   12 cycles
 SCF Done:  E(RB3LYP) =  -2202.08057576     A.U. after   11 cycles
 SCF Done:  E(RB3LYP) =  -2202.08058012     A.U. after   11 cycles
 SCF Done:  E(RB3LYP) =  -2202.08058361     A.U. after   11 cycles
 SCF Done:  E(RB3LYP) =  -2202.08058497     A.U. after   11 cycles
 SCF Done:  E(RB3LYP) =  -2202.08058699     A.U. after   11 cycles
 SCF Done:  E(RB3LYP) =  -2202.08058945     A.U. after   11 cycles
 SCF Done:  E(RB3LYP) =  -2202.08059051     A.U. after   11 cycles
 SCF Done:  E(RB3LYP) =  -2202.08059096     A.U. after   10 cycles
 SCF Done:  E(RB3LYP) =  -2202.08059134     A.U. after   10 cycles
 SCF Done:  E(RB3LYP) =  -2202.08059154     A.U. after   10 cycles
 SCF Done:  E(RB3LYP) =  -2202.08059166     A.U. after    9 cycles
 SCF Done:  E(RB3LYP) =  -2202.08059171     A.U. after    9 cycles
 Optimization completed.
    -- Stationary point found.

                         Standard orientation:
 ---------------------------------------------------------------------
 Center     Atomic      Atomic             Coordinates (Angstroms)
 Number     Number       Type             X           Y           Z
 ---------------------------------------------------------------------
      1          6           0        2.851930   -3.005536    0.367164
      2          6           0        2.378547   -1.597731    0.261472
      3          6           0        3.305055   -0.548128    0.040861
      4          6           0        4.693044   -0.808008   -0.088264
      5          6           0        5.201389   -2.202736    0.015451
      6          6           0        1.036810   -1.323026    0.387623
      7          6           0        2.820425    0.786877   -0.060453
      8          6           0        1.422371    1.050514    0.074021
      9          6           0        0.532126    0.000353    0.325365
     10          6           0        0.945479    2.458378   -0.089418
     11          6           0        3.313164    3.228721   -0.440904
     12          6           0        3.764873    1.821383   -0.303240
     13          6           0        5.113787    1.540810   -0.425243
     14          6           0        5.582942    0.224576   -0.315770
     15          1           0        6.637189   -0.003544   -0.410767
     16          1           0        5.795469    2.361790   -0.609911
     17          1           0        0.351143   -2.142505    0.563342
     18          7           0        1.942586    3.407809   -0.330151
     19          7           0        4.228109   -3.175673    0.232830
     20          8           0        2.121697   -3.956002    0.556323
     21          8           0        6.373349   -2.505338   -0.078963
     22          8           0        4.057026    4.168532   -0.641020
     23          8           0       -0.211596    2.816597   -0.038515
     24          6           0       -0.925801    0.161501    0.509881
     25          6           0       -1.599258    0.562688    1.629901
     26         16           0       -2.022135   -0.424260   -0.712146
     27          6           0       -3.005758    0.447030    1.495613
     28          1           0       -1.111219    0.937146    2.521244
     29          6           0       -3.428522   -0.065780    0.284205
     30          8           0       -3.908916    0.779725    2.470285
     31          6           0       -4.779790   -0.271477   -0.178018
     32          6           0       -5.196701   -0.820326   -1.376233
     33         16           0       -6.191792    0.182807    0.772811
     34          6           0       -6.607322   -0.880510   -1.537128
     35          8           0       -4.286084   -1.247786   -2.304828
     36          6           0       -7.269834   -0.375892   -0.455648
     37          1           0       -7.096864   -1.279530   -2.417179
     38          1           0       -8.335854   -0.301188   -0.306189
     39          1           0       -4.737042   -1.698430   -3.025347
     40          1           0       -3.505731    1.387408    3.098160
     41          1           0        4.564884   -4.129875    0.303774
     42          1           0        1.608422    4.359119   -0.440201
 ---------------------------------------------------------------------

 The electronic state is 1-A.
 Alpha  occ. eigenvalues --  -88.88476 -88.88076 -19.17092 -19.16911 -19.13564
 Alpha  occ. eigenvalues --  -19.13555 -19.13240 -19.13204 -14.38947 -14.38628
 Alpha  occ. eigenvalues --  -10.32270 -10.32265 -10.32183 -10.31905 -10.24667
 Alpha  occ. eigenvalues --  -10.24528 -10.24527 -10.24417 -10.24182 -10.24177
 Alpha  occ. eigenvalues --  -10.23610 -10.23596 -10.23533 -10.22574 -10.22560
 Alpha  occ. eigenvalues --  -10.22498 -10.22298 -10.21808 -10.21499 -10.20775
 Alpha  occ. eigenvalues --  -10.19128 -10.18849  -7.97023  -7.96632  -5.93353
 Alpha  occ. eigenvalues --   -5.92958  -5.92948  -5.92556  -5.92556  -5.92191
 Alpha  occ. eigenvalues --   -1.09721  -1.09526  -1.08059  -1.07999  -1.07869
 Alpha  occ. eigenvalues --   -1.07752  -0.96985  -0.96550  -0.93363  -0.90423
 Alpha  occ. eigenvalues --   -0.88923  -0.87573  -0.84797  -0.81084  -0.79819
 Alpha  occ. eigenvalues --   -0.77630  -0.74595  -0.73880  -0.73068  -0.72089
 Alpha  occ. eigenvalues --   -0.71529  -0.68643  -0.67422  -0.65982  -0.63719
 Alpha  occ. eigenvalues --   -0.61736  -0.61397  -0.60515  -0.59260  -0.57734
 Alpha  occ. eigenvalues --   -0.56479  -0.55641  -0.54355  -0.53014  -0.52328
 Alpha  occ. eigenvalues --   -0.51305  -0.51053  -0.50471  -0.49704  -0.48825
 Alpha  occ. eigenvalues --   -0.48645  -0.48286  -0.47809  -0.46596  -0.46485
 Alpha  occ. eigenvalues --   -0.46255  -0.45601  -0.44505  -0.44039  -0.43787
 Alpha  occ. eigenvalues --   -0.43564  -0.43484  -0.42968  -0.42842  -0.42186
 Alpha  occ. eigenvalues --   -0.41089  -0.39995  -0.39419  -0.38771  -0.38105
 Alpha  occ. eigenvalues --   -0.36639  -0.35937  -0.35761  -0.35246  -0.34041
 Alpha  occ. eigenvalues --   -0.33638  -0.32275  -0.31732  -0.31459  -0.31386
 Alpha  occ. eigenvalues --   -0.30187  -0.29754  -0.29394  -0.28020  -0.27443
 Alpha  occ. eigenvalues --   -0.25003  -0.24687  -0.19797
 Alpha virt. eigenvalues --   -0.14237  -0.08139  -0.06950  -0.05739  -0.04851
 Alpha virt. eigenvalues --   -0.02047  -0.01331  -0.01048  -0.00752  -0.00075
 Alpha virt. eigenvalues --    0.00152   0.00318   0.00488   0.00875   0.01515

 Mulliken charges:
               1
     1  C    0.523843
     2  C   -0.141004
     3  C    0.272165
     4  C    0.130219
     5  C    0.254473
     6  C   -0.497820
     7  C    0.240302
     8  C   -0.143454
     9  C    0.282310
    10  C    0.105226
    11  C    0.305988
    12  C    0.071740
    13  C   -0.386524
    14  C   -0.605121
    15  H    0.167629
    16  H    0.167762
    17  H    0.178743
    18  N   -0.429293
    19  N   -0.406946
    20  O   -0.273553
    21  O   -0.277182
    22  O   -0.281107
    23  O   -0.135682
    24  C    0.250959
    25  C   -0.465570
    26  S   -0.307217
    27  C   -0.532737
    28  H    0.102510
    29  C    0.497949
    30  O   -0.252552
    31  C    0.614622
    32  C    0.463429
    33  S   -0.291808
    34  C   -0.275641
    35  O   -0.250550
    36  C   -0.205817
    37  H    0.116625
    38  H    0.161219
    39  H    0.264970
    40  H    0.269468
    41  H    0.358567
    42  H    0.358865
 Sum of Mulliken charges =  -0.00000

 Dipole moment (field-independent basis, Debye):
    X=             -1.8551    Y=              0.1162    Z=             -0.1013  Tot=              1.8615
 Quadrupole moment (field-independent basis, Debye-Ang):
   XX=           -191.6586   YY=           -213.1211   ZZ=           -180.8401
   XY=              4.6910   XZ=             11.0445   YZ=             13.0921

 Normal termination of Gaussian 16 at Tue Nov 17 13:27:57 2020.
