 Gaussian 16, Revision C.01,
 Gaussian 16:  ES64L-G16RevC.01  3-Jul-2019

 -------------------------------------
 # opt=modredundant b3lyp/6-311+g(d,p)
 -------------------------------------

 ---------
 NDI_0.pdb
 ---------
 Symbolic Z-matrix:
 Charge =  0 Multiplicity = 1

 SCF Done:  E(RB3LYP) =  -2202.03323345     A.U. after   17 cycles
 SCF Done:  E(RB3LYP) =  -2202.04229682     A.U. after   17 cycles
 SCF Done:  E(RB3LYP) =  -2202.06836843     A.U. after   17 cycles
 SCF Done:  E(RB3LYP) =  -2202.07581231     A.U. after   15 cycles
 SCF Done:  E(RB3LYP) =  -2202.07993740     A.U. after   13 cycles
 SCF Done:  E(RB3LYP) =  -2202.08055686     A.U. after   14 cycles
 SCF Done:  E(RB3LYP) =  -2202.08066090     A.U. after   13 cycles
 SCF Done:  E(RB3LYP) =  -2202.08077719     A.U. after   13 cycles
 SCF Done:  E(RB3LYP) =  -2202.08093426     A.U. after   15 cycles
 SCF Done:  E(RB3LYP) =  -2202.08100794     A.U. after   13 cycles
 SCF Done:  E(RB3LYP) =  -2202.08117344     A.U. after    9 cycles
 SCF Done:  E(RB3LYP) =  -2202.08117350     A.U. after   10 cycles
 SCF Done:  E(RB3LYP) =  -2202.08117355     A.U. after    9 cycles
 SCF Done:  E(RB3LYP) =  -2202.08117360     A.U. after    9 cycles
 SCF Done:  E(RB3LYP) =  -2202.08117367     A.U. after    9 cycles
 SCF Done:  E(RB3LYP) =  -2202.08117376     A.U. after   10 cycles
 SCF Done:  E(RB3LYP) =  -2202.08117382     A.U. after    9 cycles
 SCF Done:  E(RB3LYP) =  -2202.08117387     A.U. after    9 cycles
 SCF Done:  E(RB3LYP) =  -2202.08117390     A.U. after    9 cycles
 SCF Done:  E(RB3LYP) =  -2202.08117391     A.U. after    9 cycles
 Optimization completed.
    -- Stationary point found.

                         Standard orientation:
 ---------------------------------------------------------------------
 Center     Atomic      Atomic             Coordinates (Angstroms)
 Number     Number       Type             X           Y           Z
 ---------------------------------------------------------------------
      1          6           0       -2.279482   -3.053090    0.193209
      2          6           0       -2.082133   -1.577688    0.158136
      3          6           0       -3.188773   -0.706196   -0.003990
      4          6           0       -4.496517   -1.214938   -0.169336
      5          6           0       -4.731129   -2.683339   -0.160701
      6          6           0       -0.816662   -1.077167    0.254848
      7          6           0       -2.943852    0.696302    0.014767
      8          6           0       -1.609112    1.212994    0.180512
      9          6           0       -0.496746    0.318615    0.222040
     10          6           0       -1.501615    2.677988    0.387314
     11          6           0       -3.932078    3.009196   -0.135978
     12          6           0       -4.079193    1.539745   -0.154338
     13          6           0       -5.352751    1.019271   -0.333143
     14          6           0       -5.572069   -0.358641   -0.337639
     15          1           0       -6.563233   -0.773795   -0.467475
     16          1           0       -6.170966    1.716386   -0.464807
     17          1           0       -0.029594   -1.813287    0.349949
     18          7           0       -2.643431    3.436041    0.127988
     19          7           0       -3.595598   -3.470529    0.027225
     20          8           0       -1.383001   -3.857932    0.348392
     21          8           0       -5.822625   -3.197283   -0.299879
     22          8           0       -4.838304    3.802965   -0.308239
     23          8           0       -0.516436    3.277675    0.788484
     24          6           0        0.933467    0.611408    0.147385
     25          6           0        1.658736    1.785628    0.018163
     26         16           0        2.065510   -0.757950    0.141014
     27          6           0        3.042918    1.598303   -0.087337
     28          1           0        1.203593    2.760732    0.026628
     29          6           0        3.461173    0.272716   -0.033616
     30          8           0        3.954972    2.604214   -0.224902
     31          6           0        4.803175   -0.233477   -0.091637
     32          6           0        5.218649   -1.555837   -0.025218
     33         16           0        6.214383    0.810414   -0.261907
     34          6           0        6.624073   -1.732186   -0.106549
     35          8           0        4.309529   -2.561770    0.105885
     36          6           0        7.283089   -0.542370   -0.236110
     37          1           0        7.114317   -2.697115   -0.070564
     38          1           0        8.347320   -0.383066   -0.318845
     39          1           0        4.754487   -3.414068    0.152564
     40          1           0        3.517978    3.458274   -0.140237
     41          1           0       -3.749884   -4.472799    0.041565
     42          1           0       -2.521195    4.434362    0.256398
 ---------------------------------------------------------------------

 The electronic state is 1-A.
 Alpha  occ. eigenvalues --  -88.89482 -88.89325 -19.18526 -19.17999 -19.12982
 Alpha  occ. eigenvalues --  -19.12919 -19.12543 -19.12156 -14.38364 -14.37844
 Alpha  occ. eigenvalues --  -10.31683 -10.31588 -10.31588 -10.30766 -10.26290
 Alpha  occ. eigenvalues --  -10.25756 -10.25002 -10.23771 -10.23674 -10.23538
 Alpha  occ. eigenvalues --  -10.23289 -10.23050 -10.22946 -10.22684 -10.22630
 Alpha  occ. eigenvalues --  -10.22331 -10.22327 -10.22027 -10.21379 -10.21288
 Alpha  occ. eigenvalues --  -10.20179 -10.19525  -7.98034  -7.97906  -5.94349
 Alpha  occ. eigenvalues --   -5.94231  -5.93956  -5.93831  -5.93593  -5.93437
 Alpha  occ. eigenvalues --   -1.09644  -1.09133  -1.09110  -1.08806  -1.07370
 Alpha  occ. eigenvalues --   -1.06819  -0.96337  -0.95793  -0.92526  -0.91302
 Alpha  occ. eigenvalues --   -0.89777  -0.87226  -0.83892  -0.81059  -0.79054
 Alpha  occ. eigenvalues --   -0.78405  -0.75737  -0.74918  -0.73435  -0.71579
 Alpha  occ. eigenvalues --   -0.71323  -0.68153  -0.67058  -0.65520  -0.62901
 Alpha  occ. eigenvalues --   -0.62601  -0.62507  -0.61118  -0.58836  -0.57925
 Alpha  occ. eigenvalues --   -0.56982  -0.55855  -0.54952  -0.52429  -0.51917
 Alpha  occ. eigenvalues --   -0.51352  -0.50610  -0.50400  -0.49642  -0.49145
 Alpha  occ. eigenvalues --   -0.48330  -0.48047  -0.46982  -0.46328  -0.45949
 Alpha  occ. eigenvalues --   -0.45666  -0.45491  -0.45338  -0.45025  -0.43775
 Alpha  occ. eigenvalues --   -0.43547  -0.43257  -0.42812  -0.42185  -0.42038
 Alpha  occ. eigenvalues --   -0.40610  -0.40315  -0.39825  -0.39346  -0.38681
 Alpha  occ. eigenvalues --   -0.38316  -0.37246  -0.36127  -0.35359  -0.34631
 Alpha  occ. eigenvalues --   -0.32879  -0.31746  -0.31469  -0.31046  -0.30638
 Alpha  occ. eigenvalues --   -0.30326  -0.29255  -0.28527  -0.28125  -0.26843
 Alpha  occ. eigenvalues --   -0.25867  -0.25805  -0.20849
 Alpha virt. eigenvalues --   -0.13551  -0.08756  -0.07192  -0.05003  -0.04142
 Alpha virt. eigenvalues --   -0.02731  -0.01362  -0.01080  -0.00504  -0.00432
 Alpha virt. eigenvalues --    0.00481   0.00810   0.01204   0.01376   0.01524

 Mulliken charges:
               1
     1  C    0.398084
     2  C   -0.073320
     3  C    0.075388
     4  C    0.319847
     5  C    0.315644
     6  C   -0.351237
     7  C    0.127064
     8  C    0.101732
     9  C    0.070351
    10  C   -0.040111
    11  C    0.383603
    12  C    0.161102
    13  C   -0.407761
    14  C   -0.591124
    15  H    0.163950
    16  H    0.166687
    17  H    0.173165
    18  N   -0.358554
    19  N   -0.396397
    20  O   -0.292949
    21  O   -0.276596
    22  O   -0.291809
    23  O   -0.283361
    24  C    0.163552
    25  C    0.118080
    26  S   -0.742595
    27  C   -0.615623
    28  H    0.158085
    29  C    0.268768
    30  O   -0.215387
    31  C    0.738950
    32  C    0.495202
    33  S   -0.246149
    34  C   -0.299374
    35  O   -0.219716
    36  C   -0.237177
    37  H    0.121895
    38  H    0.167219
    39  H    0.271824
    40  H    0.276337
    41  H    0.355637
    42  H    0.347071
 Sum of Mulliken charges =  -0.00000

 Dipole moment (field-independent basis, Debye):
    X=              5.8616    Y=             -0.7815    Z=             -0.3659  Tot=              5.9248
 Quadrupole moment (field-independent basis, Debye-Ang):
   XX=           -183.8866   YY=           -197.0841   ZZ=           -200.0736
   XY=             -9.0264   XZ=             -2.8108   YZ=             -1.1915

 Normal termination of Gaussian 16 at Tue Nov 17 16:35:12 2020.
