 Gaussian 16, Revision C.01,
 Gaussian 16:  ES64L-G16RevC.01  3-Jul-2019

 -------------------------------------
 # opt=modredundant b3lyp/6-311+g(d,p)
 -------------------------------------

 -----------
 NDI_100.pdb
 -----------
 Symbolic Z-matrix:
 Charge =  0 Multiplicity = 1

 SCF Done:  E(RB3LYP) =  -2202.04223580     A.U. after   20 cycles
 SCF Done:  E(RB3LYP) =  -2202.06951308     A.U. after   15 cycles
 SCF Done:  E(RB3LYP) =  -2202.07641495     A.U. after   15 cycles
 SCF Done:  E(RB3LYP) =  -2202.07935595     A.U. after   14 cycles
 SCF Done:  E(RB3LYP) =  -2202.07963701     A.U. after   14 cycles
 SCF Done:  E(RB3LYP) =  -2202.07989712     A.U. after   13 cycles
 SCF Done:  E(RB3LYP) =  -2202.07994920     A.U. after   13 cycles
 SCF Done:  E(RB3LYP) =  -2202.07998370     A.U. after   12 cycles
 SCF Done:  E(RB3LYP) =  -2202.07999347     A.U. after   13 cycles
 SCF Done:  E(RB3LYP) =  -2202.07999954     A.U. after   11 cycles
 SCF Done:  E(RB3LYP) =  -2202.08007561     A.U. after   12 cycles
 SCF Done:  E(RB3LYP) =  -2202.08008206     A.U. after   12 cycles
 SCF Done:  E(RB3LYP) =  -2202.08004548     A.U. after   13 cycles
 SCF Done:  E(RB3LYP) =  -2202.08008913     A.U. after   13 cycles
 SCF Done:  E(RB3LYP) =  -2202.08009005     A.U. after   10 cycles
 SCF Done:  E(RB3LYP) =  -2202.08009142     A.U. after   12 cycles
 SCF Done:  E(RB3LYP) =  -2202.08009141     A.U. after   11 cycles
 SCF Done:  E(RB3LYP) =  -2202.08009276     A.U. after   11 cycles
 SCF Done:  E(RB3LYP) =  -2202.08009322     A.U. after   11 cycles
 SCF Done:  E(RB3LYP) =  -2202.08009324     A.U. after    9 cycles
 Optimization completed.
    -- Stationary point found.

                         Standard orientation:
 ---------------------------------------------------------------------
 Center     Atomic      Atomic             Coordinates (Angstroms)
 Number     Number       Type             X           Y           Z
 ---------------------------------------------------------------------
      1          6           0        3.169073   -2.970250   -0.011910
      2          6           0        2.551228   -1.618060   -0.095609
      3          6           0        3.352360   -0.458286    0.045236
      4          6           0        4.748866   -0.552291    0.276250
      5          6           0        5.398284   -1.887930    0.372801
      6          6           0        1.195401   -1.502369   -0.302362
      7          6           0        2.734851    0.820943   -0.051166
      8          6           0        1.328834    0.917455   -0.282717
      9          6           0        0.555066   -0.241860   -0.388813
     10          6           0        0.724925    2.277328   -0.442242
     11          6           0        2.964276    3.330920   -0.002892
     12          6           0        3.556645    1.972095    0.092640
     13          6           0        4.914921    1.852386    0.321188
     14          6           0        5.515803    0.588477    0.413000
     15          1           0        6.579226    0.486611    0.590123
     16          1           0        5.501219    2.756777    0.426684
     17          1           0        0.600577   -2.402839   -0.390987
     18          7           0        1.601372    3.350361   -0.257647
     19          7           0        4.543159   -2.976977    0.218270
     20          8           0        2.551647   -4.007917   -0.131545
     21          8           0        6.584992   -2.051247    0.569634
     22          8           0        3.597253    4.360563    0.120430
     23          8           0       -0.432747    2.497445   -0.722991
     24          6           0       -0.912847   -0.257733   -0.585831
     25          6           0       -1.599059   -0.452225   -1.750794
     26         16           0       -1.990396   -0.109256    0.772843
     27          6           0       -3.006755   -0.451455   -1.562167
     28          1           0       -1.122342   -0.571496   -2.716273
     29          6           0       -3.411242   -0.278740   -0.253895
     30          8           0       -3.923822   -0.629563   -2.563813
     31          6           0       -4.756345   -0.235492    0.270260
     32          6           0       -5.154870   -0.078393    1.583673
     33         16           0       -6.182732   -0.365674   -0.755120
     34          6           0       -6.563240   -0.054901    1.773529
     35          8           0       -4.229963    0.028581    2.588880
     36          6           0       -7.242816   -0.195867    0.598338
     37          1           0       -7.038849    0.056639    2.740352
     38          1           0       -8.310984   -0.216036    0.447155
     39          1           0       -4.663789    0.283652    3.408744
     40          1           0       -3.503245   -0.509594   -3.420743
     41          1           0        4.976919   -3.891882    0.279905
     42          1           0        1.180581    4.267952   -0.356754
 ---------------------------------------------------------------------

 The electronic state is 1-A.
 Alpha  occ. eigenvalues --  -88.88219 -88.87858 -19.16835 -19.16808 -19.13685
 Alpha  occ. eigenvalues --  -19.13683 -19.13375 -19.13358 -14.39065 -14.38732
 Alpha  occ. eigenvalues --  -10.32396 -10.32391 -10.32281 -10.32048 -10.24716
 Alpha  occ. eigenvalues --  -10.24555 -10.24370 -10.24368 -10.24345 -10.24230
 Alpha  occ. eigenvalues --  -10.23764 -10.23736 -10.23715 -10.22747 -10.22672
 Alpha  occ. eigenvalues --  -10.22667 -10.22162 -10.21510 -10.21264 -10.20521
 Alpha  occ. eigenvalues --  -10.19032 -10.18623  -7.96765  -7.96414  -5.93097
 Alpha  occ. eigenvalues --   -5.92730  -5.92702  -5.92338  -5.92293  -5.91974
 Alpha  occ. eigenvalues --   -1.09844  -1.09661  -1.08124  -1.07901  -1.07807
 Alpha  occ. eigenvalues --   -1.07729  -0.97112  -0.96677  -0.93504  -0.90286
 Alpha  occ. eigenvalues --   -0.88807  -0.87552  -0.84939  -0.81131  -0.79952
 Alpha  occ. eigenvalues --   -0.77490  -0.74370  -0.73700  -0.73116  -0.72222
 Alpha  occ. eigenvalues --   -0.71420  -0.68753  -0.67513  -0.66079  -0.63851
 Alpha  occ. eigenvalues --   -0.61702  -0.61196  -0.60376  -0.59335  -0.57824
 Alpha  occ. eigenvalues --   -0.56261  -0.55729  -0.54180  -0.53156  -0.52394
 Alpha  occ. eigenvalues --   -0.51429  -0.51152  -0.50413  -0.49729  -0.48930
 Alpha  occ. eigenvalues --   -0.48567  -0.48378  -0.47841  -0.46711  -0.46630
 Alpha  occ. eigenvalues --   -0.46300  -0.45699  -0.44415  -0.43874  -0.43820
 Alpha  occ. eigenvalues --   -0.43605  -0.43415  -0.43105  -0.42926  -0.42026
 Alpha  occ. eigenvalues --   -0.41222  -0.39935  -0.39238  -0.38491  -0.38059
 Alpha  occ. eigenvalues --   -0.36776  -0.35904  -0.35507  -0.35037  -0.34001
 Alpha  occ. eigenvalues --   -0.33705  -0.32368  -0.31842  -0.31586  -0.31412
 Alpha  occ. eigenvalues --   -0.30127  -0.29771  -0.29541  -0.28003  -0.27625
 Alpha  occ. eigenvalues --   -0.24821  -0.24458  -0.19605
 Alpha virt. eigenvalues --   -0.14357  -0.08236  -0.06984  -0.05801  -0.04764
 Alpha virt. eigenvalues --   -0.01941  -0.01405  -0.01041  -0.00712  -0.00105
 Alpha virt. eigenvalues --    0.00022   0.00272   0.00613   0.00799   0.01446

 Mulliken charges:
               1
     1  C    0.551513
     2  C   -0.174229
     3  C    0.280828
     4  C    0.143369
     5  C    0.264410
     6  C   -0.466266
     7  C    0.233925
     8  C   -0.280183
     9  C    0.261221
    10  C    0.202511
    11  C    0.285296
    12  C    0.096905
    13  C   -0.403656
    14  C   -0.656279
    15  H    0.168387
    16  H    0.168299
    17  H    0.170019
    18  N   -0.420470
    19  N   -0.404345
    20  O   -0.271990
    21  O   -0.277730
    22  O   -0.279845
    23  O   -0.155339
    24  C    0.553486
    25  C   -0.597221
    26  S   -0.205082
    27  C   -0.424059
    28  H    0.101961
    29  C    0.299983
    30  O   -0.238039
    31  C    0.580679
    32  C    0.388791
    33  S   -0.286723
    34  C   -0.257955
    35  O   -0.264693
    36  C   -0.216182
    37  H    0.115615
    38  H    0.160195
    39  H    0.266841
    40  H    0.268121
    41  H    0.359235
    42  H    0.358697
 Sum of Mulliken charges =  -0.00000

 Dipole moment (field-independent basis, Debye):
    X=             -1.2610    Y=              0.6537    Z=              0.0715  Tot=              1.4222
 Quadrupole moment (field-independent basis, Debye-Ang):
   XX=           -193.3390   YY=           -218.3904   ZZ=           -175.3226
   XY=             -1.8121   XZ=            -12.2464   YZ=              2.7840

 Normal termination of Gaussian 16 at Tue Nov 17 22:01:28 2020.
