 Gaussian 16, Revision C.01,
 Gaussian 16:  ES64L-G16RevC.01  3-Jul-2019

 -------------------------------------
 # opt=modredundant b3lyp/6-311+g(d,p)
 -------------------------------------

 -----------
 NDI_-20.pdb
 -----------
 Symbolic Z-matrix:
 Charge =  0 Multiplicity = 1

 SCF Done:  E(RB3LYP) =  -2202.04559573     A.U. after   17 cycles
 SCF Done:  E(RB3LYP) =  -2202.06303395     A.U. after   17 cycles
 SCF Done:  E(RB3LYP) =  -2202.07127170     A.U. after   16 cycles
 SCF Done:  E(RB3LYP) =  -2202.08125754     A.U. after   14 cycles
 SCF Done:  E(RB3LYP) =  -2202.08270976     A.U. after   13 cycles
 SCF Done:  E(RB3LYP) =  -2202.08281822     A.U. after   13 cycles
 SCF Done:  E(RB3LYP) =  -2202.08293529     A.U. after   13 cycles
 SCF Done:  E(RB3LYP) =  -2202.08301559     A.U. after   12 cycles
 SCF Done:  E(RB3LYP) =  -2202.08305702     A.U. after   13 cycles
 SCF Done:  E(RB3LYP) =  -2202.08308303     A.U. after   11 cycles
 SCF Done:  E(RB3LYP) =  -2202.08308778     A.U. after   12 cycles
 SCF Done:  E(RB3LYP) =  -2202.08309209     A.U. after   12 cycles
 SCF Done:  E(RB3LYP) =  -2202.08309414     A.U. after   11 cycles
 SCF Done:  E(RB3LYP) =  -2202.08309585     A.U. after   11 cycles
 SCF Done:  E(RB3LYP) =  -2202.08309802     A.U. after   11 cycles
 SCF Done:  E(RB3LYP) =  -2202.08309926     A.U. after   11 cycles
 SCF Done:  E(RB3LYP) =  -2202.08309998     A.U. after   11 cycles
 SCF Done:  E(RB3LYP) =  -2202.08310079     A.U. after   11 cycles
 SCF Done:  E(RB3LYP) =  -2202.08310100     A.U. after   10 cycles
 SCF Done:  E(RB3LYP) =  -2202.08310113     A.U. after   10 cycles
 Optimization completed.
    -- Stationary point found.

                         Standard orientation:
 ---------------------------------------------------------------------
 Center     Atomic      Atomic             Coordinates (Angstroms)
 Number     Number       Type             X           Y           Z
 ---------------------------------------------------------------------
      1          6           0        2.415492   -3.061282    0.124523
      2          6           0        2.151872   -1.598058    0.045352
      3          6           0        3.227009   -0.672311    0.048760
      4          6           0        4.567503   -1.113095    0.136537
      5          6           0        4.869073   -2.566430    0.228711
      6          6           0        0.858806   -1.156928    0.010278
      7          6           0        2.922490    0.715624   -0.052053
      8          6           0        1.559423    1.164176   -0.127121
      9          6           0        0.496995    0.224466   -0.041880
     10          6           0        1.345007    2.605150   -0.425152
     11          6           0        3.804722    3.069285   -0.212284
     12          6           0        4.026172    1.614734   -0.067589
     13          6           0        5.332483    1.160452    0.031983
     14          6           0        5.611975   -0.203841    0.135393
     15          1           0        6.628692   -0.568197    0.207998
     16          1           0        6.128418    1.894731    0.020489
     17          1           0        0.086798   -1.913632    0.065658
     18          7           0        2.477610    3.421114   -0.386164
     19          7           0        3.759484   -3.410348    0.208333
     20          8           0        1.548322   -3.911675    0.119926
     21          8           0        5.991247   -3.022919    0.313942
     22          8           0        4.685006    3.909387   -0.206966
     23          8           0        0.283194    3.126248   -0.719629
     24          6           0       -0.928338    0.495382    0.107155
     25          6           0       -1.611858    1.608863    0.555010
     26         16           0       -2.082445   -0.776154   -0.309741
     27          6           0       -3.004236    1.446300    0.580072
     28          1           0       -1.130904    2.522404    0.863976
     29          6           0       -3.455440    0.208708    0.129652
     30          8           0       -3.893831    2.391591    1.003694
     31          6           0       -4.812874   -0.243365    0.004046
     32          6           0       -5.260300   -1.482948   -0.428518
     33         16           0       -6.201666    0.768770    0.399653
     34          6           0       -6.672215   -1.623294   -0.444109
     35          8           0       -4.373221   -2.449280   -0.799343
     36          6           0       -7.304614   -0.488126   -0.022522
     37          1           0       -7.185622   -2.524841   -0.754626
     38          1           0       -8.366656   -0.317805    0.065712
     39          1           0       -4.837783   -3.257492   -1.038909
     40          1           0       -3.452641    3.242619    1.094895
     41          1           0        3.958108   -4.403190    0.266832
     42          1           0        2.297092    4.400599   -0.576282
 ---------------------------------------------------------------------

 The electronic state is 1-A.
 Alpha  occ. eigenvalues --  -88.89331 -88.89320 -19.18396 -19.17948 -19.13000
 Alpha  occ. eigenvalues --  -19.12950 -19.12345 -19.12252 -14.38386 -14.37850
 Alpha  occ. eigenvalues --  -10.31704 -10.31623 -10.31488 -10.30871 -10.26094
 Alpha  occ. eigenvalues --  -10.25740 -10.24690 -10.23678 -10.23615 -10.23184
 Alpha  occ. eigenvalues --  -10.23176 -10.23154 -10.22802 -10.22779 -10.22704
 Alpha  occ. eigenvalues --  -10.22410 -10.22155 -10.22028 -10.21486 -10.21392
 Alpha  occ. eigenvalues --  -10.20039 -10.19839  -7.97892  -7.97883  -5.94215
 Alpha  occ. eigenvalues --   -5.94199  -5.93820  -5.93805  -5.93442  -5.93430
 Alpha  occ. eigenvalues --   -1.09489  -1.09133  -1.09059  -1.08715  -1.07395
 Alpha  occ. eigenvalues --   -1.06818  -0.96356  -0.95763  -0.92576  -0.91236
 Alpha  occ. eigenvalues --   -0.89713  -0.87261  -0.83947  -0.81030  -0.79078
 Alpha  occ. eigenvalues --   -0.78340  -0.75655  -0.74884  -0.73342  -0.71586
 Alpha  occ. eigenvalues --   -0.71334  -0.68130  -0.67036  -0.65496  -0.62935
 Alpha  occ. eigenvalues --   -0.62530  -0.62406  -0.61063  -0.58797  -0.57820
 Alpha  occ. eigenvalues --   -0.57033  -0.55700  -0.54985  -0.52427  -0.51934
 Alpha  occ. eigenvalues --   -0.51129  -0.50659  -0.50415  -0.49576  -0.49112
 Alpha  occ. eigenvalues --   -0.48198  -0.47935  -0.47112  -0.46135  -0.46003
 Alpha  occ. eigenvalues --   -0.45757  -0.45346  -0.45230  -0.44987  -0.43909
 Alpha  occ. eigenvalues --   -0.43494  -0.43217  -0.42850  -0.42233  -0.42057
 Alpha  occ. eigenvalues --   -0.40628  -0.40322  -0.39819  -0.39550  -0.38566
 Alpha  occ. eigenvalues --   -0.38000  -0.37104  -0.36158  -0.35287  -0.34909
 Alpha  occ. eigenvalues --   -0.32898  -0.31764  -0.31420  -0.31066  -0.30546
 Alpha  occ. eigenvalues --   -0.30401  -0.29280  -0.28662  -0.27995  -0.26783
 Alpha  occ. eigenvalues --   -0.25725  -0.25663  -0.20715
 Alpha virt. eigenvalues --   -0.13633  -0.08483  -0.07185  -0.05061  -0.04233
 Alpha virt. eigenvalues --   -0.02675  -0.01415  -0.01087  -0.00558  -0.00335
 Alpha virt. eigenvalues --    0.00515   0.00759   0.01152   0.01315   0.01620

 Mulliken charges:
               1
     1  C    0.397927
     2  C   -0.158746
     3  C    0.226076
     4  C    0.145838
     5  C    0.241844
     6  C   -0.072221
     7  C    0.245227
     8  C    0.133640
     9  C    0.136952
    10  C   -0.176183
    11  C    0.394116
    12  C    0.025315
    13  C   -0.397117
    14  C   -0.476214
    15  H    0.163626
    16  H    0.166182
    17  H    0.172226
    18  N   -0.368547
    19  N   -0.402681
    20  O   -0.290669
    21  O   -0.275726
    22  O   -0.290734
    23  O   -0.262948
    24  C    0.046818
    25  C   -0.087642
    26  S   -0.676836
    27  C   -0.621150
    28  H    0.129797
    29  C    0.345779
    30  O   -0.227129
    31  C    0.796054
    32  C    0.485632
    33  S   -0.264273
    34  C   -0.305878
    35  O   -0.224541
    36  C   -0.213636
    37  H    0.121456
    38  H    0.166712
    39  H    0.270497
    40  H    0.276384
    41  H    0.356589
    42  H    0.348182
 Sum of Mulliken charges =  -0.00000

 Dipole moment (field-independent basis, Debye):
    X=             -5.4889    Y=             -0.6119    Z=              0.2764  Tot=              5.5298
 Quadrupole moment (field-independent basis, Debye-Ang):
   XX=           -184.5034   YY=           -199.2021   ZZ=           -197.5344
   XY=              8.8524   XZ=              2.4826   YZ=              9.1867

 Normal termination of Gaussian 16 at Tue Nov 17 13:39:10 2020.
