 Gaussian 16, Revision C.01,
 Gaussian 16:  ES64L-G16RevC.01  3-Jul-2019

 -------------------------------------
 # opt=modredundant b3lyp/6-311+g(d,p)
 -------------------------------------

 -----------
 NDI_170.pdb
 -----------
 Symbolic Z-matrix:
 Charge =  0 Multiplicity = 1

 SCF Done:  E(RB3LYP) =  -2202.00704420     A.U. after   18 cycles
 SCF Done:  E(RB3LYP) =  -2202.04262205     A.U. after   18 cycles
 SCF Done:  E(RB3LYP) =  -2202.06811097     A.U. after   15 cycles
 SCF Done:  E(RB3LYP) =  -2202.07532246     A.U. after   15 cycles
 SCF Done:  E(RB3LYP) =  -2202.07903478     A.U. after   16 cycles
 SCF Done:  E(RB3LYP) =  -2202.07963030     A.U. after   15 cycles
 SCF Done:  E(RB3LYP) =  -2202.07971419     A.U. after   13 cycles
 SCF Done:  E(RB3LYP) =  -2202.07977006     A.U. after   13 cycles
 SCF Done:  E(RB3LYP) =  -2202.07980770     A.U. after   13 cycles
 SCF Done:  E(RB3LYP) =  -2202.07984138     A.U. after   13 cycles
 SCF Done:  E(RB3LYP) =  -2202.07996264     A.U. after   15 cycles
 SCF Done:  E(RB3LYP) =  -2202.08000411     A.U. after   15 cycles
 SCF Done:  E(RB3LYP) =  -2202.08000294     A.U. after   12 cycles
 SCF Done:  E(RB3LYP) =  -2202.08000660     A.U. after   14 cycles
 SCF Done:  E(RB3LYP) =  -2202.08000688     A.U. after   12 cycles
 SCF Done:  E(RB3LYP) =  -2202.08000863     A.U. after   14 cycles
 SCF Done:  E(RB3LYP) =  -2202.08000980     A.U. after   12 cycles
 SCF Done:  E(RB3LYP) =  -2202.08000984     A.U. after    9 cycles
 SCF Done:  E(RB3LYP) =  -2202.08000985     A.U. after    9 cycles
 SCF Done:  E(RB3LYP) =  -2202.08000986     A.U. after    9 cycles
 Optimization completed.
    -- Stationary point found.

                         Standard orientation:
 ---------------------------------------------------------------------
 Center     Atomic      Atomic             Coordinates (Angstroms)
 Number     Number       Type             X           Y           Z
 ---------------------------------------------------------------------
      1          6           0       -3.251596   -2.926312   -0.078079
      2          6           0       -2.608526   -1.593098    0.075319
      3          6           0       -3.371724   -0.406971   -0.073678
      4          6           0       -4.750445   -0.457014   -0.379661
      5          6           0       -5.426004   -1.770746   -0.546096
      6          6           0       -1.265210   -1.528857    0.319931
      7          6           0       -2.709675    0.840662    0.098635
      8          6           0       -1.307095    0.889032    0.398124
      9          6           0       -0.542553   -0.304090    0.465385
     10          6           0       -0.744504    2.215107    0.748431
     11          6           0       -2.897764    3.352779    0.150644
     12          6           0       -3.500067    2.015422   -0.046039
     13          6           0       -4.849675    1.943390   -0.356596
     14          6           0       -5.483010    0.709584   -0.525098
     15          1           0       -6.537151    0.644563   -0.762554
     16          1           0       -5.398419    2.871342   -0.459570
     17          1           0       -0.740973   -2.471633    0.353381
     18          7           0       -1.568404    3.321054    0.535392
     19          7           0       -4.609761   -2.889739   -0.374103
     20          8           0       -2.665531   -3.984709    0.040468
     21          8           0       -6.603813   -1.901676   -0.810928
     22          8           0       -3.492167    4.405968    0.016832
     23          8           0        0.360441    2.402574    1.224869
     24          6           0        0.910624   -0.467925    0.552088
     25          6           0        1.543154   -1.682233    0.813429
     26         16           0        2.102248    0.701057    0.020815
     27          6           0        2.922977   -1.672052    0.587065
     28          1           0        1.034226   -2.560171    1.188106
     29          6           0        3.408440   -0.459780    0.105359
     30          8           0        3.770409   -2.721760    0.808493
     31          6           0        4.765363   -0.130309   -0.232099
     32          6           0        5.255876    1.075505   -0.712551
     33         16           0        6.097373   -1.277075   -0.079723
     34          6           0        6.655258    1.086854   -0.947671
     35          8           0        4.418617    2.127602   -0.932600
     36          6           0        7.235359   -0.113334   -0.649160
     37          1           0        7.196459    1.946101   -1.323953
     38          1           0        8.276776   -0.383117   -0.735557
     39          1           0        4.923200    2.916258   -1.155971
     40          1           0        3.271789   -3.509377    1.048220
     41          1           0       -5.065613   -3.789037   -0.484002
     42          1           0       -1.145951    4.214486    0.762265
 ---------------------------------------------------------------------

 The electronic state is 1-A.
 Alpha  occ. eigenvalues --  -88.89239 -88.88971 -19.18225 -19.17973 -19.13111
 Alpha  occ. eigenvalues --  -19.12996 -19.12267 -19.12184 -14.38454 -14.37752
 Alpha  occ. eigenvalues --  -10.31804 -10.31664 -10.31206 -10.30822 -10.26002
 Alpha  occ. eigenvalues --  -10.25606 -10.24690 -10.23569 -10.23326 -10.23282
 Alpha  occ. eigenvalues --  -10.23083 -10.22971 -10.22740 -10.22687 -10.22678
 Alpha  occ. eigenvalues --  -10.22387 -10.22096 -10.22069 -10.21455 -10.21390
 Alpha  occ. eigenvalues --  -10.20305 -10.19949  -7.97793  -7.97483  -5.94109
 Alpha  occ. eigenvalues --   -5.93810  -5.93715  -5.93397  -5.93353  -5.93026
 Alpha  occ. eigenvalues --   -1.09348  -1.09188  -1.09028  -1.08625  -1.07453
 Alpha  occ. eigenvalues --   -1.06751  -0.96398  -0.95714  -0.92545  -0.91109
 Alpha  occ. eigenvalues --   -0.89621  -0.87245  -0.83917  -0.81073  -0.79038
 Alpha  occ. eigenvalues --   -0.78111  -0.75588  -0.74785  -0.73531  -0.71410
 Alpha  occ. eigenvalues --   -0.71256  -0.68147  -0.66996  -0.65450  -0.62894
 Alpha  occ. eigenvalues --   -0.62631  -0.62150  -0.61053  -0.58927  -0.57601
 Alpha  occ. eigenvalues --   -0.57005  -0.55789  -0.54991  -0.52426  -0.51696
 Alpha  occ. eigenvalues --   -0.50975  -0.50634  -0.50359  -0.49544  -0.49160
 Alpha  occ. eigenvalues --   -0.48196  -0.47717  -0.47269  -0.46333  -0.46026
 Alpha  occ. eigenvalues --   -0.45871  -0.45438  -0.45114  -0.44708  -0.43980
 Alpha  occ. eigenvalues --   -0.43431  -0.42975  -0.42915  -0.42210  -0.42114
 Alpha  occ. eigenvalues --   -0.40717  -0.40235  -0.39876  -0.39305  -0.38331
 Alpha  occ. eigenvalues --   -0.37951  -0.36986  -0.36089  -0.35360  -0.34552
 Alpha  occ. eigenvalues --   -0.32792  -0.31674  -0.31469  -0.31053  -0.30519
 Alpha  occ. eigenvalues --   -0.30221  -0.29347  -0.28572  -0.28059  -0.26707
 Alpha  occ. eigenvalues --   -0.25755  -0.25219  -0.20625
 Alpha virt. eigenvalues --   -0.13557  -0.08487  -0.07095  -0.05051  -0.04271
 Alpha virt. eigenvalues --   -0.02718  -0.01673  -0.01106  -0.00475  -0.00274
 Alpha virt. eigenvalues --    0.00638   0.00724   0.01193   0.01683   0.01855

 Mulliken charges:
               1
     1  C    0.400468
     2  C   -0.164446
     3  C    0.236326
     4  C    0.132948
     5  C    0.261381
     6  C    0.063115
     7  C    0.175584
     8  C    0.029108
     9  C    0.303305
    10  C    0.018764
    11  C    0.388319
    12  C    0.023829
    13  C   -0.401463
    14  C   -0.537929
    15  H    0.163383
    16  H    0.165691
    17  H    0.155690
    18  N   -0.362013
    19  N   -0.405918
    20  O   -0.293890
    21  O   -0.276123
    22  O   -0.291730
    23  O   -0.240325
    24  C    0.101166
    25  C   -0.204035
    26  S   -0.735247
    27  C   -0.603819
    28  H    0.115323
    29  C    0.408493
    30  O   -0.220054
    31  C    0.699111
    32  C    0.312932
    33  S   -0.241955
    34  C   -0.246087
    35  O   -0.228998
    36  C   -0.231258
    37  H    0.121128
    38  H    0.166301
    39  H    0.269278
    40  H    0.270243
    41  H    0.355538
    42  H    0.347868
 Sum of Mulliken charges =  -0.00000

 Dipole moment (field-independent basis, Debye):
    X=              5.3297    Y=             -0.4023    Z=             -0.6396  Tot=              5.3830
 Quadrupole moment (field-independent basis, Debye-Ang):
   XX=           -184.0801   YY=           -199.8221   ZZ=           -197.8480
   XY=              8.6456   XZ=            -10.3148   YZ=             -8.6232

 Normal termination of Gaussian 16 at Tue Nov 17 17:22:49 2020.
