 Gaussian 16, Revision C.01,
 Gaussian 16:  ES64L-G16RevC.01  3-Jul-2019

 --------------------------------------
 # opt=modredundant wb97xd/6-311+g(d,p)
 --------------------------------------

 -----------
 pBTTT_0.pdb
 -----------
 Symbolic Z-matrix:
 Charge =  0 Multiplicity = 1

 SCF Done:  E(RwB97XD) =  -1654.30246239     A.U. after   19 cycles
 SCF Done:  E(RwB97XD) =  -1654.36053345     A.U. after   16 cycles
 SCF Done:  E(RwB97XD) =  -1654.39905750     A.U. after   17 cycles
 SCF Done:  E(RwB97XD) =  -1654.40860108     A.U. after   15 cycles
 SCF Done:  E(RwB97XD) =  -1654.41091536     A.U. after   14 cycles
 SCF Done:  E(RwB97XD) =  -1654.41153040     A.U. after   14 cycles
 SCF Done:  E(RwB97XD) =  -1654.41160790     A.U. after   14 cycles
 SCF Done:  E(RwB97XD) =  -1654.41180750     A.U. after   13 cycles
 SCF Done:  E(RwB97XD) =  -1654.41183223     A.U. after   13 cycles
 SCF Done:  E(RwB97XD) =  -1654.41184109     A.U. after   11 cycles
 SCF Done:  E(RwB97XD) =  -1654.41184341     A.U. after   11 cycles
 SCF Done:  E(RwB97XD) =  -1654.41184392     A.U. after   10 cycles
 SCF Done:  E(RwB97XD) =  -1654.41184396     A.U. after   11 cycles
 SCF Done:  E(RwB97XD) =  -1654.41184407     A.U. after   10 cycles
 SCF Done:  E(RwB97XD) =  -1654.41184409     A.U. after   10 cycles
 SCF Done:  E(RwB97XD) =  -1654.41184409     A.U. after    9 cycles
 Optimization completed.
    -- Stationary point found.

                         Standard orientation:
 ---------------------------------------------------------------------
 Center     Atomic      Atomic             Coordinates (Angstroms)
 Number     Number       Type             X           Y           Z
 ---------------------------------------------------------------------
      1          6           0       -4.014363    0.380455   -0.004110
      2          6           0       -2.672687    0.859846    0.002717
      3          6           0       -1.726972   -0.133565    0.004446
      4          6           0       -4.072955   -0.976572   -0.007580
      5          1           0       -4.885742    1.023512   -0.003892
      6         16           0       -2.510453   -1.689148    0.000082
      7          1           0       -4.952081   -1.602328   -0.011389
      8          6           0       -0.279152   -0.025981    0.003870
      9         16           0        0.521041    1.539193    0.000344
     10          6           0        2.075349    0.779001   -0.001524
     11          6           0        1.958230   -0.596060    0.001099
     12          6           0        0.618225   -1.060872    0.004579
     13          1           0        0.328440   -2.102973    0.007397
     14         16           0        3.517846   -1.349773    0.000150
     15          6           0        4.296714    0.204549   -0.003864
     16          6           0        3.421698    1.244773   -0.004461
     17          1           0        5.375290    0.253732   -0.005587
     18          1           0        3.723650    2.282693   -0.006736
     19          8           0       -2.321152    2.170721    0.013687
     20          1           0       -3.099807    2.721805   -0.069532
 ---------------------------------------------------------------------

 The electronic state is 1-A.
 Alpha  occ. eigenvalues --  -89.05405 -89.04462 -89.04331 -19.29649 -10.36306
 Alpha  occ. eigenvalues --  -10.33604 -10.32953 -10.32846 -10.31759 -10.31698
 Alpha  occ. eigenvalues --  -10.31490 -10.30620 -10.29935 -10.29758  -8.09481
 Alpha  occ. eigenvalues --   -8.08507  -8.08341  -6.04328  -6.03942  -6.03553
 Alpha  occ. eigenvalues --   -6.03358  -6.03205  -6.02985  -6.02820  -6.02567
 Alpha  occ. eigenvalues --   -6.02376  -1.18772  -1.01641  -0.99912  -0.94870
 Alpha  occ. eigenvalues --   -0.87002  -0.86013  -0.84252  -0.80440  -0.79853
 Alpha  occ. eigenvalues --   -0.71134  -0.70613  -0.66300  -0.65182  -0.62006
 Alpha  occ. eigenvalues --   -0.61069  -0.58111  -0.57361  -0.53659  -0.53051
 Alpha  occ. eigenvalues --   -0.52055  -0.50137  -0.49119  -0.47364  -0.46920
 Alpha  occ. eigenvalues --   -0.46167  -0.45323  -0.44682  -0.43316  -0.42860
 Alpha  occ. eigenvalues --   -0.40968  -0.36716  -0.34514  -0.32319  -0.30149
 Alpha  occ. eigenvalues --   -0.26556
 Alpha virt. eigenvalues --    0.00743   0.04747   0.05717   0.05844   0.06119
 Alpha virt. eigenvalues --    0.06643   0.07507   0.08361   0.08649   0.08972
 Alpha virt. eigenvalues --    0.09417   0.09677   0.09929   0.10642   0.11071

 Mulliken charges:
               1
     1  C   -0.463978
     2  C    0.569956
     3  C    0.581554
     4  C   -0.205486
     5  H    0.145281
     6  S   -0.592877
     7  H    0.191163
     8  C    0.044923
     9  S   -0.429144
    10  C    0.007235
    11  C    0.434203
    12  C    0.036753
    13  H    0.161329
    14  S   -0.485200
    15  C   -0.186506
    16  C   -0.198455
    17  H    0.191315
    18  H    0.158673
    19  O   -0.240913
    20  H    0.280175
 Sum of Mulliken charges =  -0.00000

 Dipole moment (field-independent basis, Debye):
    X=             -2.5752    Y=              1.0014    Z=             -0.1381  Tot=              2.7665
 Quadrupole moment (field-independent basis, Debye-Ang):
   XX=            -76.2744   YY=            -93.2201   ZZ=           -108.4636
   XY=             -1.7101   XZ=              0.4570   YZ=             -0.4586

 Normal termination of Gaussian 16 at Tue Oct 26 00:23:18 2021.
