 Gaussian 16, Revision C.01,
 Gaussian 16:  ES64L-G16RevC.01  3-Jul-2019

 --------------------------------------
 # opt=modredundant wb97xd/6-311+g(d,p)
 --------------------------------------

 ------------
 pBTTT_90.pdb
 ------------
 Symbolic Z-matrix:
 Charge =  0 Multiplicity = 1

 SCF Done:  E(RwB97XD) =  -1654.29794286     A.U. after   18 cycles
 SCF Done:  E(RwB97XD) =  -1654.35668090     A.U. after   15 cycles
 SCF Done:  E(RwB97XD) =  -1654.39694022     A.U. after   16 cycles
 SCF Done:  E(RwB97XD) =  -1654.40672123     A.U. after   16 cycles
 SCF Done:  E(RwB97XD) =  -1654.40914367     A.U. after   15 cycles
 SCF Done:  E(RwB97XD) =  -1654.40976006     A.U. after   14 cycles
 SCF Done:  E(RwB97XD) =  -1654.40992412     A.U. after   14 cycles
 SCF Done:  E(RwB97XD) =  -1654.41009249     A.U. after   14 cycles
 SCF Done:  E(RwB97XD) =  -1654.41010372     A.U. after   13 cycles
 SCF Done:  E(RwB97XD) =  -1654.41011925     A.U. after   13 cycles
 SCF Done:  E(RwB97XD) =  -1654.41012626     A.U. after   11 cycles
 SCF Done:  E(RwB97XD) =  -1654.41012748     A.U. after   11 cycles
 SCF Done:  E(RwB97XD) =  -1654.41013129     A.U. after   11 cycles
 SCF Done:  E(RwB97XD) =  -1654.41013211     A.U. after   10 cycles
 SCF Done:  E(RwB97XD) =  -1654.41013150     A.U. after   10 cycles
 Optimization completed.
    -- Stationary point found.

                         Standard orientation:
 ---------------------------------------------------------------------
 Center     Atomic      Atomic             Coordinates (Angstroms)
 Number     Number       Type             X           Y           Z
 ---------------------------------------------------------------------
      1          6           0       -3.953064    0.705698    0.033586
      2          6           0       -2.571419    1.009660    0.215870
      3          6           0       -1.737737   -0.027322   -0.103020
      4          6           0       -4.142518   -0.563705   -0.417821
      5          1           0       -4.758429    1.402977    0.229398
      6         16           0       -2.662789   -1.402325   -0.630657
      7          1           0       -5.080358   -1.049308   -0.641263
      8          6           0       -0.277547   -0.053945   -0.031343
      9         16           0        0.522853   -0.573112    1.440942
     10          6           0        2.076335   -0.303982    0.732084
     11          6           0        1.953233    0.160233   -0.563618
     12          6           0        0.608696    0.302174   -1.003409
     13          1           0        0.298089    0.652971   -1.977646
     14         16           0        3.509442    0.432480   -1.273056
     15          6           0        4.294022   -0.084000    0.187959
     16          6           0        3.425678   -0.446041    1.168737
     17          1           0        5.372842   -0.088248    0.233647
     18          1           0        3.732775   -0.793200    2.145142
     19          8           0       -2.089248    2.198395    0.654003
     20          1           0       -2.817124    2.782352    0.868893
 ---------------------------------------------------------------------

 The electronic state is 1-A.
 Alpha  occ. eigenvalues --  -89.05109 -89.04706 -89.04425 -19.28987 -10.36045
 Alpha  occ. eigenvalues --  -10.33133 -10.32675 -10.32098 -10.32014 -10.31989
 Alpha  occ. eigenvalues --  -10.31906 -10.30280 -10.30159 -10.30103  -8.09168
 Alpha  occ. eigenvalues --   -8.08752  -8.08466  -6.04001  -6.03621  -6.03600
 Alpha  occ. eigenvalues --   -6.03318  -6.03264  -6.03228  -6.02946  -6.02815
 Alpha  occ. eigenvalues --   -6.02519  -1.18160  -1.01741  -0.99615  -0.94961
 Alpha  occ. eigenvalues --   -0.86845  -0.85907  -0.83859  -0.80618  -0.79866
 Alpha  occ. eigenvalues --   -0.70863  -0.70032  -0.66206  -0.64761  -0.62851
 Alpha  occ. eigenvalues --   -0.60748  -0.58099  -0.56958  -0.53549  -0.52516
 Alpha  occ. eigenvalues --   -0.51844  -0.49844  -0.49656  -0.47372  -0.47008
 Alpha  occ. eigenvalues --   -0.45785  -0.44916  -0.44275  -0.44019  -0.41875
 Alpha  occ. eigenvalues --   -0.41668  -0.36442  -0.33226  -0.30575  -0.30289
 Alpha  occ. eigenvalues --   -0.29288
 Alpha virt. eigenvalues --    0.02721   0.03708   0.04998   0.05995   0.06221
 Alpha virt. eigenvalues --    0.06633   0.07382   0.07485   0.08049   0.09029
 Alpha virt. eigenvalues --    0.09243   0.09486   0.09870   0.10307   0.10845

 Mulliken charges:
               1
     1  C   -0.129365
     2  C   -0.391819
     3  C    0.295814
     4  C   -0.219843
     5  H    0.146260
     6  S   -0.124595
     7  H    0.189802
     8  C    0.293701
     9  S   -0.491836
    10  C    0.282424
    11  C   -0.521606
    12  C    0.563106
    13  H    0.161792
    14  S   -0.428182
    15  C   -0.207633
    16  C    0.191958
    17  H    0.192277
    18  H    0.161677
    19  O   -0.237507
    20  H    0.273574
 Sum of Mulliken charges =  -0.00000

 Dipole moment (field-independent basis, Debye):
    X=             -1.9870    Y=              0.9756    Z=              0.2720  Tot=              2.2302
 Quadrupole moment (field-independent basis, Debye-Ang):
   XX=            -77.3711   YY=           -100.1136   ZZ=           -100.6719
   XY=             -6.9413   XZ=              2.0551   YZ=              0.1672

 Normal termination of Gaussian 16 at Tue Oct 26 00:34:11 2021.
