 Gaussian 16, Revision C.01,
 Gaussian 16:  ES64L-G16RevC.01  3-Jul-2019

 --------------------------------------
 # opt=modredundant wb97xd/6-311+g(d,p)
 --------------------------------------

 ------------
 pBTTT_25.pdb
 ------------
 Symbolic Z-matrix:
 Charge =  0 Multiplicity = 1

 SCF Done:  E(RwB97XD) =  -1654.30160267     A.U. after   19 cycles
 SCF Done:  E(RwB97XD) =  -1654.35966180     A.U. after   16 cycles
 SCF Done:  E(RwB97XD) =  -1654.39853257     A.U. after   17 cycles
 SCF Done:  E(RwB97XD) =  -1654.40832690     A.U. after   16 cycles
 SCF Done:  E(RwB97XD) =  -1654.41076772     A.U. after   15 cycles
 SCF Done:  E(RwB97XD) =  -1654.41143153     A.U. after   14 cycles
 SCF Done:  E(RwB97XD) =  -1654.41162841     A.U. after   14 cycles
 SCF Done:  E(RwB97XD) =  -1654.41179636     A.U. after   14 cycles
 SCF Done:  E(RwB97XD) =  -1654.41180517     A.U. after   13 cycles
 SCF Done:  E(RwB97XD) =  -1654.41181827     A.U. after   13 cycles
 SCF Done:  E(RwB97XD) =  -1654.41182137     A.U. after   11 cycles
 SCF Done:  E(RwB97XD) =  -1654.41182190     A.U. after   10 cycles
 SCF Done:  E(RwB97XD) =  -1654.41182192     A.U. after   10 cycles
 Optimization completed.
    -- Stationary point found.

                         Standard orientation:
 ---------------------------------------------------------------------
 Center     Atomic      Atomic             Coordinates (Angstroms)
 Number     Number       Type             X           Y           Z
 ---------------------------------------------------------------------
      1          6           0       -4.013496    0.361857   -0.157447
      2          6           0       -2.674609    0.844569   -0.219009
      3          6           0       -1.727548   -0.124528   -0.008667
      4          6           0       -4.067042   -0.970771    0.104918
      5          1           0       -4.887577    0.983854   -0.306166
      6         16           0       -2.503521   -1.653177    0.291514
      7          1           0       -4.944506   -1.591014    0.204630
      8          6           0       -0.278836   -0.016759   -0.022106
      9         16           0        0.522174    1.510031    0.309816
     10          6           0        2.075662    0.760928    0.174727
     11          6           0        1.956135   -0.584475   -0.110716
     12          6           0        0.614839   -1.032814   -0.229019
     13          1           0        0.318735   -2.046292   -0.463460
     14         16           0        3.514276   -1.322988   -0.272207
     15          6           0        4.295691    0.196370    0.047275
     16          6           0        3.422876    1.215844    0.263003
     17          1           0        5.374361    0.242060    0.059710
     18          1           0        3.726607    2.230940    0.476842
     19          8           0       -2.327815    2.133085   -0.467470
     20          1           0       -3.114004    2.672595   -0.555501
 ---------------------------------------------------------------------

 The electronic state is 1-A.
 Alpha  occ. eigenvalues --  -89.05366 -89.04533 -89.04354 -19.29467 -10.36225
 Alpha  occ. eigenvalues --  -10.33539 -10.32856 -10.32698 -10.31813 -10.31779
 Alpha  occ. eigenvalues --  -10.31631 -10.30544 -10.29998 -10.29834  -8.09437
 Alpha  occ. eigenvalues --   -8.08578  -8.08375  -6.04281  -6.03897  -6.03516
 Alpha  occ. eigenvalues --   -6.03428  -6.03238  -6.03056  -6.02855  -6.02639
 Alpha  occ. eigenvalues --   -6.02412  -1.18596  -1.01689  -0.99868  -0.94915
 Alpha  occ. eigenvalues --   -0.86984  -0.86009  -0.84178  -0.80490  -0.79865
 Alpha  occ. eigenvalues --   -0.71089  -0.70481  -0.66280  -0.65119  -0.62152
 Alpha  occ. eigenvalues --   -0.61007  -0.58054  -0.57316  -0.53625  -0.52902
 Alpha  occ. eigenvalues --   -0.52055  -0.50149  -0.49137  -0.47382  -0.46925
 Alpha  occ. eigenvalues --   -0.46030  -0.45294  -0.44668  -0.43518  -0.42634
 Alpha  occ. eigenvalues --   -0.41196  -0.36633  -0.34373  -0.32189  -0.30158
 Alpha  occ. eigenvalues --   -0.26833
 Alpha virt. eigenvalues --    0.00940   0.04847   0.05575   0.05883   0.06103
 Alpha virt. eigenvalues --    0.06665   0.07506   0.08184   0.08433   0.09126
 Alpha virt. eigenvalues --    0.09396   0.09681   0.09947   0.10437   0.10757

 Mulliken charges:
               1
     1  C   -0.284716
     2  C    0.098328
     3  C    0.577882
     4  C   -0.135155
     5  H    0.145081
     6  S   -0.495231
     7  H    0.190200
     8  C    0.196028
     9  S   -0.448817
    10  C    0.352053
    11  C    0.222424
    12  C   -0.040749
    13  H    0.164357
    14  S   -0.473327
    15  C   -0.138172
    16  C   -0.307475
    17  H    0.191265
    18  H    0.159891
    19  O   -0.247954
    20  H    0.274088
 Sum of Mulliken charges =  -0.00000

 Dipole moment (field-independent basis, Debye):
    X=             -2.4392    Y=              0.9285    Z=             -0.1618  Tot=              2.6149
 Quadrupole moment (field-independent basis, Debye-Ang):
   XX=            -76.2785   YY=            -93.8744   ZZ=           -107.8360
   XY=             -1.5568   XZ=              1.9864   YZ=              0.1712

 Normal termination of Gaussian 16 at Tue Oct 26 00:25:56 2021.
