 Gaussian 16, Revision C.01,
 Gaussian 16:  ES64L-G16RevC.01  3-Jul-2019

 --------------------------------------
 # opt=modredundant wb97xd/6-311+g(d,p)
 --------------------------------------

 --------------
 pBTTT_-120.pdb
 --------------
 Symbolic Z-matrix:
 Charge =  0 Multiplicity = 1

 SCF Done:  E(RwB97XD) =  -1654.29908993     A.U. after   18 cycles
 SCF Done:  E(RwB97XD) =  -1654.35760682     A.U. after   15 cycles
 SCF Done:  E(RwB97XD) =  -1654.39779832     A.U. after   16 cycles
 SCF Done:  E(RwB97XD) =  -1654.40754089     A.U. after   15 cycles
 SCF Done:  E(RwB97XD) =  -1654.40997226     A.U. after   15 cycles
 SCF Done:  E(RwB97XD) =  -1654.41058579     A.U. after   14 cycles
 SCF Done:  E(RwB97XD) =  -1654.41074042     A.U. after   14 cycles
 SCF Done:  E(RwB97XD) =  -1654.41093041     A.U. after   14 cycles
 SCF Done:  E(RwB97XD) =  -1654.41095804     A.U. after   13 cycles
 SCF Done:  E(RwB97XD) =  -1654.41098126     A.U. after   13 cycles
 SCF Done:  E(RwB97XD) =  -1654.41098342     A.U. after   11 cycles
 SCF Done:  E(RwB97XD) =  -1654.41098423     A.U. after   11 cycles
 Optimization completed.
    -- Stationary point found.

                         Standard orientation:
 ---------------------------------------------------------------------
 Center     Atomic      Atomic             Coordinates (Angstroms)
 Number     Number       Type             X           Y           Z
 ---------------------------------------------------------------------
      1          6           0        3.913927    0.797865    0.262229
      2          6           0        2.515238    1.034488    0.406790
      3          6           0        1.735812    0.031430   -0.105300
      4          6           0        4.173184   -0.389206   -0.349105
      5          1           0        4.682101    1.481288    0.602822
      6         16           0        2.736939   -1.225083   -0.772790
      7          1           0        5.137624   -0.814148   -0.582013
      8          6           0        0.281368   -0.057601   -0.085326
      9         16           0       -0.514810   -1.404422    0.712282
     10          6           0       -2.070806   -0.734868    0.362261
     11          6           0       -1.950165    0.468001   -0.306246
     12          6           0       -0.607756    0.857739   -0.565284
     13          1           0       -0.300788    1.759951   -1.074647
     14         16           0       -3.508142    1.138959   -0.653857
     15          6           0       -4.289604   -0.213635    0.105850
     16          6           0       -3.418211   -1.132905    0.599142
     17          1           0       -5.368194   -0.246365    0.143840
     18          1           0       -3.722501   -2.038478    1.104674
     19          8           0        1.973222    2.135733    0.985554
     20          1           0        2.664234    2.652774    1.400659
 ---------------------------------------------------------------------

 The electronic state is 1-A.
 Alpha  occ. eigenvalues --  -89.05200 -89.04668 -89.04515 -19.29095 -10.36094
 Alpha  occ. eigenvalues --  -10.33197 -10.32723 -10.32314 -10.31964 -10.31949
 Alpha  occ. eigenvalues --  -10.31896 -10.30360 -10.30142 -10.29923  -8.09264
 Alpha  occ. eigenvalues --   -8.08714  -8.08560  -6.04099  -6.03718  -6.03562
 Alpha  occ. eigenvalues --   -6.03414  -6.03356  -6.03190  -6.03044  -6.02777
 Alpha  occ. eigenvalues --   -6.02607  -1.18230  -1.01749  -0.99699  -0.94966
 Alpha  occ. eigenvalues --   -0.86910  -0.85958  -0.83962  -0.80600  -0.79833
 Alpha  occ. eigenvalues --   -0.70946  -0.70115  -0.66155  -0.64860  -0.62879
 Alpha  occ. eigenvalues --   -0.60698  -0.58033  -0.57061  -0.53630  -0.52598
 Alpha  occ. eigenvalues --   -0.51857  -0.50027  -0.49343  -0.47545  -0.46954
 Alpha  occ. eigenvalues --   -0.45838  -0.44822  -0.44383  -0.43991  -0.42139
 Alpha  occ. eigenvalues --   -0.41643  -0.36491  -0.33639  -0.31666  -0.30262
 Alpha  occ. eigenvalues --   -0.28017
 Alpha virt. eigenvalues --    0.01882   0.04388   0.05017   0.06091   0.06213
 Alpha virt. eigenvalues --    0.06804   0.07431   0.07593   0.08166   0.09130
 Alpha virt. eigenvalues --    0.09328   0.09434   0.09857   0.10245   0.10742

 Mulliken charges:
               1
     1  C   -0.228503
     2  C   -0.219722
     3  C    0.386822
     4  C   -0.190003
     5  H    0.146544
     6  S   -0.284685
     7  H    0.190154
     8  C    0.176675
     9  S   -0.585598
    10  C    0.195584
    11  C   -0.256103
    12  C    0.579552
    13  H    0.164072
    14  S   -0.439165
    15  C   -0.199589
    16  C    0.183326
    17  H    0.191965
    18  H    0.161005
    19  O   -0.237410
    20  H    0.265077
 Sum of Mulliken charges =  -0.00000

 Dipole moment (field-independent basis, Debye):
    X=              2.0000    Y=              0.9273    Z=              0.6868  Tot=              2.3091
 Quadrupole moment (field-independent basis, Debye-Ang):
   XX=            -78.0408   YY=            -96.3260   ZZ=           -104.0842
   XY=              8.3834   XZ=              1.2216   YZ=              0.6456

 Normal termination of Gaussian 16 at Mon Oct 25 23:55:28 2021.
