 Gaussian 16, Revision C.01,
 Gaussian 16:  ES64L-G16RevC.01  3-Jul-2019

 --------------------------------------
 # opt=modredundant wb97xd/6-311+g(d,p)
 --------------------------------------

 --------------
 pBTTT_-135.pdb
 --------------
 Symbolic Z-matrix:
 Charge =  0 Multiplicity = 1

 SCF Done:  E(RwB97XD) =  -1654.30034709     A.U. after   18 cycles
 SCF Done:  E(RwB97XD) =  -1654.35875143     A.U. after   16 cycles
 SCF Done:  E(RwB97XD) =  -1654.39872595     A.U. after   16 cycles
 SCF Done:  E(RwB97XD) =  -1654.40834157     A.U. after   15 cycles
 SCF Done:  E(RwB97XD) =  -1654.41076917     A.U. after   15 cycles
 SCF Done:  E(RwB97XD) =  -1654.41134707     A.U. after   14 cycles
 SCF Done:  E(RwB97XD) =  -1654.41147901     A.U. after   14 cycles
 SCF Done:  E(RwB97XD) =  -1654.41167616     A.U. after   14 cycles
 SCF Done:  E(RwB97XD) =  -1654.41169410     A.U. after   13 cycles
 SCF Done:  E(RwB97XD) =  -1654.41171604     A.U. after   12 cycles
 SCF Done:  E(RwB97XD) =  -1654.41171905     A.U. after   11 cycles
 SCF Done:  E(RwB97XD) =  -1654.41171932     A.U. after   10 cycles
 Optimization completed.
    -- Stationary point found.

                         Standard orientation:
 ---------------------------------------------------------------------
 Center     Atomic      Atomic             Coordinates (Angstroms)
 Number     Number       Type             X           Y           Z
 ---------------------------------------------------------------------
      1          6           0        3.909805    0.840736    0.206846
      2          6           0        2.510562    1.091511    0.308452
      3          6           0        1.734382    0.031725   -0.083160
      4          6           0        4.175335   -0.410482   -0.255182
      5          1           0        4.674319    1.561580    0.469565
      6         16           0        2.742605   -1.291376   -0.592392
      7          1           0        5.141283   -0.860247   -0.426546
      8          6           0        0.282917   -0.054572   -0.069741
      9         16           0       -0.518072   -1.493619    0.541423
     10          6           0       -2.072503   -0.782415    0.272958
     11          6           0       -1.947267    0.497863   -0.229664
     12          6           0       -0.604234    0.917991   -0.429545
     13          1           0       -0.295231    1.879085   -0.813968
     14         16           0       -3.503250    1.210499   -0.492596
     15          6           0       -4.289467   -0.229594    0.078322
     16          6           0       -3.420511   -1.206797    0.450137
     17          1           0       -5.368213   -0.265916    0.106374
     18          1           0       -3.727457   -2.170856    0.830419
     19          8           0        1.964172    2.257657    0.739439
     20          1           0        2.647283    2.811229    1.119151
 ---------------------------------------------------------------------

 The electronic state is 1-A.
 Alpha  occ. eigenvalues --  -89.05284 -89.04639 -89.04550 -19.29257 -10.36124
 Alpha  occ. eigenvalues --  -10.33291 -10.32753 -10.32491 -10.31941 -10.31902
 Alpha  occ. eigenvalues --  -10.31878 -10.30429 -10.30126 -10.29793  -8.09351
 Alpha  occ. eigenvalues --   -8.08684  -8.08598  -6.04189  -6.03806  -6.03532
 Alpha  occ. eigenvalues --   -6.03455  -6.03439  -6.03160  -6.03085  -6.02748
 Alpha  occ. eigenvalues --   -6.02639  -1.18349  -1.01761  -0.99779  -0.94975
 Alpha  occ. eigenvalues --   -0.86960  -0.86005  -0.84056  -0.80587  -0.79822
 Alpha  occ. eigenvalues --   -0.71023  -0.70228  -0.66123  -0.64989  -0.62824
 Alpha  occ. eigenvalues --   -0.60706  -0.58024  -0.57109  -0.53671  -0.52706
 Alpha  occ. eigenvalues --   -0.51890  -0.50126  -0.49189  -0.47673  -0.46952
 Alpha  occ. eigenvalues --   -0.45842  -0.44847  -0.44531  -0.43897  -0.42362
 Alpha  occ. eigenvalues --   -0.41585  -0.36566  -0.34008  -0.31979  -0.30319
 Alpha  occ. eigenvalues --   -0.27414
 Alpha virt. eigenvalues --    0.01421   0.04632   0.05165   0.06085   0.06250
 Alpha virt. eigenvalues --    0.06904   0.07503   0.07567   0.08247   0.09021
 Alpha virt. eigenvalues --    0.09436   0.09610   0.09790   0.10315   0.10759

 Mulliken charges:
               1
     1  C   -0.234063
     2  C   -0.239917
     3  C    0.548029
     4  C   -0.184919
     5  H    0.146614
     6  S   -0.361404
     7  H    0.190017
     8  C    0.561482
     9  S   -0.526947
    10  C    0.423028
    11  C    0.128389
    12  C   -0.027378
    13  H    0.169380
    14  S   -0.450531
    15  C   -0.132899
    16  C   -0.375424
    17  H    0.191848
    18  H    0.160960
    19  O   -0.253917
    20  H    0.267653
 Sum of Mulliken charges =  -0.00000

 Dipole moment (field-independent basis, Debye):
    X=              2.0530    Y=              0.9938    Z=              0.6277  Tot=              2.3657
 Quadrupole moment (field-independent basis, Debye-Ang):
   XX=            -78.0870   YY=            -94.7726   ZZ=           -105.6396
   XY=              8.8841   XZ=              1.2319   YZ=              0.8914

 Normal termination of Gaussian 16 at Mon Oct 25 23:37:37 2021.
