 Gaussian 16, Revision C.01,
 Gaussian 16:  ES64L-G16RevC.01  3-Jul-2019

 --------------------------------------
 # opt=modredundant wb97xd/6-311+g(d,p)
 --------------------------------------

 -------------
 pBTTT_-25.pdb
 -------------
 Symbolic Z-matrix:
 Charge =  0 Multiplicity = 1

 SCF Done:  E(RwB97XD) =  -1654.30233086     A.U. after   18 cycles
 SCF Done:  E(RwB97XD) =  -1654.36048113     A.U. after   16 cycles
 SCF Done:  E(RwB97XD) =  -1654.39934660     A.U. after   17 cycles
 SCF Done:  E(RwB97XD) =  -1654.40885238     A.U. after   17 cycles
 SCF Done:  E(RwB97XD) =  -1654.41105486     A.U. after   15 cycles
 SCF Done:  E(RwB97XD) =  -1654.41152146     A.U. after   14 cycles
 SCF Done:  E(RwB97XD) =  -1654.41162634     A.U. after   14 cycles
 SCF Done:  E(RwB97XD) =  -1654.41178892     A.U. after   14 cycles
 SCF Done:  E(RwB97XD) =  -1654.41180786     A.U. after   13 cycles
 SCF Done:  E(RwB97XD) =  -1654.41181894     A.U. after   12 cycles
 SCF Done:  E(RwB97XD) =  -1654.41182153     A.U. after   11 cycles
 SCF Done:  E(RwB97XD) =  -1654.41182190     A.U. after   10 cycles
 Optimization completed.
    -- Stationary point found.

                         Standard orientation:
 ---------------------------------------------------------------------
 Center     Atomic      Atomic             Coordinates (Angstroms)
 Number     Number       Type             X           Y           Z
 ---------------------------------------------------------------------
      1          6           0       -4.013538    0.361793    0.157071
      2          6           0       -2.674675    0.844578    0.218640
      3          6           0       -1.727548   -0.124560    0.008648
      4          6           0       -4.067006   -0.970876   -0.105151
      5          1           0       -4.887654    0.983775    0.305657
      6         16           0       -2.503418   -1.653285   -0.291340
      7          1           0       -4.944374   -1.591258   -0.204832
      8          6           0       -0.278853   -0.016648    0.022497
      9         16           0        0.522191    1.510194   -0.309199
     10          6           0        2.075668    0.760927   -0.174737
     11          6           0        1.956114   -0.584448    0.110785
     12          6           0        0.614813   -1.032650    0.229647
     13          1           0        0.318698   -2.046144    0.464021
     14         16           0        3.514257   -1.323066    0.271836
     15          6           0        4.295692    0.196326   -0.047516
     16          6           0        3.422884    1.215806   -0.263231
     17          1           0        5.374363    0.242022   -0.059839
     18          1           0        3.726629    2.230891   -0.477107
     19          8           0       -2.327919    2.133128    0.467132
     20          1           0       -3.114110    2.672718    0.554375
 ---------------------------------------------------------------------

 The electronic state is 1-A.
 Alpha  occ. eigenvalues --  -89.05367 -89.04533 -89.04354 -19.29467 -10.36225
 Alpha  occ. eigenvalues --  -10.33539 -10.32857 -10.32699 -10.31813 -10.31779
 Alpha  occ. eigenvalues --  -10.31631 -10.30545 -10.29998 -10.29834  -8.09438
 Alpha  occ. eigenvalues --   -8.08578  -8.08374  -6.04282  -6.03897  -6.03516
 Alpha  occ. eigenvalues --   -6.03428  -6.03237  -6.03056  -6.02855  -6.02639
 Alpha  occ. eigenvalues --   -6.02411  -1.18596  -1.01688  -0.99868  -0.94915
 Alpha  occ. eigenvalues --   -0.86984  -0.86009  -0.84179  -0.80490  -0.79865
 Alpha  occ. eigenvalues --   -0.71089  -0.70481  -0.66280  -0.65118  -0.62152
 Alpha  occ. eigenvalues --   -0.61007  -0.58054  -0.57316  -0.53624  -0.52902
 Alpha  occ. eigenvalues --   -0.52055  -0.50149  -0.49137  -0.47383  -0.46925
 Alpha  occ. eigenvalues --   -0.46031  -0.45294  -0.44668  -0.43518  -0.42635
 Alpha  occ. eigenvalues --   -0.41195  -0.36633  -0.34373  -0.32190  -0.30158
 Alpha  occ. eigenvalues --   -0.26833
 Alpha virt. eigenvalues --    0.00939   0.04847   0.05575   0.05882   0.06103
 Alpha virt. eigenvalues --    0.06665   0.07506   0.08184   0.08433   0.09126
 Alpha virt. eigenvalues --    0.09396   0.09681   0.09948   0.10437   0.10757

 Mulliken charges:
               1
     1  C   -0.284869
     2  C    0.098298
     3  C    0.578037
     4  C   -0.135197
     5  H    0.145086
     6  S   -0.495252
     7  H    0.190210
     8  C    0.195579
     9  S   -0.448940
    10  C    0.351854
    11  C    0.223054
    12  C   -0.039880
    13  H    0.164341
    14  S   -0.473334
    15  C   -0.138244
    16  C   -0.308022
    17  H    0.191268
    18  H    0.159892
    19  O   -0.247975
    20  H    0.274096
 Sum of Mulliken charges =  -0.00000

 Dipole moment (field-independent basis, Debye):
    X=             -2.4393    Y=              0.9283    Z=              0.1605  Tot=              2.6149
 Quadrupole moment (field-independent basis, Debye-Ang):
   XX=            -76.2778   YY=            -93.8729   ZZ=           -107.8384
   XY=             -1.5563   XZ=             -1.9810   YZ=             -0.1756

 Normal termination of Gaussian 16 at Tue Oct 26 00:01:03 2021.
