 Gaussian 16, Revision C.01,
 Gaussian 16:  ES64L-G16RevC.01  3-Jul-2019

 --------------------------------------
 # opt=modredundant wb97xd/6-311+g(d,p)
 --------------------------------------

 -------------
 pBTTT_-60.pdb
 -------------
 Symbolic Z-matrix:
 Charge =  0 Multiplicity = 1

 SCF Done:  E(RwB97XD) =  -1654.29982727     A.U. after   18 cycles
 SCF Done:  E(RwB97XD) =  -1654.35838741     A.U. after   15 cycles
 SCF Done:  E(RwB97XD) =  -1654.39817808     A.U. after   16 cycles
 SCF Done:  E(RwB97XD) =  -1654.40783906     A.U. after   16 cycles
 SCF Done:  E(RwB97XD) =  -1654.41009518     A.U. after   16 cycles
 SCF Done:  E(RwB97XD) =  -1654.41059721     A.U. after   14 cycles
 SCF Done:  E(RwB97XD) =  -1654.41080657     A.U. after   14 cycles
 SCF Done:  E(RwB97XD) =  -1654.41096420     A.U. after   14 cycles
 SCF Done:  E(RwB97XD) =  -1654.41096800     A.U. after   13 cycles
 SCF Done:  E(RwB97XD) =  -1654.41098464     A.U. after   13 cycles
 SCF Done:  E(RwB97XD) =  -1654.41098915     A.U. after   11 cycles
 SCF Done:  E(RwB97XD) =  -1654.41098935     A.U. after   10 cycles
 SCF Done:  E(RwB97XD) =  -1654.41098940     A.U. after    9 cycles
 Optimization completed.
    -- Stationary point found.

                         Standard orientation:
 ---------------------------------------------------------------------
 Center     Atomic      Atomic             Coordinates (Angstroms)
 Number     Number       Type             X           Y           Z
 ---------------------------------------------------------------------
      1          6           0       -3.998565    0.339860    0.380199
      2          6           0       -2.649585    0.777910    0.522900
      3          6           0       -1.732773   -0.100188    0.009005
      4          6           0       -4.083736   -0.869292   -0.237786
      5          1           0       -4.857012    0.900112    0.730110
      6         16           0       -2.541327   -1.484188   -0.664798
      7          1           0       -4.976745   -1.430221   -0.467855
      8          6           0       -0.277384   -0.007873    0.011539
      9         16           0        0.527434    1.340661   -0.768114
     10          6           0        2.078928    0.672486   -0.398986
     11          6           0        1.952731   -0.529132    0.270977
     12          6           0        0.607445   -0.922571    0.506099
     13          1           0        0.297608   -1.820919    1.022090
     14         16           0        3.507244   -1.191452    0.650196
     15          6           0        4.295673    0.163393   -0.098709
     16          6           0        3.429058    1.077013   -0.610112
     17          1           0        5.374620    0.201176   -0.117033
     18          1           0        3.738298    1.983066   -1.111794
     19          8           0       -2.269802    1.938024    1.114469
     20          1           0       -3.042713    2.412605    1.421434
 ---------------------------------------------------------------------

 The electronic state is 1-A.
 Alpha  occ. eigenvalues --  -89.05234 -89.04661 -89.04388 -19.29078 -10.36076
 Alpha  occ. eigenvalues --  -10.33305 -10.32698 -10.32303 -10.31942 -10.31925
 Alpha  occ. eigenvalues --  -10.31862 -10.30363 -10.30112 -10.30041  -8.09293
 Alpha  occ. eigenvalues --   -8.08706  -8.08426  -6.04129  -6.03747  -6.03555
 Alpha  occ. eigenvalues --   -6.03385  -6.03282  -6.03183  -6.02907  -6.02768
 Alpha  occ. eigenvalues --   -6.02471  -1.18241  -1.01739  -0.99709  -0.94963
 Alpha  occ. eigenvalues --   -0.86891  -0.85951  -0.83966  -0.80584  -0.79876
 Alpha  occ. eigenvalues --   -0.70943  -0.70154  -0.66229  -0.64908  -0.62562
 Alpha  occ. eigenvalues --   -0.60854  -0.58069  -0.57071  -0.53546  -0.52591
 Alpha  occ. eigenvalues --   -0.51977  -0.50031  -0.49422  -0.47366  -0.46952
 Alpha  occ. eigenvalues --   -0.45767  -0.45076  -0.44464  -0.43890  -0.42098
 Alpha  occ. eigenvalues --   -0.41562  -0.36463  -0.33665  -0.31569  -0.30231
 Alpha  occ. eigenvalues --   -0.28024
 Alpha virt. eigenvalues --    0.01834   0.04680   0.05037   0.05989   0.06073
 Alpha virt. eigenvalues --    0.06611   0.07439   0.07531   0.08191   0.09226
 Alpha virt. eigenvalues --    0.09285   0.09657   0.09782   0.10169   0.10773

 Mulliken charges:
               1
     1  C   -0.102108
     2  C   -0.447009
     3  C    0.359639
     4  C   -0.261842
     5  H    0.145648
     6  S   -0.197927
     7  H    0.190475
     8  C    0.482796
     9  S   -0.478840
    10  C    0.319144
    11  C   -0.599052
    12  C    0.552079
    13  H    0.168023
    14  S   -0.438174
    15  C   -0.207175
    16  C    0.143436
    17  H    0.191920
    18  H    0.161310
    19  O   -0.248480
    20  H    0.266137
 Sum of Mulliken charges =  -0.00000

 Dipole moment (field-independent basis, Debye):
    X=             -2.1584    Y=              0.7013    Z=              0.4990  Tot=              2.3237
 Quadrupole moment (field-independent basis, Debye-Ang):
   XX=            -76.6001   YY=            -96.8047   ZZ=           -104.6076
   XY=             -1.1146   XZ=             -5.1021   YZ=              0.0516

 Normal termination of Gaussian 16 at Mon Oct 25 23:54:37 2021.
