 Gaussian 16, Revision C.01,
 Gaussian 16:  ES64L-G16RevC.01  3-Jul-2019

 --------------------------------------
 # opt=modredundant wb97xd/6-311+g(d,p)
 --------------------------------------

 -------------
 pBTTT_105.pdb
 -------------
 Symbolic Z-matrix:
 Charge =  0 Multiplicity = 1

 SCF Done:  E(RwB97XD) =  -1654.29809704     A.U. after   18 cycles
 SCF Done:  E(RwB97XD) =  -1654.35689303     A.U. after   15 cycles
 SCF Done:  E(RwB97XD) =  -1654.39714886     A.U. after   16 cycles
 SCF Done:  E(RwB97XD) =  -1654.40699528     A.U. after   16 cycles
 SCF Done:  E(RwB97XD) =  -1654.40939943     A.U. after   15 cycles
 SCF Done:  E(RwB97XD) =  -1654.40999510     A.U. after   14 cycles
 SCF Done:  E(RwB97XD) =  -1654.41016596     A.U. after   15 cycles
 SCF Done:  E(RwB97XD) =  -1654.41032531     A.U. after   14 cycles
 SCF Done:  E(RwB97XD) =  -1654.41033319     A.U. after   13 cycles
 SCF Done:  E(RwB97XD) =  -1654.41035523     A.U. after   13 cycles
 SCF Done:  E(RwB97XD) =  -1654.41035938     A.U. after   11 cycles
 SCF Done:  E(RwB97XD) =  -1654.41035966     A.U. after   11 cycles
 SCF Done:  E(RwB97XD) =  -1654.41035981     A.U. after   11 cycles
 Optimization completed.
    -- Stationary point found.

                         Standard orientation:
 ---------------------------------------------------------------------
 Center     Atomic      Atomic             Coordinates (Angstroms)
 Number     Number       Type             X           Y           Z
 ---------------------------------------------------------------------
      1          6           0       -3.929380    0.730518    0.292018
      2          6           0       -2.536358    0.949829    0.506037
      3          6           0       -1.737494    0.022903   -0.107050
      4          6           0       -4.163071   -0.368245   -0.475269
      5          1           0       -4.711415    1.362654    0.694505
      6         16           0       -2.710920   -1.142270   -0.955989
      7          1           0       -5.118270   -0.760879   -0.789272
      8          6           0       -0.279381   -0.054292   -0.072450
      9         16           0        0.519066   -1.270153    0.909918
     10          6           0        2.073499   -0.661490    0.460030
     11          6           0        1.951681    0.425316   -0.384507
     12          6           0        0.608047    0.773803   -0.691804
     13          1           0        0.298685    1.589221   -1.330283
     14         16           0        3.508571    1.035535   -0.834131
     15          6           0        4.291731   -0.184699    0.122215
     16          6           0        3.422114   -1.017573    0.752501
     17          1           0        5.370454   -0.211997    0.161458
     18          1           0        3.728013   -1.835008    1.390027
     19          8           0       -2.015051    1.966003    1.237104
     20          1           0       -2.722847    2.461768    1.649638
 ---------------------------------------------------------------------

 The electronic state is 1-A.
 Alpha  occ. eigenvalues --  -89.05126 -89.04695 -89.04466 -19.29009 -10.36064
 Alpha  occ. eigenvalues --  -10.33134 -10.32692 -10.32157 -10.31994 -10.31984
 Alpha  occ. eigenvalues --  -10.31904 -10.30303 -10.30156 -10.30035  -8.09187
 Alpha  occ. eigenvalues --   -8.08741  -8.08509  -6.04021  -6.03640  -6.03589
 Alpha  occ. eigenvalues --   -6.03360  -6.03283  -6.03217  -6.02990  -6.02804
 Alpha  occ. eigenvalues --   -6.02560  -1.18173  -1.01743  -0.99636  -0.94962
 Alpha  occ. eigenvalues --   -0.86869  -0.85919  -0.83886  -0.80613  -0.79849
 Alpha  occ. eigenvalues --   -0.70885  -0.70050  -0.66185  -0.64772  -0.62899
 Alpha  occ. eigenvalues --   -0.60714  -0.58074  -0.56990  -0.53583  -0.52532
 Alpha  occ. eigenvalues --   -0.51835  -0.49924  -0.49515  -0.47435  -0.46989
 Alpha  occ. eigenvalues --   -0.45809  -0.44873  -0.44286  -0.44026  -0.41953
 Alpha  occ. eigenvalues --   -0.41672  -0.36454  -0.33331  -0.31127  -0.30191
 Alpha  occ. eigenvalues --   -0.28788
 Alpha virt. eigenvalues --    0.02408   0.03967   0.04993   0.06050   0.06220
 Alpha virt. eigenvalues --    0.06711   0.07394   0.07550   0.08086   0.09079
 Alpha virt. eigenvalues --    0.09290   0.09423   0.09863   0.10284   0.10792

 Mulliken charges:
               1
     1  C   -0.191396
     2  C   -0.250561
     3  C    0.270766
     4  C   -0.188092
     5  H    0.146383
     6  S   -0.193642
     7  H    0.189869
     8  C    0.151456
     9  S   -0.542699
    10  C    0.233888
    11  C   -0.406203
    12  C    0.643493
    13  H    0.160452
    14  S   -0.431550
    15  C   -0.207556
    16  C    0.224597
    17  H    0.192103
    18  H    0.161347
    19  O   -0.231686
    20  H    0.269033
 Sum of Mulliken charges =  -0.00000

 Dipole moment (field-independent basis, Debye):
    X=             -1.9706    Y=              0.8843    Z=              0.6461  Tot=              2.2545
 Quadrupole moment (field-independent basis, Debye-Ang):
   XX=            -77.7605   YY=            -98.1232   ZZ=           -102.3989
   XY=             -7.9252   XZ=             -0.9722   YZ=              0.3702

 Normal termination of Gaussian 16 at Tue Oct 26 00:17:06 2021.
