 Gaussian 16, Revision C.01,
 Gaussian 16:  ES64L-G16RevC.01  3-Jul-2019

 --------------------------------------
 # opt=modredundant wb97xd/6-311+g(d,p)
 --------------------------------------

 -------------
 pBTTT_-10.pdb
 -------------
 Symbolic Z-matrix:
 Charge =  0 Multiplicity = 1

 SCF Done:  E(RwB97XD) =  -1654.30266434     A.U. after   19 cycles
 SCF Done:  E(RwB97XD) =  -1654.36072657     A.U. after   17 cycles
 SCF Done:  E(RwB97XD) =  -1654.39929457     A.U. after   17 cycles
 SCF Done:  E(RwB97XD) =  -1654.40880764     A.U. after   17 cycles
 SCF Done:  E(RwB97XD) =  -1654.41098697     A.U. after   14 cycles
 SCF Done:  E(RwB97XD) =  -1654.41156692     A.U. after   14 cycles
 SCF Done:  E(RwB97XD) =  -1654.41164819     A.U. after   14 cycles
 SCF Done:  E(RwB97XD) =  -1654.41182828     A.U. after   13 cycles
 SCF Done:  E(RwB97XD) =  -1654.41185297     A.U. after   13 cycles
 SCF Done:  E(RwB97XD) =  -1654.41186135     A.U. after   12 cycles
 SCF Done:  E(RwB97XD) =  -1654.41186325     A.U. after   11 cycles
 SCF Done:  E(RwB97XD) =  -1654.41186364     A.U. after   10 cycles
 SCF Done:  E(RwB97XD) =  -1654.41186368     A.U. after    9 cycles
 Optimization completed.
    -- Stationary point found.

                         Standard orientation:
 ---------------------------------------------------------------------
 Center     Atomic      Atomic             Coordinates (Angstroms)
 Number     Number       Type             X           Y           Z
 ---------------------------------------------------------------------
      1          6           0       -4.014359    0.377000    0.059300
      2          6           0       -2.673300    0.856959    0.090856
      3          6           0       -1.726985   -0.132438    0.009610
      4          6           0       -4.071566   -0.975864   -0.050128
      5          1           0       -4.886445    1.016356    0.118806
      6         16           0       -2.508535   -1.683367   -0.119008
      7          1           0       -4.950127   -1.600864   -0.094669
      8          6           0       -0.279088   -0.024210    0.015972
      9         16           0        0.520850    1.534533   -0.121792
     10          6           0        2.075098    0.775941   -0.073211
     11          6           0        1.957933   -0.594068    0.045505
     12          6           0        0.617802   -1.055849    0.100121
     13          1           0        0.326928   -2.092817    0.200206
     14         16           0        3.517400   -1.345030    0.109462
     15          6           0        4.296412    0.203318   -0.025234
     16          6           0        3.421491    1.239946   -0.112593
     17          1           0        5.374986    0.251892   -0.033242
     18          1           0        3.723470    2.273993   -0.201996
     19          8           0       -2.322841    2.163792    0.199310
     20          1           0       -3.102172    2.718521    0.156638
 ---------------------------------------------------------------------

 The electronic state is 1-A.
 Alpha  occ. eigenvalues --  -89.05397 -89.04480 -89.04338 -19.29611 -10.36287
 Alpha  occ. eigenvalues --  -10.33594 -10.32932 -10.32820 -10.31773 -10.31718
 Alpha  occ. eigenvalues --  -10.31521 -10.30603 -10.29951 -10.29776  -8.09473
 Alpha  occ. eigenvalues --   -8.08525  -8.08349  -6.04319  -6.03934  -6.03546
 Alpha  occ. eigenvalues --   -6.03375  -6.03214  -6.03003  -6.02829  -6.02585
 Alpha  occ. eigenvalues --   -6.02385  -1.18732  -1.01654  -0.99905  -0.94883
 Alpha  occ. eigenvalues --   -0.87001  -0.86015  -0.84237  -0.80453  -0.79858
 Alpha  occ. eigenvalues --   -0.71126  -0.70583  -0.66299  -0.65174  -0.62036
 Alpha  occ. eigenvalues --   -0.61056  -0.58096  -0.57357  -0.53652  -0.53021
 Alpha  occ. eigenvalues --   -0.52058  -0.50146  -0.49106  -0.47380  -0.46919
 Alpha  occ. eigenvalues --   -0.46156  -0.45334  -0.44670  -0.43353  -0.42819
 Alpha  occ. eigenvalues --   -0.41008  -0.36703  -0.34494  -0.32298  -0.30152
 Alpha  occ. eigenvalues --   -0.26608
 Alpha virt. eigenvalues --    0.00773   0.04774   0.05687   0.05855   0.06116
 Alpha virt. eigenvalues --    0.06652   0.07509   0.08363   0.08564   0.09015
 Alpha virt. eigenvalues --    0.09414   0.09677   0.09926   0.10632   0.10878

 Mulliken charges:
               1
     1  C   -0.396681
     2  C    0.439051
     3  C    0.561595
     4  C   -0.178772
     5  H    0.145217
     6  S   -0.570723
     7  H    0.190682
     8  C    0.014285
     9  S   -0.451284
    10  C    0.144892
    11  C    0.391653
    12  C    0.059555
    13  H    0.161718
    14  S   -0.482309
    15  C   -0.157184
    16  C   -0.254916
    17  H    0.191177
    18  H    0.158958
    19  O   -0.245669
    20  H    0.278756
 Sum of Mulliken charges =  -0.00000

 Dipole moment (field-independent basis, Debye):
    X=             -2.5402    Y=              0.9928    Z=             -0.0615  Tot=              2.7280
 Quadrupole moment (field-independent basis, Debye-Ang):
   XX=            -76.2899   YY=            -93.2842   ZZ=           -108.4208
   XY=             -1.6968   XZ=             -0.3726   YZ=             -0.4952

 Normal termination of Gaussian 16 at Tue Oct 26 00:03:34 2021.
