 Gaussian 16, Revision C.01,
 Gaussian 16:  ES64L-G16RevC.01  3-Jul-2019

 --------------------------------------
 # opt=modredundant wb97xd/6-311+g(d,p)
 --------------------------------------

 --------------
 pBTTT_-165.pdb
 --------------
 Symbolic Z-matrix:
 Charge =  0 Multiplicity = 1

 SCF Done:  E(RwB97XD) =  -1654.30182797     A.U. after   18 cycles
 SCF Done:  E(RwB97XD) =  -1654.35995784     A.U. after   16 cycles
 SCF Done:  E(RwB97XD) =  -1654.39945011     A.U. after   17 cycles
 SCF Done:  E(RwB97XD) =  -1654.40892548     A.U. after   17 cycles
 SCF Done:  E(RwB97XD) =  -1654.41127682     A.U. after   15 cycles
 SCF Done:  E(RwB97XD) =  -1654.41185646     A.U. after   14 cycles
 SCF Done:  E(RwB97XD) =  -1654.41198646     A.U. after   14 cycles
 SCF Done:  E(RwB97XD) =  -1654.41219304     A.U. after   13 cycles
 SCF Done:  E(RwB97XD) =  -1654.41219868     A.U. after   13 cycles
 SCF Done:  E(RwB97XD) =  -1654.41222038     A.U. after   12 cycles
 SCF Done:  E(RwB97XD) =  -1654.41222303     A.U. after   11 cycles
 SCF Done:  E(RwB97XD) =  -1654.41222329     A.U. after   10 cycles
 Optimization completed.
    -- Stationary point found.

                         Standard orientation:
 ---------------------------------------------------------------------
 Center     Atomic      Atomic             Coordinates (Angstroms)
 Number     Number       Type             X           Y           Z
 ---------------------------------------------------------------------
      1          6           0        3.917474    0.876954    0.062721
      2          6           0        2.521172    1.151578    0.111118
      3          6           0        1.732931    0.034557   -0.015970
      4          6           0        4.175940   -0.446922   -0.105067
      5          1           0        4.685618    1.635672    0.149080
      6         16           0        2.736242   -1.373171   -0.220298
      7          1           0        5.137528   -0.931409   -0.175111
      8          6           0        0.283172   -0.039331   -0.007811
      9         16           0       -0.525278   -1.585636    0.208434
     10          6           0       -2.078502   -0.830105    0.098195
     11          6           0       -1.948625    0.532400   -0.078151
     12          6           0       -0.605581    0.992300   -0.141930
     13          1           0       -0.298654    2.017483   -0.280744
     14         16           0       -3.502930    1.288482   -0.182042
     15          6           0       -4.293564   -0.246121    0.014230
     16          6           0       -3.426493   -1.284473    0.152639
     17          1           0       -5.372438   -0.287757    0.016187
     18          1           0       -3.735409   -2.311706    0.285259
     19          8           0        1.987801    2.392055    0.264471
     20          1           0        2.684845    3.021467    0.452222
 ---------------------------------------------------------------------

 The electronic state is 1-A.
 Alpha  occ. eigenvalues --  -89.05396 -89.04587 -89.04554 -19.29673 -10.36233
 Alpha  occ. eigenvalues --  -10.33505 -10.32829 -10.32803 -10.31894 -10.31836
 Alpha  occ. eigenvalues --  -10.31828 -10.30550 -10.30099 -10.29542  -8.09470
 Alpha  occ. eigenvalues --   -8.08633  -8.08614  -6.04314  -6.03928  -6.03549
 Alpha  occ. eigenvalues --   -6.03480  -6.03476  -6.03109  -6.03105  -6.02696
 Alpha  occ. eigenvalues --   -6.02644  -1.18701  -1.01766  -0.99902  -0.94968
 Alpha  occ. eigenvalues --   -0.87019  -0.86074  -0.84205  -0.80545  -0.79833
 Alpha  occ. eigenvalues --   -0.71162  -0.70485  -0.66075  -0.65251  -0.62714
 Alpha  occ. eigenvalues --   -0.60760  -0.58168  -0.57068  -0.53726  -0.52949
 Alpha  occ. eigenvalues --   -0.51926  -0.50251  -0.49047  -0.47803  -0.47027
 Alpha  occ. eigenvalues --   -0.45815  -0.45261  -0.44676  -0.43557  -0.42777
 Alpha  occ. eigenvalues --   -0.41390  -0.36740  -0.34522  -0.32266  -0.30334
 Alpha  occ. eigenvalues --   -0.26717
 Alpha virt. eigenvalues --    0.00788   0.04606   0.05319   0.06101   0.06304
 Alpha virt. eigenvalues --    0.06961   0.07441   0.07653   0.08407   0.08788
 Alpha virt. eigenvalues --    0.09403   0.09613   0.09886   0.10696   0.10889

 Mulliken charges:
               1
     1  C   -0.324617
     2  C    0.262990
     3  C    0.508908
     4  C   -0.131320
     5  H    0.145020
     6  S   -0.526157
     7  H    0.189021
     8  C    0.161173
     9  S   -0.611174
    10  C    0.402173
    11  C    0.269551
    12  C    0.037964
    13  H    0.178739
    14  S   -0.454501
    15  C   -0.153487
    16  C   -0.320266
    17  H    0.191923
    18  H    0.160062
    19  O   -0.260767
    20  H    0.274762
 Sum of Mulliken charges =  -0.00000

 Dipole moment (field-independent basis, Debye):
    X=              2.2023    Y=              1.1313    Z=              0.2751  Tot=              2.4911
 Quadrupole moment (field-independent basis, Debye-Ang):
   XX=            -77.6726   YY=            -92.4685   ZZ=           -108.0113
   XY=              9.8134   XZ=              0.6679   YZ=              0.7364

 Normal termination of Gaussian 16 at Mon Oct 25 23:33:19 2021.
