 Gaussian 16, Revision C.01,
 Gaussian 16:  ES64L-G16RevC.01  3-Jul-2019

 --------------------------------------
 # opt=modredundant wb97xd/6-311+g(d,p)
 --------------------------------------

 -------------
 pBTTT_180.pdb
 -------------
 Symbolic Z-matrix:
 Charge =  0 Multiplicity = 1

 SCF Done:  E(RwB97XD) =  -1654.30174825     A.U. after   19 cycles
 SCF Done:  E(RwB97XD) =  -1654.35992388     A.U. after   16 cycles
 SCF Done:  E(RwB97XD) =  -1654.39931705     A.U. after   17 cycles
 SCF Done:  E(RwB97XD) =  -1654.40881947     A.U. after   16 cycles
 SCF Done:  E(RwB97XD) =  -1654.41117566     A.U. after   16 cycles
 SCF Done:  E(RwB97XD) =  -1654.41178706     A.U. after   14 cycles
 SCF Done:  E(RwB97XD) =  -1654.41188726     A.U. after   14 cycles
 SCF Done:  E(RwB97XD) =  -1654.41208592     A.U. after   13 cycles
 SCF Done:  E(RwB97XD) =  -1654.41209408     A.U. after   12 cycles
 SCF Done:  E(RwB97XD) =  -1654.41210651     A.U. after   12 cycles
 SCF Done:  E(RwB97XD) =  -1654.41210902     A.U. after   11 cycles
 SCF Done:  E(RwB97XD) =  -1654.41210944     A.U. after   10 cycles
 Optimization completed.
    -- Stationary point found.

                         Standard orientation:
 ---------------------------------------------------------------------
 Center     Atomic      Atomic             Coordinates (Angstroms)
 Number     Number       Type             X           Y           Z
 ---------------------------------------------------------------------
      1          6           0        3.918230    0.883128   -0.000067
      2          6           0        2.521839    1.160704   -0.000039
      3          6           0        1.732797    0.036412    0.000003
      4          6           0        4.177821   -0.450905    0.000154
      5          1           0        4.685831    1.647341   -0.000119
      6         16           0        2.738680   -1.384807    0.000206
      7          1           0        5.139511   -0.940145    0.000235
      8          6           0        0.282944   -0.037735   -0.000112
      9         16           0       -0.525731   -1.599494   -0.000302
     10          6           0       -2.079619   -0.837038   -0.000112
     11          6           0       -1.950110    0.536542   -0.000128
     12          6           0       -0.607571    1.002218   -0.000157
     13          1           0       -0.301934    2.036795   -0.000206
     14         16           0       -3.505030    1.298900    0.000129
     15          6           0       -4.294835   -0.248564    0.000094
     16          6           0       -3.427124   -1.295667    0.000234
     17          1           0       -5.373691   -0.290695    0.000236
     18          1           0       -3.735448   -2.331595    0.000358
     19          8           0        1.989882    2.411188   -0.000069
     20          1           0        2.693750    3.060636    0.000321
 ---------------------------------------------------------------------

 The electronic state is 1-A.
 Alpha  occ. eigenvalues --  -89.05418 -89.04572 -89.04544 -19.29779 -10.36277
 Alpha  occ. eigenvalues --  -10.33548 -10.32864 -10.32857 -10.31882 -10.31820
 Alpha  occ. eigenvalues --  -10.31810 -10.30581 -10.30089 -10.29481  -8.09495
 Alpha  occ. eigenvalues --   -8.08617  -8.08607  -6.04340  -6.03954  -6.03571
 Alpha  occ. eigenvalues --   -6.03470  -6.03465  -6.03099  -6.03093  -6.02681
 Alpha  occ. eigenvalues --   -6.02634  -1.18804  -1.01758  -0.99928  -0.94959
 Alpha  occ. eigenvalues --   -0.87026  -0.86079  -0.84238  -0.80530  -0.79839
 Alpha  occ. eigenvalues --   -0.71190  -0.70553  -0.66062  -0.65304  -0.62690
 Alpha  occ. eigenvalues --   -0.60778  -0.58213  -0.57050  -0.53728  -0.53017
 Alpha  occ. eigenvalues --   -0.51931  -0.50257  -0.49051  -0.47803  -0.47026
 Alpha  occ. eigenvalues --   -0.45804  -0.45440  -0.44675  -0.43455  -0.42882
 Alpha  occ. eigenvalues --   -0.41333  -0.36768  -0.34600  -0.32308  -0.30319
 Alpha  occ. eigenvalues --   -0.26609
 Alpha virt. eigenvalues --    0.00686   0.04558   0.05303   0.06127   0.06296
 Alpha virt. eigenvalues --    0.06959   0.07404   0.07657   0.08471   0.08747
 Alpha virt. eigenvalues --    0.09268   0.09606   0.09968   0.10791   0.10974

 Mulliken charges:
               1
     1  C   -0.450960
     2  C    0.606390
     3  C    0.519741
     4  C   -0.134501
     5  H    0.144479
     6  S   -0.584830
     7  H    0.189738
     8  C    0.020891
     9  S   -0.642316
    10  C    0.296958
    11  C    0.264891
    12  C    0.081712
    13  H    0.183053
    14  S   -0.453817
    15  C   -0.165577
    16  C   -0.246125
    17  H    0.192195
    18  H    0.159921
    19  O   -0.258156
    20  H    0.276314
 Sum of Mulliken charges =  -0.00000

 Dipole moment (field-independent basis, Debye):
    X=              2.2515    Y=              1.1742    Z=              0.0009  Tot=              2.5393
 Quadrupole moment (field-independent basis, Debye-Ang):
   XX=            -77.5403   YY=            -91.9873   ZZ=           -108.4786
   XY=             10.0283   XZ=              0.0007   YZ=              0.0015

 Normal termination of Gaussian 16 at Tue Oct 26 00:51:29 2021.
