 Gaussian 16, Revision C.01,
 Gaussian 16:  ES64L-G16RevC.01  3-Jul-2019

 --------------------------------------
 # opt=modredundant wb97xd/6-311+g(d,p)
 --------------------------------------

 --------------
 pBTTT_-105.pdb
 --------------
 Symbolic Z-matrix:
 Charge =  0 Multiplicity = 1

 SCF Done:  E(RwB97XD) =  -1654.29790921     A.U. after   18 cycles
 SCF Done:  E(RwB97XD) =  -1654.35664670     A.U. after   15 cycles
 SCF Done:  E(RwB97XD) =  -1654.39721214     A.U. after   16 cycles
 SCF Done:  E(RwB97XD) =  -1654.40695342     A.U. after   15 cycles
 SCF Done:  E(RwB97XD) =  -1654.40936015     A.U. after   15 cycles
 SCF Done:  E(RwB97XD) =  -1654.40993618     A.U. after   14 cycles
 SCF Done:  E(RwB97XD) =  -1654.41012831     A.U. after   14 cycles
 SCF Done:  E(RwB97XD) =  -1654.41030552     A.U. after   14 cycles
 SCF Done:  E(RwB97XD) =  -1654.41033062     A.U. after   13 cycles
 SCF Done:  E(RwB97XD) =  -1654.41035577     A.U. after   13 cycles
 SCF Done:  E(RwB97XD) =  -1654.41035844     A.U. after   12 cycles
 SCF Done:  E(RwB97XD) =  -1654.41035919     A.U. after   11 cycles
 SCF Done:  E(RwB97XD) =  -1654.41035922     A.U. after   11 cycles
 Optimization completed.
    -- Stationary point found.

                         Standard orientation:
 ---------------------------------------------------------------------
 Center     Atomic      Atomic             Coordinates (Angstroms)
 Number     Number       Type             X           Y           Z
 ---------------------------------------------------------------------
      1          6           0        3.929384    0.730504    0.292154
      2          6           0        2.536348    0.949757    0.506168
      3          6           0        1.737516    0.022815   -0.106953
      4          6           0        4.163102   -0.368004   -0.475489
      5          1           0        4.711407    1.362464    0.694941
      6         16           0        2.710963   -1.141964   -0.956393
      7          1           0        5.118305   -0.760605   -0.789522
      8          6           0        0.279381   -0.054419   -0.072452
      9         16           0       -0.519105   -1.269923    0.910269
     10          6           0       -2.073519   -0.661318    0.460248
     11          6           0       -1.951677    0.425006   -0.384928
     12          6           0       -0.608035    0.773191   -0.692528
     13          1           0       -0.298626    1.588227   -1.331474
     14         16           0       -3.508541    1.035332   -0.834497
     15          6           0       -4.291750   -0.184691    0.122080
     16          6           0       -3.422141   -1.016903    0.753283
     17          1           0       -5.370468   -0.211691    0.161639
     18          1           0       -3.728074   -1.833857    1.391414
     19          8           0        2.014993    1.965454    1.237856
     20          1           0        2.722790    2.461076    1.650609
 ---------------------------------------------------------------------

 The electronic state is 1-A.
 Alpha  occ. eigenvalues --  -89.05126 -89.04695 -89.04467 -19.29009 -10.36064
 Alpha  occ. eigenvalues --  -10.33134 -10.32692 -10.32157 -10.31994 -10.31984
 Alpha  occ. eigenvalues --  -10.31904 -10.30303 -10.30156 -10.30036  -8.09187
 Alpha  occ. eigenvalues --   -8.08741  -8.08509  -6.04021  -6.03640  -6.03590
 Alpha  occ. eigenvalues --   -6.03361  -6.03282  -6.03218  -6.02990  -6.02804
 Alpha  occ. eigenvalues --   -6.02561  -1.18172  -1.01743  -0.99635  -0.94962
 Alpha  occ. eigenvalues --   -0.86868  -0.85919  -0.83885  -0.80613  -0.79849
 Alpha  occ. eigenvalues --   -0.70884  -0.70050  -0.66185  -0.64772  -0.62899
 Alpha  occ. eigenvalues --   -0.60714  -0.58074  -0.56989  -0.53583  -0.52531
 Alpha  occ. eigenvalues --   -0.51835  -0.49924  -0.49515  -0.47436  -0.46989
 Alpha  occ. eigenvalues --   -0.45808  -0.44873  -0.44286  -0.44026  -0.41953
 Alpha  occ. eigenvalues --   -0.41672  -0.36454  -0.33330  -0.31125  -0.30191
 Alpha  occ. eigenvalues --   -0.28790
 Alpha virt. eigenvalues --    0.02410   0.03966   0.04993   0.06050   0.06220
 Alpha virt. eigenvalues --    0.06711   0.07394   0.07550   0.08085   0.09079
 Alpha virt. eigenvalues --    0.09290   0.09422   0.09863   0.10284   0.10791

 Mulliken charges:
               1
     1  C   -0.191305
     2  C   -0.250406
     3  C    0.270273
     4  C   -0.188104
     5  H    0.146385
     6  S   -0.193189
     7  H    0.189868
     8  C    0.150941
     9  S   -0.542748
    10  C    0.233729
    11  C   -0.407059
    12  C    0.644573
    13  H    0.160456
    14  S   -0.431545
    15  C   -0.207688
    16  C    0.224996
    17  H    0.192105
    18  H    0.161348
    19  O   -0.231669
    20  H    0.269041
 Sum of Mulliken charges =  -0.00000

 Dipole moment (field-independent basis, Debye):
    X=              1.9704    Y=              0.8844    Z=              0.6471  Tot=              2.2547
 Quadrupole moment (field-independent basis, Debye-Ang):
   XX=            -77.7606   YY=            -98.1304   ZZ=           -102.3920
   XY=              7.9201   XZ=              0.9708   YZ=              0.3702

 Normal termination of Gaussian 16 at Mon Oct 25 23:53:24 2021.
