 Gaussian 16, Revision C.01,
 Gaussian 16:  ES64L-G16RevC.01  3-Jul-2019

 --------------------------------------
 # opt=modredundant wb97xd/6-311+g(d,p)
 --------------------------------------

 --------------
 pBTTT_-115.pdb
 --------------
 Symbolic Z-matrix:
 Charge =  0 Multiplicity = 1

 SCF Done:  E(RwB97XD) =  -1654.29871027     A.U. after   18 cycles
 SCF Done:  E(RwB97XD) =  -1654.35727009     A.U. after   15 cycles
 SCF Done:  E(RwB97XD) =  -1654.39755981     A.U. after   16 cycles
 SCF Done:  E(RwB97XD) =  -1654.40729204     A.U. after   15 cycles
 SCF Done:  E(RwB97XD) =  -1654.40972227     A.U. after   15 cycles
 SCF Done:  E(RwB97XD) =  -1654.41032150     A.U. after   14 cycles
 SCF Done:  E(RwB97XD) =  -1654.41049376     A.U. after   14 cycles
 SCF Done:  E(RwB97XD) =  -1654.41067994     A.U. after   14 cycles
 SCF Done:  E(RwB97XD) =  -1654.41070772     A.U. after   13 cycles
 SCF Done:  E(RwB97XD) =  -1654.41073108     A.U. after   13 cycles
 SCF Done:  E(RwB97XD) =  -1654.41073349     A.U. after   11 cycles
 SCF Done:  E(RwB97XD) =  -1654.41073426     A.U. after   11 cycles
 Optimization completed.
    -- Stationary point found.

                         Standard orientation:
 ---------------------------------------------------------------------
 Center     Atomic      Atomic             Coordinates (Angstroms)
 Number     Number       Type             X           Y           Z
 ---------------------------------------------------------------------
      1          6           0        3.918099    0.778086    0.274121
      2          6           0        2.520717    1.007804    0.442435
      3          6           0        1.736509    0.028361   -0.105824
      4          6           0        4.170879   -0.380640   -0.392002
      5          1           0        4.689829    1.445712    0.637278
      6         16           0        2.730576   -1.197973   -0.836866
      7          1           0        5.133077   -0.794499   -0.652665
      8          6           0        0.280742   -0.057912   -0.081872
      9         16           0       -0.516467   -1.364859    0.777973
     10          6           0       -2.071795   -0.713040    0.394580
     11          6           0       -1.950561    0.455244   -0.332842
     12          6           0       -0.607627    0.831889   -0.608173
     13          1           0       -0.299684    1.707882   -1.161077
     14         16           0       -3.508015    1.108531   -0.714669
     15          6           0       -4.290305   -0.204190    0.111033
     16          6           0       -3.419717   -1.098120    0.650049
     17          1           0       -5.368945   -0.234787    0.149668
     18          1           0       -3.724748   -1.977351    1.199713
     19          8           0        1.983870    2.080960    1.075382
     20          1           0        2.680374    2.589296    1.491996
 ---------------------------------------------------------------------

 The electronic state is 1-A.
 Alpha  occ. eigenvalues --  -89.05171 -89.04679 -89.04500 -19.29056 -10.36082
 Alpha  occ. eigenvalues --  -10.33171 -10.32712 -10.32254 -10.31972 -10.31966
 Alpha  occ. eigenvalues --  -10.31900 -10.30338 -10.30148 -10.29965  -8.09234
 Alpha  occ. eigenvalues --   -8.08725  -8.08544  -6.04068  -6.03687  -6.03573
 Alpha  occ. eigenvalues --   -6.03396  -6.03328  -6.03201  -6.03026  -6.02788
 Alpha  occ. eigenvalues --   -6.02592  -1.18204  -1.01746  -0.99673  -0.94965
 Alpha  occ. eigenvalues --   -0.86895  -0.85942  -0.83931  -0.80605  -0.79838
 Alpha  occ. eigenvalues --   -0.70922  -0.70087  -0.66166  -0.64822  -0.62892
 Alpha  occ. eigenvalues --   -0.60701  -0.58047  -0.57036  -0.53614  -0.52569
 Alpha  occ. eigenvalues --   -0.51847  -0.49993  -0.49401  -0.47504  -0.46965
 Alpha  occ. eigenvalues --   -0.45829  -0.44834  -0.44341  -0.44009  -0.42067
 Alpha  occ. eigenvalues --   -0.41657  -0.36475  -0.33518  -0.31504  -0.30238
 Alpha  occ. eigenvalues --   -0.28269
 Alpha virt. eigenvalues --    0.02060   0.04257   0.05002   0.06083   0.06212
 Alpha virt. eigenvalues --    0.06772   0.07414   0.07586   0.08135   0.09132
 Alpha virt. eigenvalues --    0.09322   0.09400   0.09862   0.10251   0.10753

 Mulliken charges:
               1
     1  C   -0.219863
     2  C   -0.219948
     3  C    0.347343
     4  C   -0.188964
     5  H    0.146481
     6  S   -0.257723
     7  H    0.190051
     8  C    0.158099
     9  S   -0.574313
    10  C    0.200300
    11  C   -0.291117
    12  C    0.595294
    13  H    0.162118
    14  S   -0.436233
    15  C   -0.203187
    16  C    0.206616
    17  H    0.192006
    18  H    0.161099
    19  O   -0.234086
    20  H    0.266026
 Sum of Mulliken charges =  -0.00000

 Dipole moment (field-independent basis, Debye):
    X=              1.9864    Y=              0.9120    Z=              0.6768  Tot=              2.2882
 Quadrupole moment (field-independent basis, Debye-Ang):
   XX=            -77.9592   YY=            -96.9152   ZZ=           -103.5218
   XY=              8.2356   XZ=              1.1487   YZ=              0.5445

 Normal termination of Gaussian 16 at Mon Oct 25 23:56:06 2021.
