 Gaussian 16, Revision C.01,
 Gaussian 16:  ES64L-G16RevC.01  3-Jul-2019

 --------------------------------------
 # opt=modredundant wb97xd/6-311+g(d,p)
 --------------------------------------

 -------------
 pBTTT_160.pdb
 -------------
 Symbolic Z-matrix:
 Charge =  0 Multiplicity = 1

 SCF Done:  E(RwB97XD) =  -1654.30121310     A.U. after   19 cycles
 SCF Done:  E(RwB97XD) =  -1654.35958704     A.U. after   16 cycles
 SCF Done:  E(RwB97XD) =  -1654.39918934     A.U. after   17 cycles
 SCF Done:  E(RwB97XD) =  -1654.40893636     A.U. after   16 cycles
 SCF Done:  E(RwB97XD) =  -1654.41128759     A.U. after   15 cycles
 SCF Done:  E(RwB97XD) =  -1654.41192554     A.U. after   14 cycles
 SCF Done:  E(RwB97XD) =  -1654.41206936     A.U. after   14 cycles
 SCF Done:  E(RwB97XD) =  -1654.41223051     A.U. after   13 cycles
 SCF Done:  E(RwB97XD) =  -1654.41223950     A.U. after   13 cycles
 SCF Done:  E(RwB97XD) =  -1654.41225420     A.U. after   12 cycles
 SCF Done:  E(RwB97XD) =  -1654.41225682     A.U. after   11 cycles
 SCF Done:  E(RwB97XD) =  -1654.41225713     A.U. after   10 cycles
 Optimization completed.
    -- Stationary point found.

                         Standard orientation:
 ---------------------------------------------------------------------
 Center     Atomic      Atomic             Coordinates (Angstroms)
 Number     Number       Type             X           Y           Z
 ---------------------------------------------------------------------
      1          6           0       -3.916276    0.873628    0.086111
      2          6           0       -2.519668    1.145097    0.146017
      3          6           0       -1.733048    0.033275   -0.025277
      4          6           0       -4.175455   -0.442542   -0.134060
      5          1           0       -4.684024    1.628795    0.201932
      6         16           0       -2.736431   -1.364427   -0.287598
      7          1           0       -5.137529   -0.922878   -0.223684
      8          6           0       -0.283319   -0.041357   -0.015070
      9         16           0        0.524875   -1.576257    0.270137
     10          6           0        2.077785   -0.825267    0.128919
     11          6           0        1.947709    0.529005   -0.103575
     12          6           0        0.604362    0.984392   -0.189708
     13          1           0        0.296218    2.002754   -0.371237
     14         16           0        3.501765    1.280770   -0.237500
     15          6           0        4.292739   -0.244121    0.022495
     16          6           0        3.426055   -1.276367    0.202345
     17          1           0        5.371632   -0.285152    0.027169
     18          1           0        3.735366   -2.297129    0.377316
     19          8           0       -1.984110    2.377717    0.347303
     20          1           0       -2.677436    2.996040    0.580279
 ---------------------------------------------------------------------

 The electronic state is 1-A.
 Alpha  occ. eigenvalues --  -89.05383 -89.04595 -89.04558 -19.29610 -10.36209
 Alpha  occ. eigenvalues --  -10.33474 -10.32815 -10.32762 -10.31902 -10.31844
 Alpha  occ. eigenvalues --  -10.31837 -10.30533 -10.30102 -10.29578  -8.09456
 Alpha  occ. eigenvalues --   -8.08641  -8.08617  -6.04299  -6.03914  -6.03536
 Alpha  occ. eigenvalues --   -6.03488  -6.03478  -6.03116  -6.03107  -6.02704
 Alpha  occ. eigenvalues --   -6.02648  -1.18643  -1.01767  -0.99885  -0.94971
 Alpha  occ. eigenvalues --   -0.87013  -0.86067  -0.84185  -0.80554  -0.79829
 Alpha  occ. eigenvalues --   -0.71142  -0.70447  -0.66081  -0.65215  -0.62727
 Alpha  occ. eigenvalues --   -0.60750  -0.58140  -0.57079  -0.53721  -0.52911
 Alpha  occ. eigenvalues --   -0.51923  -0.50239  -0.49052  -0.47799  -0.47017
 Alpha  occ. eigenvalues --   -0.45816  -0.45169  -0.44673  -0.43616  -0.42716
 Alpha  occ. eigenvalues --   -0.41426  -0.36717  -0.34465  -0.32237  -0.30340
 Alpha  occ. eigenvalues --   -0.26790
 Alpha virt. eigenvalues --    0.00862   0.04631   0.05319   0.06089   0.06301
 Alpha virt. eigenvalues --    0.06960   0.07459   0.07639   0.08379   0.08815
 Alpha virt. eigenvalues --    0.09462   0.09608   0.09845   0.10632   0.10864

 Mulliken charges:
               1
     1  C   -0.290282
     2  C    0.123633
     3  C    0.506650
     4  C   -0.140426
     5  H    0.145417
     6  S   -0.492005
     7  H    0.189136
     8  C    0.260884
     9  S   -0.599870
    10  C    0.427192
    11  C    0.236518
    12  C    0.035177
    13  H    0.176930
    14  S   -0.454233
    15  C   -0.148341
    16  C   -0.341068
    17  H    0.191871
    18  H    0.160167
    19  O   -0.261069
    20  H    0.273718
 Sum of Mulliken charges =  -0.00000

 Dipole moment (field-independent basis, Debye):
    X=             -2.1764    Y=              1.1099    Z=              0.3489  Tot=              2.4679
 Quadrupole moment (field-independent basis, Debye-Ang):
   XX=            -77.7577   YY=            -92.7643   ZZ=           -107.7100
   XY=             -9.6866   XZ=             -0.8175   YZ=              0.8581

 Normal termination of Gaussian 16 at Tue Oct 26 00:33:56 2021.
