 Gaussian 16, Revision C.01,
 Gaussian 16:  ES64L-G16RevC.01  3-Jul-2019

 --------------------------------------
 # opt=modredundant wb97xd/6-311+g(d,p)
 --------------------------------------

 ------------
 pBTTT_50.pdb
 ------------
 Symbolic Z-matrix:
 Charge =  0 Multiplicity = 1

 SCF Done:  E(RwB97XD) =  -1654.30013217     A.U. after   18 cycles
 SCF Done:  E(RwB97XD) =  -1654.35837677     A.U. after   16 cycles
 SCF Done:  E(RwB97XD) =  -1654.39788751     A.U. after   16 cycles
 SCF Done:  E(RwB97XD) =  -1654.40780234     A.U. after   16 cycles
 SCF Done:  E(RwB97XD) =  -1654.41029645     A.U. after   15 cycles
 SCF Done:  E(RwB97XD) =  -1654.41090318     A.U. after   14 cycles
 SCF Done:  E(RwB97XD) =  -1654.41114052     A.U. after   14 cycles
 SCF Done:  E(RwB97XD) =  -1654.41129806     A.U. after   13 cycles
 SCF Done:  E(RwB97XD) =  -1654.41131117     A.U. after   13 cycles
 SCF Done:  E(RwB97XD) =  -1654.41132106     A.U. after   12 cycles
 SCF Done:  E(RwB97XD) =  -1654.41132166     A.U. after   11 cycles
 SCF Done:  E(RwB97XD) =  -1654.41132253     A.U. after   10 cycles
 Optimization completed.
    -- Stationary point found.

                         Standard orientation:
 ---------------------------------------------------------------------
 Center     Atomic      Atomic             Coordinates (Angstroms)
 Number     Number       Type             X           Y           Z
 ---------------------------------------------------------------------
      1          6           0       -4.004939    0.342982   -0.315339
      2          6           0       -2.661687    0.803766   -0.434304
      3          6           0       -1.730913   -0.106114   -0.006188
      4          6           0       -4.073821   -0.914190    0.199874
      5          1           0       -4.871466    0.922955   -0.608579
      6         16           0       -2.521545   -1.547062    0.561380
      7          1           0       -4.959141   -1.500844    0.392068
      8          6           0       -0.277970   -0.007709   -0.016310
      9         16           0        0.526236    1.407242    0.636158
     10          6           0        2.078094    0.706629    0.333465
     11          6           0        1.953059   -0.550851   -0.224261
     12          6           0        0.608647   -0.963209   -0.426727
     13          1           0        0.301625   -1.903607   -0.863559
     14         16           0        3.508391   -1.243130   -0.541854
     15          6           0        4.295458    0.174971    0.081324
     16          6           0        3.427480    1.130355    0.507162
     17          1           0        5.374347    0.214841    0.097374
     18          1           0        3.735540    2.078632    0.924490
     19          8           0       -2.298938    2.013856   -0.929487
     20          1           0       -3.079157    2.504599   -1.189013
 ---------------------------------------------------------------------

 The electronic state is 1-A.
 Alpha  occ. eigenvalues --  -89.05281 -89.04631 -89.04379 -19.29161 -10.36107
 Alpha  occ. eigenvalues --  -10.33381 -10.32729 -10.32417 -10.31903 -10.31897
 Alpha  occ. eigenvalues --  -10.31819 -10.30412 -10.30088 -10.29986  -8.09342
 Alpha  occ. eigenvalues --   -8.08677  -8.08414  -6.04180  -6.03798  -6.03526
 Alpha  occ. eigenvalues --   -6.03432  -6.03273  -6.03153  -6.02896  -6.02738
 Alpha  occ. eigenvalues --   -6.02457  -1.18316  -1.01735  -0.99759  -0.94960
 Alpha  occ. eigenvalues --   -0.86922  -0.85973  -0.84027  -0.80563  -0.79875
 Alpha  occ. eigenvalues --   -0.70988  -0.70235  -0.66242  -0.64970  -0.62444
 Alpha  occ. eigenvalues --   -0.60897  -0.58051  -0.57145  -0.53564  -0.52658
 Alpha  occ. eigenvalues --   -0.52017  -0.50089  -0.49320  -0.47374  -0.46940
 Alpha  occ. eigenvalues --   -0.45806  -0.45138  -0.44544  -0.43811  -0.42243
 Alpha  occ. eigenvalues --   -0.41494  -0.36497  -0.33910  -0.31829  -0.30202
 Alpha  occ. eigenvalues --   -0.27594
 Alpha virt. eigenvalues --    0.01515   0.04896   0.05169   0.05980   0.06058
 Alpha virt. eigenvalues --    0.06648   0.07461   0.07657   0.08273   0.09298
 Alpha virt. eigenvalues --    0.09309   0.09702   0.09821   0.10148   0.10766

 Mulliken charges:
               1
     1  C   -0.193369
     2  C   -0.420952
     3  C    0.634046
     4  C   -0.176623
     5  H    0.145478
     6  S   -0.327282
     7  H    0.190300
     8  C    0.825320
     9  S   -0.394731
    10  C    0.464211
    11  C   -0.027596
    12  C   -0.316182
    13  H    0.168962
    14  S   -0.454396
    15  C   -0.147735
    16  C   -0.341461
    17  H    0.191725
    18  H    0.161250
    19  O   -0.247689
    20  H    0.266723
 Sum of Mulliken charges =  -0.00000

 Dipole moment (field-independent basis, Debye):
    X=             -2.2262    Y=              0.7588    Z=             -0.4273  Tot=              2.3905
 Quadrupole moment (field-independent basis, Debye-Ang):
   XX=            -76.4872   YY=            -95.8099   ZZ=           -105.7359
   XY=             -1.1758   XZ=              4.3191   YZ=             -0.0474

 Normal termination of Gaussian 16 at Tue Oct 26 00:19:21 2021.
