 Gaussian 16, Revision C.01,
 Gaussian 16:  ES64L-G16RevC.01  3-Jul-2019

 --------------------------------------
 # opt=modredundant wb97xd/6-311+g(d,p)
 --------------------------------------

 -----------
 pBTTT_5.pdb
 -----------
 Symbolic Z-matrix:
 Charge =  0 Multiplicity = 1

 SCF Done:  E(RwB97XD) =  -1654.30236470     A.U. after   20 cycles
 SCF Done:  E(RwB97XD) =  -1654.36041603     A.U. after   16 cycles
 SCF Done:  E(RwB97XD) =  -1654.39890888     A.U. after   17 cycles
 SCF Done:  E(RwB97XD) =  -1654.40852703     A.U. after   15 cycles
 SCF Done:  E(RwB97XD) =  -1654.41088077     A.U. after   14 cycles
 SCF Done:  E(RwB97XD) =  -1654.41151457     A.U. after   14 cycles
 SCF Done:  E(RwB97XD) =  -1654.41160535     A.U. after   13 cycles
 SCF Done:  E(RwB97XD) =  -1654.41180042     A.U. after   13 cycles
 SCF Done:  E(RwB97XD) =  -1654.41182262     A.U. after   13 cycles
 SCF Done:  E(RwB97XD) =  -1654.41183437     A.U. after   12 cycles
 SCF Done:  E(RwB97XD) =  -1654.41184308     A.U. after   11 cycles
 SCF Done:  E(RwB97XD) =  -1654.41184542     A.U. after   14 cycles
 SCF Done:  E(RwB97XD) =  -1654.41183987     A.U. after   14 cycles
 SCF Done:  E(RwB97XD) =  -1654.41185053     A.U. after   14 cycles
 SCF Done:  E(RwB97XD) =  -1654.41184538     A.U. after   13 cycles
 SCF Done:  E(RwB97XD) =  -1654.40472772     A.U. after   15 cycles
 SCF Done:  E(RwB97XD) =  -1654.41183645     A.U. after   14 cycles
 SCF Done:  E(RwB97XD) =  -1654.41185329     A.U. after   10 cycles
 SCF Done:  E(RwB97XD) =  -1654.41185384     A.U. after   11 cycles
 SCF Done:  E(RwB97XD) =  -1654.41185397     A.U. after   10 cycles
 Optimization completed.
    -- Stationary point found.

                         Standard orientation:
 ---------------------------------------------------------------------
 Center     Atomic      Atomic             Coordinates (Angstroms)
 Number     Number       Type             X           Y           Z
 ---------------------------------------------------------------------
      1          6           0       -4.014295    0.379948   -0.026444
      2          6           0       -2.672665    0.859065   -0.046895
      3          6           0       -1.726977   -0.133547   -0.007801
      4          6           0       -4.072757   -0.975945    0.030451
      5          1           0       -4.885709    1.022258   -0.056272
      6         16           0       -2.510151   -1.687757    0.059504
      7          1           0       -4.951804   -1.601343    0.055223
      8          6           0       -0.279155   -0.025679   -0.011097
      9         16           0        0.520812    1.537911    0.060047
     10          6           0        2.075147    0.778142    0.037816
     11          6           0        1.958168   -0.595604   -0.023580
     12          6           0        0.618175   -1.059634   -0.053825
     13          1           0        0.328135   -2.100352   -0.106112
     14         16           0        3.517799   -1.348471   -0.054795
     15          6           0        4.296570    0.204297    0.015739
     16          6           0        3.421451    1.243496    0.059989
     17          1           0        5.375137    0.253355    0.021168
     18          1           0        3.723314    2.280396    0.106590
     19          8           0       -2.321023    2.168602   -0.108787
     20          1           0       -3.098223    2.722708   -0.032504
 ---------------------------------------------------------------------

 The electronic state is 1-A.
 Alpha  occ. eigenvalues --  -89.05403 -89.04469 -89.04334 -19.29636 -10.36298
 Alpha  occ. eigenvalues --  -10.33603 -10.32947 -10.32841 -10.31764 -10.31706
 Alpha  occ. eigenvalues --  -10.31499 -10.30614 -10.29940 -10.29765  -8.09479
 Alpha  occ. eigenvalues --   -8.08514  -8.08344  -6.04326  -6.03941  -6.03551
 Alpha  occ. eigenvalues --   -6.03364  -6.03208  -6.02992  -6.02823  -6.02574
 Alpha  occ. eigenvalues --   -6.02379  -1.18757  -1.01646  -0.99909  -0.94875
 Alpha  occ. eigenvalues --   -0.87003  -0.86015  -0.84247  -0.80445  -0.79855
 Alpha  occ. eigenvalues --   -0.71132  -0.70600  -0.66301  -0.65182  -0.62015
 Alpha  occ. eigenvalues --   -0.61065  -0.58107  -0.57361  -0.53656  -0.53041
 Alpha  occ. eigenvalues --   -0.52057  -0.50142  -0.49110  -0.47374  -0.46919
 Alpha  occ. eigenvalues --   -0.46177  -0.45323  -0.44672  -0.43323  -0.42851
 Alpha  occ. eigenvalues --   -0.40974  -0.36715  -0.34510  -0.32317  -0.30151
 Alpha  occ. eigenvalues --   -0.26573
 Alpha virt. eigenvalues --    0.00748   0.04757   0.05707   0.05849   0.06118
 Alpha virt. eigenvalues --    0.06645   0.07507   0.08362   0.08621   0.08989
 Alpha virt. eigenvalues --    0.09415   0.09673   0.09929   0.10640   0.10978

 Mulliken charges:
               1
     1  C   -0.439907
     2  C    0.523712
     3  C    0.566636
     4  C   -0.197150
     5  H    0.145315
     6  S   -0.584911
     7  H    0.191017
     8  C    0.027279
     9  S   -0.441846
    10  C    0.064784
    11  C    0.426627
    12  C    0.050981
    13  H    0.161421
    14  S   -0.484338
    15  C   -0.171676
    16  C   -0.223622
    17  H    0.191233
    18  H    0.158762
    19  O   -0.244195
    20  H    0.279879
 Sum of Mulliken charges =  -0.00000

 Dipole moment (field-independent basis, Debye):
    X=             -2.5601    Y=              0.9999    Z=              0.1214  Tot=              2.7511
 Quadrupole moment (field-independent basis, Debye-Ang):
   XX=            -76.3019   YY=            -93.2212   ZZ=           -108.4710
   XY=             -1.7029   XZ=             -0.1120   YZ=              0.5530

 Normal termination of Gaussian 16 at Tue Oct 26 00:28:34 2021.
