 Gaussian 16, Revision C.01,
 Gaussian 16:  ES64L-G16RevC.01  3-Jul-2019

 --------------------------------------
 # opt=modredundant wb97xd/6-311+g(d,p)
 --------------------------------------

 --------------
 pBTTT_-140.pdb
 --------------
 Symbolic Z-matrix:
 Charge =  0 Multiplicity = 1

 SCF Done:  E(RwB97XD) =  -1654.30069279     A.U. after   18 cycles
 SCF Done:  E(RwB97XD) =  -1654.35907347     A.U. after   16 cycles
 SCF Done:  E(RwB97XD) =  -1654.39899601     A.U. after   17 cycles
 SCF Done:  E(RwB97XD) =  -1654.40858083     A.U. after   15 cycles
 SCF Done:  E(RwB97XD) =  -1654.41098396     A.U. after   15 cycles
 SCF Done:  E(RwB97XD) =  -1654.41154783     A.U. after   14 cycles
 SCF Done:  E(RwB97XD) =  -1654.41169672     A.U. after   14 cycles
 SCF Done:  E(RwB97XD) =  -1654.41188774     A.U. after   13 cycles
 SCF Done:  E(RwB97XD) =  -1654.41190790     A.U. after   13 cycles
 SCF Done:  E(RwB97XD) =  -1654.41193130     A.U. after   12 cycles
 SCF Done:  E(RwB97XD) =  -1654.41193323     A.U. after   11 cycles
 SCF Done:  E(RwB97XD) =  -1654.41193386     A.U. after   11 cycles
 Optimization completed.
    -- Stationary point found.

                         Standard orientation:
 ---------------------------------------------------------------------
 Center     Atomic      Atomic             Coordinates (Angstroms)
 Number     Number       Type             X           Y           Z
 ---------------------------------------------------------------------
      1          6           0        3.911094    0.849309    0.183435
      2          6           0        2.512474    1.105545    0.276124
      3          6           0        1.733964    0.031963   -0.072310
      4          6           0        4.174958   -0.418864   -0.230506
      5          1           0        4.676493    1.579039    0.417486
      6         16           0        2.740676   -1.309970   -0.533234
      7          1           0        5.139992   -0.876444   -0.385299
      8          6           0        0.283096   -0.051367   -0.059174
      9         16           0       -0.519644   -1.514975    0.488642
     10          6           0       -2.073620   -0.793760    0.244471
     11          6           0       -1.946961    0.506076   -0.204279
     12          6           0       -0.603739    0.935078   -0.382144
     13          1           0       -0.294924    1.910922   -0.727000
     14         16           0       -3.502309    1.228892   -0.441840
     15          6           0       -4.290030   -0.233675    0.066799
     16          6           0       -3.421816   -1.225203    0.400666
     17          1           0       -5.368834   -0.271308    0.090027
     18          1           0       -3.729544   -2.204200    0.739940
     19          8           0        1.968575    2.289218    0.660884
     20          1           0        2.652118    2.854472    1.022192
 ---------------------------------------------------------------------

 The electronic state is 1-A.
 Alpha  occ. eigenvalues --  -89.05309 -89.04630 -89.04558 -19.29321 -10.36137
 Alpha  occ. eigenvalues --  -10.33329 -10.32763 -10.32552 -10.31934 -10.31890
 Alpha  occ. eigenvalues --  -10.31871 -10.30451 -10.30122 -10.29751  -8.09377
 Alpha  occ. eigenvalues --   -8.08675  -8.08608  -6.04215  -6.03832  -6.03523
 Alpha  occ. eigenvalues --   -6.03465  -6.03463  -6.03151  -6.03095  -6.02739
 Alpha  occ. eigenvalues --   -6.02647  -1.18399  -1.01765  -0.99803  -0.94977
 Alpha  occ. eigenvalues --   -0.86974  -0.86021  -0.84085  -0.80583  -0.79822
 Alpha  occ. eigenvalues --   -0.71049  -0.70268  -0.66115  -0.65037  -0.62805
 Alpha  occ. eigenvalues --   -0.60713  -0.58037  -0.57114  -0.53685  -0.52745
 Alpha  occ. eigenvalues --   -0.51899  -0.50156  -0.49148  -0.47710  -0.46963
 Alpha  occ. eigenvalues --   -0.45837  -0.44875  -0.44581  -0.43850  -0.42437
 Alpha  occ. eigenvalues --   -0.41559  -0.36598  -0.34120  -0.32050  -0.30332
 Alpha  occ. eigenvalues --   -0.27255
 Alpha virt. eigenvalues --    0.01286   0.04661   0.05211   0.06079   0.06263
 Alpha virt. eigenvalues --    0.06922   0.07526   0.07553   0.08272   0.08971
 Alpha virt. eigenvalues --    0.09474   0.09640   0.09760   0.10367   0.10775

 Mulliken charges:
               1
     1  C   -0.237322
     2  C   -0.206484
     3  C    0.541741
     4  C   -0.178012
     5  H    0.146550
     6  S   -0.382581
     7  H    0.189895
     8  C    0.531235
     9  S   -0.544787
    10  C    0.439500
    11  C    0.129244
    12  C   -0.006943
    13  H    0.171029
    14  S   -0.452031
    15  C   -0.134398
    16  C   -0.371252
    17  H    0.191851
    18  H    0.160795
    19  O   -0.256729
    20  H    0.268698
 Sum of Mulliken charges =  -0.00000

 Dipole moment (field-independent basis, Debye):
    X=              2.0746    Y=              1.0122    Z=              0.5888  Tot=              2.3823
 Quadrupole moment (field-independent basis, Debye-Ang):
   XX=            -78.0419   YY=            -94.3306   ZZ=           -106.1035
   XY=              9.0452   XZ=              1.2006   YZ=              0.9468

 Normal termination of Gaussian 16 at Mon Oct 25 23:35:25 2021.
