 Gaussian 16, Revision C.01,
 Gaussian 16:  ES64L-G16RevC.01  3-Jul-2019

 --------------------------------------
 # opt=modredundant wb97xd/6-311+g(d,p)
 --------------------------------------

 -------------
 pBTTT_-90.pdb
 -------------
 Symbolic Z-matrix:
 Charge =  0 Multiplicity = 1

 SCF Done:  E(RwB97XD) =  -1654.29784530     A.U. after   17 cycles
 SCF Done:  E(RwB97XD) =  -1654.35662466     A.U. after   15 cycles
 SCF Done:  E(RwB97XD) =  -1654.39711834     A.U. after   16 cycles
 SCF Done:  E(RwB97XD) =  -1654.40682189     A.U. after   15 cycles
 SCF Done:  E(RwB97XD) =  -1654.40916474     A.U. after   15 cycles
 SCF Done:  E(RwB97XD) =  -1654.40968583     A.U. after   14 cycles
 SCF Done:  E(RwB97XD) =  -1654.40992626     A.U. after   14 cycles
 SCF Done:  E(RwB97XD) =  -1654.41007849     A.U. after   14 cycles
 SCF Done:  E(RwB97XD) =  -1654.41009888     A.U. after   13 cycles
 SCF Done:  E(RwB97XD) =  -1654.41012827     A.U. after   13 cycles
 SCF Done:  E(RwB97XD) =  -1654.41012966     A.U. after   12 cycles
 SCF Done:  E(RwB97XD) =  -1654.41013220     A.U. after   11 cycles
 SCF Done:  E(RwB97XD) =  -1654.41013157     A.U. after   11 cycles
 Optimization completed.
    -- Stationary point found.

                         Standard orientation:
 ---------------------------------------------------------------------
 Center     Atomic      Atomic             Coordinates (Angstroms)
 Number     Number       Type             X           Y           Z
 ---------------------------------------------------------------------
      1          6           0        3.952930    0.706000    0.032608
      2          6           0        2.571239    1.010036    0.214457
      3          6           0        1.737743   -0.027534   -0.103004
      4          6           0        4.142591   -0.563981   -0.417072
      5          1           0        4.758187    1.403647    0.227580
      6         16           0        2.662951   -1.403104   -0.628821
      7          1           0        5.080456   -1.049837   -0.639848
      8          6           0        0.277548   -0.054196   -0.031197
      9         16           0       -0.522907   -0.571388    1.441681
     10          6           0       -2.076351   -0.303089    0.732447
     11          6           0       -1.953160    0.159317   -0.563891
     12          6           0       -0.608601    0.300592   -1.003808
     13          1           0       -0.297883    0.650026   -1.978496
     14         16           0       -3.509324    0.430814   -1.273685
     15          6           0       -4.294004   -0.083702    0.187986
     16          6           0       -3.425710   -0.444192    1.169351
     17          1           0       -5.372823   -0.087603    0.233703
     18          1           0       -3.732858   -0.789891    2.146257
     19          8           0        2.088921    2.199183    0.651412
     20          1           0        2.816686    2.783534    0.865456
 ---------------------------------------------------------------------

 The electronic state is 1-A.
 Alpha  occ. eigenvalues --  -89.05109 -89.04705 -89.04425 -19.28986 -10.36045
 Alpha  occ. eigenvalues --  -10.33132 -10.32675 -10.32099 -10.32014 -10.31989
 Alpha  occ. eigenvalues --  -10.31905 -10.30281 -10.30159 -10.30102  -8.09168
 Alpha  occ. eigenvalues --   -8.08751  -8.08467  -6.04001  -6.03621  -6.03600
 Alpha  occ. eigenvalues --   -6.03318  -6.03264  -6.03228  -6.02946  -6.02814
 Alpha  occ. eigenvalues --   -6.02519  -1.18159  -1.01742  -0.99615  -0.94962
 Alpha  occ. eigenvalues --   -0.86846  -0.85907  -0.83859  -0.80618  -0.79866
 Alpha  occ. eigenvalues --   -0.70862  -0.70032  -0.66206  -0.64761  -0.62851
 Alpha  occ. eigenvalues --   -0.60748  -0.58099  -0.56959  -0.53548  -0.52516
 Alpha  occ. eigenvalues --   -0.51845  -0.49844  -0.49656  -0.47372  -0.47008
 Alpha  occ. eigenvalues --   -0.45785  -0.44916  -0.44275  -0.44019  -0.41876
 Alpha  occ. eigenvalues --   -0.41667  -0.36442  -0.33226  -0.30575  -0.30289
 Alpha  occ. eigenvalues --   -0.29288
 Alpha virt. eigenvalues --    0.02722   0.03708   0.04998   0.05995   0.06220
 Alpha virt. eigenvalues --    0.06634   0.07382   0.07485   0.08049   0.09030
 Alpha virt. eigenvalues --    0.09243   0.09485   0.09870   0.10307   0.10845

 Mulliken charges:
               1
     1  C   -0.129473
     2  C   -0.391510
     3  C    0.295740
     4  C   -0.219835
     5  H    0.146261
     6  S   -0.124544
     7  H    0.189808
     8  C    0.293824
     9  S   -0.491746
    10  C    0.282348
    11  C   -0.521832
    12  C    0.563006
    13  H    0.161794
    14  S   -0.428194
    15  C   -0.207636
    16  C    0.191983
    17  H    0.192277
    18  H    0.161677
    19  O   -0.237529
    20  H    0.273581
 Sum of Mulliken charges =  -0.00000

 Dipole moment (field-independent basis, Debye):
    X=              1.9869    Y=              0.9765    Z=              0.2710  Tot=              2.2304
 Quadrupole moment (field-independent basis, Debye-Ang):
   XX=            -77.3733   YY=           -100.1121   ZZ=           -100.6726
   XY=              6.9364   XZ=             -2.0654   YZ=              0.1672

 Normal termination of Gaussian 16 at Mon Oct 25 23:57:55 2021.
