 Gaussian 16, Revision C.01,
 Gaussian 16:  ES64L-G16RevC.01  3-Jul-2019

 --------------------------------------
 # opt=modredundant wb97xd/6-311+g(d,p)
 --------------------------------------

 -------------
 pBTTT_-75.pdb
 -------------
 Symbolic Z-matrix:
 Charge =  0 Multiplicity = 1

 SCF Done:  E(RwB97XD) =  -1654.29847061     A.U. after   17 cycles
 SCF Done:  E(RwB97XD) =  -1654.35721428     A.U. after   15 cycles
 SCF Done:  E(RwB97XD) =  -1654.39749638     A.U. after   15 cycles
 SCF Done:  E(RwB97XD) =  -1654.40718525     A.U. after   16 cycles
 SCF Done:  E(RwB97XD) =  -1654.40946424     A.U. after   15 cycles
 SCF Done:  E(RwB97XD) =  -1654.40998305     A.U. after   14 cycles
 SCF Done:  E(RwB97XD) =  -1654.41019985     A.U. after   14 cycles
 SCF Done:  E(RwB97XD) =  -1654.41035816     A.U. after   14 cycles
 SCF Done:  E(RwB97XD) =  -1654.41036264     A.U. after   13 cycles
 SCF Done:  E(RwB97XD) =  -1654.41038159     A.U. after   13 cycles
 SCF Done:  E(RwB97XD) =  -1654.41038665     A.U. after   12 cycles
 SCF Done:  E(RwB97XD) =  -1654.41038687     A.U. after   11 cycles
 SCF Done:  E(RwB97XD) =  -1654.41038693     A.U. after   10 cycles
 Optimization completed.
    -- Stationary point found.

                         Standard orientation:
 ---------------------------------------------------------------------
 Center     Atomic      Atomic             Coordinates (Angstroms)
 Number     Number       Type             X           Y           Z
 ---------------------------------------------------------------------
      1          6           0        3.981510    0.346806   -0.487807
      2          6           0        2.618137    0.729535   -0.656798
      3          6           0        1.735689   -0.098062   -0.016865
      4          6           0        4.109462   -0.769563    0.279449
      5          1           0        4.818537    0.878236   -0.923913
      6         16           0        2.592105   -1.366238    0.808958
      7          1           0        5.021432   -1.274112    0.560408
      8          6           0        0.276748   -0.020935    0.005098
      9         16           0       -0.526727    1.196769    0.978324
     10          6           0       -2.078764    0.600044    0.505532
     11          6           0       -1.953337   -0.483627   -0.342614
     12          6           0       -0.607894   -0.843237   -0.628047
     13          1           0       -0.296382   -1.654802   -1.270966
     14         16           0       -3.508085   -1.078165   -0.820324
     15          6           0       -4.295650    0.144297    0.129710
     16          6           0       -3.429021    0.966625    0.777583
     17          1           0       -5.374589    0.180794    0.151896
     18          1           0       -3.738058    1.784075    1.413582
     19          8           0        2.195145    1.794663   -1.381283
     20          1           0        2.949925    2.259351   -1.743500
 ---------------------------------------------------------------------

 The electronic state is 1-A.
 Alpha  occ. eigenvalues --  -89.05155 -89.04694 -89.04400 -19.29008 -10.36051
 Alpha  occ. eigenvalues --  -10.33199 -10.32677 -10.32160 -10.31992 -10.31964
 Alpha  occ. eigenvalues --  -10.31894 -10.30306 -10.30143 -10.30100  -8.09212
 Alpha  occ. eigenvalues --   -8.08740  -8.08440  -6.04047  -6.03666  -6.03588
 Alpha  occ. eigenvalues --   -6.03308  -6.03293  -6.03216  -6.02920  -6.02802
 Alpha  occ. eigenvalues --   -6.02490  -1.18181  -1.01741  -0.99643  -0.94964
 Alpha  occ. eigenvalues --   -0.86855  -0.85922  -0.83889  -0.80609  -0.79876
 Alpha  occ. eigenvalues --   -0.70887  -0.70069  -0.66217  -0.64820  -0.62729
 Alpha  occ. eigenvalues --   -0.60796  -0.58094  -0.56990  -0.53536  -0.52534
 Alpha  occ. eigenvalues --   -0.51901  -0.49919  -0.49583  -0.47360  -0.46984
 Alpha  occ. eigenvalues --   -0.45766  -0.44985  -0.44349  -0.43969  -0.41933
 Alpha  occ. eigenvalues --   -0.41630  -0.36443  -0.33352  -0.30971  -0.30310
 Alpha  occ. eigenvalues --   -0.28777
 Alpha virt. eigenvalues --    0.02363   0.04131   0.05008   0.05978   0.06163
 Alpha virt. eigenvalues --    0.06600   0.07400   0.07457   0.08089   0.09106
 Alpha virt. eigenvalues --    0.09252   0.09536   0.09871   0.10251   0.10870

 Mulliken charges:
               1
     1  C   -0.078275
     2  C   -0.501338
     3  C    0.335708
     4  C   -0.264101
     5  H    0.145884
     6  S   -0.147235
     7  H    0.190149
     8  C    0.492113
     9  S   -0.481976
    10  C    0.320593
    11  C   -0.547345
    12  C    0.475680
    13  H    0.165432
    14  S   -0.431582
    15  C   -0.207768
    16  C    0.161593
    17  H    0.192222
    18  H    0.161599
    19  O   -0.250627
    20  H    0.269275
 Sum of Mulliken charges =  -0.00000

 Dipole moment (field-independent basis, Debye):
    X=              2.0643    Y=              0.6682    Z=             -0.6062  Tot=              2.2528
 Quadrupole moment (field-independent basis, Debye-Ang):
   XX=            -76.8776   YY=            -98.5131   ZZ=           -102.6311
   XY=              1.2160   XZ=             -6.1629   YZ=             -0.0747

 Normal termination of Gaussian 16 at Mon Oct 25 23:58:48 2021.
