 Gaussian 16, Revision C.01,
 Gaussian 16:  ES64L-G16RevC.01  3-Jul-2019

 --------------------------------------
 # opt=modredundant wb97xd/6-311+g(d,p)
 --------------------------------------

 ------------
 pBTTT_35.pdb
 ------------
 Symbolic Z-matrix:
 Charge =  0 Multiplicity = 1

 SCF Done:  E(RwB97XD) =  -1654.30103890     A.U. after   18 cycles
 SCF Done:  E(RwB97XD) =  -1654.35917548     A.U. after   16 cycles
 SCF Done:  E(RwB97XD) =  -1654.39834183     A.U. after   16 cycles
 SCF Done:  E(RwB97XD) =  -1654.40818894     A.U. after   16 cycles
 SCF Done:  E(RwB97XD) =  -1654.41069885     A.U. after   16 cycles
 SCF Done:  E(RwB97XD) =  -1654.41129049     A.U. after   14 cycles
 SCF Done:  E(RwB97XD) =  -1654.41153429     A.U. after   14 cycles
 SCF Done:  E(RwB97XD) =  -1654.41169440     A.U. after   13 cycles
 SCF Done:  E(RwB97XD) =  -1654.41170506     A.U. after   13 cycles
 SCF Done:  E(RwB97XD) =  -1654.41171421     A.U. after   12 cycles
 SCF Done:  E(RwB97XD) =  -1654.41171495     A.U. after   11 cycles
 SCF Done:  E(RwB97XD) =  -1654.41171590     A.U. after   11 cycles
 Optimization completed.
    -- Stationary point found.

                         Standard orientation:
 ---------------------------------------------------------------------
 Center     Atomic      Atomic             Coordinates (Angstroms)
 Number     Number       Type             X           Y           Z
 ---------------------------------------------------------------------
      1          6           0       -4.010949    0.353045   -0.221334
      2          6           0       -2.671682    0.831542   -0.305091
      3          6           0       -1.728503   -0.117727   -0.007257
      4          6           0       -4.067258   -0.955951    0.142604
      5          1           0       -4.883702    0.959890   -0.429077
      6         16           0       -2.506338   -1.618829    0.402645
      7          1           0       -4.946307   -1.566961    0.279105
      8          6           0       -0.278541   -0.012464   -0.021174
      9         16           0        0.523328    1.478294    0.439996
     10          6           0        2.076347    0.743480    0.239378
     11          6           0        1.954718   -0.574015   -0.155834
     12          6           0        0.612308   -1.009798   -0.310016
     13          1           0        0.311839   -1.998687   -0.628518
     14         16           0        3.511830   -1.297698   -0.381235
     15          6           0        4.295354    0.189320    0.060627
     16          6           0        3.424285    1.188502    0.361478
     17          1           0        5.374106    0.232857    0.074553
     18          1           0        3.729554    2.182263    0.657459
     19          8           0       -2.321916    2.096188   -0.652154
     20          1           0       -3.107733    2.617253   -0.819069
 ---------------------------------------------------------------------

 The electronic state is 1-A.
 Alpha  occ. eigenvalues --  -89.05337 -89.04574 -89.04366 -19.29335 -10.36171
 Alpha  occ. eigenvalues --  -10.33482 -10.32799 -10.32590 -10.31847 -10.31830
 Alpha  occ. eigenvalues --  -10.31717 -10.30492 -10.30037 -10.29892  -8.09404
 Alpha  occ. eigenvalues --   -8.08619  -8.08393  -6.04245  -6.03861  -6.03487
 Alpha  occ. eigenvalues --   -6.03468  -6.03255  -6.03096  -6.02875  -6.02680
 Alpha  occ. eigenvalues --   -6.02432  -1.18475  -1.01713  -0.99827  -0.94938
 Alpha  occ. eigenvalues --   -0.86963  -0.85999  -0.84120  -0.80521  -0.79869
 Alpha  occ. eigenvalues --   -0.71051  -0.70382  -0.66263  -0.65063  -0.62264
 Alpha  occ. eigenvalues --   -0.60963  -0.58041  -0.57257  -0.53599  -0.52798
 Alpha  occ. eigenvalues --   -0.52048  -0.50139  -0.49192  -0.47381  -0.46928
 Alpha  occ. eigenvalues --   -0.45929  -0.45229  -0.44638  -0.43647  -0.42478
 Alpha  occ. eigenvalues --   -0.41333  -0.36573  -0.34225  -0.32077  -0.30169
 Alpha  occ. eigenvalues --   -0.27083
 Alpha virt. eigenvalues --    0.01129   0.04896   0.05444   0.05915   0.06085
 Alpha virt. eigenvalues --    0.06662   0.07492   0.07951   0.08386   0.09213
 Alpha virt. eigenvalues --    0.09364   0.09669   0.09961   0.10251   0.10752

 Mulliken charges:
               1
     1  C   -0.243883
     2  C   -0.149333
     3  C    0.610059
     4  C   -0.134841
     5  H    0.145227
     6  S   -0.426805
     7  H    0.190248
     8  C    0.465931
     9  S   -0.431453
    10  C    0.430400
    11  C    0.100394
    12  C   -0.168615
    13  H    0.167099
    14  S   -0.466057
    15  C   -0.137973
    16  C   -0.325463
    17  H    0.191433
    18  H    0.160529
    19  O   -0.247413
    20  H    0.270515
 Sum of Mulliken charges =  -0.00000

 Dipole moment (field-independent basis, Debye):
    X=             -2.3498    Y=              0.8643    Z=             -0.2879  Tot=              2.5202
 Quadrupole moment (field-independent basis, Debye-Ang):
   XX=            -76.3530   YY=            -94.5389   ZZ=           -107.1266
   XY=             -1.3938   XZ=              2.9971   YZ=              0.0270

 Normal termination of Gaussian 16 at Tue Oct 26 00:19:39 2021.
