 Gaussian 16, Revision C.01,
 Gaussian 16:  ES64L-G16RevC.01  3-Jul-2019

 --------------------------------------
 # opt=modredundant wb97xd/6-311+g(d,p)
 --------------------------------------

 ------------
 pBTTT_30.pdb
 ------------
 Symbolic Z-matrix:
 Charge =  0 Multiplicity = 1

 SCF Done:  E(RwB97XD) =  -1654.30121821     A.U. after   19 cycles
 SCF Done:  E(RwB97XD) =  -1654.35934647     A.U. after   16 cycles
 SCF Done:  E(RwB97XD) =  -1654.39841295     A.U. after   16 cycles
 SCF Done:  E(RwB97XD) =  -1654.40826694     A.U. after   16 cycles
 SCF Done:  E(RwB97XD) =  -1654.41071094     A.U. after   15 cycles
 SCF Done:  E(RwB97XD) =  -1654.41136254     A.U. after   14 cycles
 SCF Done:  E(RwB97XD) =  -1654.41159272     A.U. after   14 cycles
 SCF Done:  E(RwB97XD) =  -1654.41175575     A.U. after   13 cycles
 SCF Done:  E(RwB97XD) =  -1654.41176345     A.U. after   13 cycles
 SCF Done:  E(RwB97XD) =  -1654.41177510     A.U. after   13 cycles
 SCF Done:  E(RwB97XD) =  -1654.41177836     A.U. after   11 cycles
 SCF Done:  E(RwB97XD) =  -1654.41177884     A.U. after   10 cycles
 SCF Done:  E(RwB97XD) =  -1654.41177886     A.U. after   10 cycles
 Optimization completed.
    -- Stationary point found.

                         Standard orientation:
 ---------------------------------------------------------------------
 Center     Atomic      Atomic             Coordinates (Angstroms)
 Number     Number       Type             X           Y           Z
 ---------------------------------------------------------------------
      1          6           0       -4.012694    0.356520   -0.189077
      2          6           0       -2.674060    0.838375   -0.262219
      3          6           0       -1.727969   -0.121050   -0.008563
      4          6           0       -4.066419   -0.965276    0.124488
      5          1           0       -4.886718    0.970880   -0.367144
      6         16           0       -2.503535   -1.637367    0.347754
      7          1           0       -4.944135   -1.581863    0.243119
      8          6           0       -0.278687   -0.014074   -0.022507
      9         16           0        0.522884    1.495988    0.374614
     10          6           0        2.076081    0.753000    0.207500
     11          6           0        1.955432   -0.579477   -0.133459
     12          6           0        0.613582   -1.021641   -0.270580
     13          1           0        0.315352   -2.023583   -0.547827
     14         16           0        3.513007   -1.311349   -0.327035
     15          6           0        4.295565    0.192890    0.054536
     16          6           0        3.423675    1.203183    0.312955
     17          1           0        5.374278    0.237385    0.067997
     18          1           0        3.728195    2.208400    0.568259
     19          8           0       -2.327214    2.116355   -0.560014
     20          1           0       -3.114001    2.646895   -0.688067
 ---------------------------------------------------------------------

 The electronic state is 1-A.
 Alpha  occ. eigenvalues --  -89.05352 -89.04554 -89.04361 -19.29403 -10.36199
 Alpha  occ. eigenvalues --  -10.33513 -10.32827 -10.32647 -10.31830 -10.31805
 Alpha  occ. eigenvalues --  -10.31675 -10.30518 -10.30018 -10.29862  -8.09421
 Alpha  occ. eigenvalues --   -8.08599  -8.08385  -6.04263  -6.03879  -6.03501
 Alpha  occ. eigenvalues --   -6.03449  -6.03247  -6.03077  -6.02866  -6.02660
 Alpha  occ. eigenvalues --   -6.02423  -1.18536  -1.01702  -0.99849  -0.94927
 Alpha  occ. eigenvalues --   -0.86975  -0.86004  -0.84150  -0.80505  -0.79868
 Alpha  occ. eigenvalues --   -0.71072  -0.70432  -0.66272  -0.65093  -0.62206
 Alpha  occ. eigenvalues --   -0.60985  -0.58045  -0.57290  -0.53613  -0.52850
 Alpha  occ. eigenvalues --   -0.52052  -0.50147  -0.49161  -0.47382  -0.46927
 Alpha  occ. eigenvalues --   -0.45980  -0.45262  -0.44657  -0.43582  -0.42557
 Alpha  occ. eigenvalues --   -0.41267  -0.36603  -0.34306  -0.32137  -0.30163
 Alpha  occ. eigenvalues --   -0.26950
 Alpha virt. eigenvalues --    0.01027   0.04872   0.05516   0.05897   0.06095
 Alpha virt. eigenvalues --    0.06664   0.07500   0.08066   0.08412   0.09170
 Alpha virt. eigenvalues --    0.09381   0.09674   0.09960   0.10340   0.10752

 Mulliken charges:
               1
     1  C   -0.262079
     2  C   -0.026035
     3  C    0.592805
     4  C   -0.131411
     5  H    0.145131
     6  S   -0.461903
     7  H    0.190207
     8  C    0.323894
     9  S   -0.440796
    10  C    0.397792
    11  C    0.159774
    12  C   -0.104903
    13  H    0.165749
    14  S   -0.469843
    15  C   -0.137271
    16  C   -0.317100
    17  H    0.191347
    18  H    0.160223
    19  O   -0.247929
    20  H    0.272347
 Sum of Mulliken charges =  -0.00000

 Dipole moment (field-independent basis, Debye):
    X=             -2.3950    Y=              0.8964    Z=             -0.2256  Tot=              2.5672
 Quadrupole moment (field-independent basis, Debye-Ang):
   XX=            -76.3014   YY=            -94.1889   ZZ=           -107.5093
   XY=             -1.4781   XZ=              2.4971   YZ=              0.0947

 Normal termination of Gaussian 16 at Tue Oct 26 00:13:56 2021.
