 Gaussian 16, Revision C.01,
 Gaussian 16:  ES64L-G16RevC.01  3-Jul-2019

 --------------------------------------
 # opt=modredundant wb97xd/6-311+g(d,p)
 --------------------------------------

 -------------
 pBTTT_135.pdb
 -------------
 Symbolic Z-matrix:
 Charge =  0 Multiplicity = 1

 SCF Done:  E(RwB97XD) =  -1654.30013700     A.U. after   19 cycles
 SCF Done:  E(RwB97XD) =  -1654.35868582     A.U. after   16 cycles
 SCF Done:  E(RwB97XD) =  -1654.39847362     A.U. after   17 cycles
 SCF Done:  E(RwB97XD) =  -1654.40832998     A.U. after   16 cycles
 SCF Done:  E(RwB97XD) =  -1654.41080170     A.U. after   16 cycles
 SCF Done:  E(RwB97XD) =  -1654.41142545     A.U. after   14 cycles
 SCF Done:  E(RwB97XD) =  -1654.41153518     A.U. after   14 cycles
 SCF Done:  E(RwB97XD) =  -1654.41169370     A.U. after   13 cycles
 SCF Done:  E(RwB97XD) =  -1654.41170564     A.U. after   13 cycles
 SCF Done:  E(RwB97XD) =  -1654.41171686     A.U. after   12 cycles
 SCF Done:  E(RwB97XD) =  -1654.41171898     A.U. after   11 cycles
 SCF Done:  E(RwB97XD) =  -1654.41171959     A.U. after   10 cycles
 Optimization completed.
    -- Stationary point found.

                         Standard orientation:
 ---------------------------------------------------------------------
 Center     Atomic      Atomic             Coordinates (Angstroms)
 Number     Number       Type             X           Y           Z
 ---------------------------------------------------------------------
      1          6           0       -3.909621    0.840865    0.207711
      2          6           0       -2.510324    1.091668    0.308405
      3          6           0       -1.734376    0.031743   -0.083282
      4          6           0       -4.175435   -0.410345   -0.254182
      5          1           0       -4.673971    1.561852    0.470515
      6         16           0       -2.742923   -1.291300   -0.592072
      7          1           0       -5.141507   -0.860017   -0.425100
      8          6           0       -0.282945   -0.054811   -0.070348
      9         16           0        0.518027   -1.494004    0.540597
     10          6           0        2.072466   -0.782500    0.272938
     11          6           0        1.947250    0.497807   -0.229577
     12          6           0        0.604254    0.917662   -0.430265
     13          1           0        0.295269    1.878883   -0.814387
     14         16           0        3.503246    1.210692   -0.491851
     15          6           0        4.289438   -0.229617    0.078575
     16          6           0        3.420476   -1.206897    0.450150
     17          1           0        5.368184   -0.266016    0.106552
     18          1           0        3.727394   -2.171023    0.830281
     19          8           0       -1.963666    2.258052    0.738415
     20          1           0       -2.646742    2.812239    1.117290
 ---------------------------------------------------------------------

 The electronic state is 1-A.
 Alpha  occ. eigenvalues --  -89.05284 -89.04638 -89.04549 -19.29258 -10.36125
 Alpha  occ. eigenvalues --  -10.33291 -10.32753 -10.32491 -10.31941 -10.31902
 Alpha  occ. eigenvalues --  -10.31878 -10.30430 -10.30126 -10.29792  -8.09351
 Alpha  occ. eigenvalues --   -8.08684  -8.08598  -6.04189  -6.03806  -6.03532
 Alpha  occ. eigenvalues --   -6.03454  -6.03439  -6.03160  -6.03084  -6.02748
 Alpha  occ. eigenvalues --   -6.02639  -1.18351  -1.01760  -0.99779  -0.94974
 Alpha  occ. eigenvalues --   -0.86960  -0.86005  -0.84057  -0.80587  -0.79822
 Alpha  occ. eigenvalues --   -0.71023  -0.70229  -0.66123  -0.64989  -0.62824
 Alpha  occ. eigenvalues --   -0.60706  -0.58024  -0.57110  -0.53672  -0.52706
 Alpha  occ. eigenvalues --   -0.51891  -0.50124  -0.49189  -0.47674  -0.46952
 Alpha  occ. eigenvalues --   -0.45842  -0.44849  -0.44532  -0.43897  -0.42362
 Alpha  occ. eigenvalues --   -0.41585  -0.36566  -0.34008  -0.31979  -0.30319
 Alpha  occ. eigenvalues --   -0.27414
 Alpha virt. eigenvalues --    0.01420   0.04633   0.05165   0.06085   0.06250
 Alpha virt. eigenvalues --    0.06904   0.07503   0.07567   0.08248   0.09021
 Alpha virt. eigenvalues --    0.09437   0.09610   0.09789   0.10315   0.10758

 Mulliken charges:
               1
     1  C   -0.234005
     2  C   -0.239727
     3  C    0.548216
     4  C   -0.185071
     5  H    0.146609
     6  S   -0.361385
     7  H    0.190015
     8  C    0.561518
     9  S   -0.526879
    10  C    0.422671
    11  C    0.128780
    12  C   -0.027240
    13  H    0.169383
    14  S   -0.450616
    15  C   -0.132939
    16  C   -0.375883
    17  H    0.191847
    18  H    0.160961
    19  O   -0.253915
    20  H    0.267661
 Sum of Mulliken charges =  -0.00000

 Dipole moment (field-independent basis, Debye):
    X=             -2.0533    Y=              0.9952    Z=              0.6268  Tot=              2.3663
 Quadrupole moment (field-independent basis, Debye-Ang):
   XX=            -78.0881   YY=            -94.7639   ZZ=           -105.6460
   XY=             -8.8884   XZ=             -1.2296   YZ=              0.8890

 Normal termination of Gaussian 16 at Tue Oct 26 00:29:56 2021.
