 Gaussian 16, Revision C.01,
 Gaussian 16:  ES64L-G16RevC.01  3-Jul-2019

 --------------------------------------
 # opt=modredundant wb97xd/6-311+g(d,p)
 --------------------------------------

 ------------
 pBTTT_65.pdb
 ------------
 Symbolic Z-matrix:
 Charge =  0 Multiplicity = 1

 SCF Done:  E(RwB97XD) =  -1654.29884328     A.U. after   18 cycles
 SCF Done:  E(RwB97XD) =  -1654.35738156     A.U. after   15 cycles
 SCF Done:  E(RwB97XD) =  -1654.39743118     A.U. after   16 cycles
 SCF Done:  E(RwB97XD) =  -1654.40724262     A.U. after   15 cycles
 SCF Done:  E(RwB97XD) =  -1654.40973062     A.U. after   15 cycles
 SCF Done:  E(RwB97XD) =  -1654.41037869     A.U. after   14 cycles
 SCF Done:  E(RwB97XD) =  -1654.41058078     A.U. after   14 cycles
 SCF Done:  E(RwB97XD) =  -1654.41075050     A.U. after   13 cycles
 SCF Done:  E(RwB97XD) =  -1654.41076555     A.U. after   13 cycles
 SCF Done:  E(RwB97XD) =  -1654.41077531     A.U. after   12 cycles
 SCF Done:  E(RwB97XD) =  -1654.41077579     A.U. after   11 cycles
 SCF Done:  E(RwB97XD) =  -1654.41077680     A.U. after   11 cycles
 Optimization completed.
    -- Stationary point found.

                         Standard orientation:
 ---------------------------------------------------------------------
 Center     Atomic      Atomic             Coordinates (Angstroms)
 Number     Number       Type             X           Y           Z
 ---------------------------------------------------------------------
      1          6           0        3.994393    0.339485    0.414264
      2          6           0        2.641645    0.762803    0.567609
      3          6           0        1.733816   -0.097726    0.010667
      4          6           0        4.090420   -0.841413   -0.254786
      5          1           0        4.847400    0.889199    0.793010
      6         16           0        2.554429   -1.447768   -0.715344
      7          1           0        4.988345   -1.386504   -0.503193
      8          6           0        0.277163   -0.009202    0.007195
      9         16           0       -0.528108    1.300457   -0.835889
     10          6           0       -2.079351    0.652137   -0.432551
     11          6           0       -1.952587   -0.515815    0.294659
     12          6           0       -0.606933   -0.898591    0.545693
     13          1           0       -0.295744   -1.771921    1.102179
     14         16           0       -3.506676   -1.159936    0.705465
     15          6           0       -4.295788    0.156501   -0.108094
     16          6           0       -3.429845    1.044920   -0.663162
     17          1           0       -5.374763    0.192947   -0.127902
     18          1           0       -3.739705    1.925624   -1.207766
     19          8           0        2.250505    1.893573    1.206132
     20          1           0        3.018517    2.359424    1.537948
 ---------------------------------------------------------------------

 The electronic state is 1-A.
 Alpha  occ. eigenvalues --  -89.05208 -89.04674 -89.04392 -19.29049 -10.36065
 Alpha  occ. eigenvalues --  -10.33268 -10.32689 -10.32249 -10.31960 -10.31938
 Alpha  occ. eigenvalues --  -10.31876 -10.30342 -10.30124 -10.30064  -8.09266
 Alpha  occ. eigenvalues --   -8.08720  -8.08431  -6.04101  -6.03720  -6.03569
 Alpha  occ. eigenvalues --   -6.03359  -6.03286  -6.03196  -6.02912  -6.02782
 Alpha  occ. eigenvalues --   -6.02478  -1.18216  -1.01740  -0.99685  -0.94964
 Alpha  occ. eigenvalues --   -0.86878  -0.85939  -0.83937  -0.80593  -0.79876
 Alpha  occ. eigenvalues --   -0.70922  -0.70121  -0.66224  -0.64876  -0.62620
 Alpha  occ. eigenvalues --   -0.60834  -0.58078  -0.57040  -0.53540  -0.52567
 Alpha  occ. eigenvalues --   -0.51952  -0.49996  -0.49479  -0.47362  -0.46961
 Alpha  occ. eigenvalues --   -0.45759  -0.45047  -0.44421  -0.43923  -0.42034
 Alpha  occ. eigenvalues --   -0.41589  -0.36453  -0.33548  -0.31399  -0.30251
 Alpha  occ. eigenvalues --   -0.28263
 Alpha virt. eigenvalues --    0.02007   0.04514   0.05021   0.05985   0.06101
 Alpha virt. eigenvalues --    0.06604   0.07428   0.07490   0.08153   0.09185
 Alpha virt. eigenvalues --    0.09276   0.09605   0.09822   0.10190   0.10800

 Mulliken charges:
               1
     1  C   -0.084225
     2  C   -0.473628
     3  C    0.338914
     4  C   -0.274318
     5  H    0.145693
     6  S   -0.177889
     7  H    0.190393
     8  C    0.511279
     9  S   -0.474400
    10  C    0.315649
    11  C   -0.572796
    12  C    0.513886
    13  H    0.167519
    14  S   -0.435548
    15  C   -0.208459
    16  C    0.147413
    17  H    0.192033
    18  H    0.161416
    19  O   -0.249649
    20  H    0.266718
 Sum of Mulliken charges =  -0.00000

 Dipole moment (field-independent basis, Debye):
    X=              2.1266    Y=              0.6751    Z=              0.5412  Tot=              2.2958
 Quadrupole moment (field-independent basis, Debye-Ang):
   XX=            -76.6668   YY=            -97.3750   ZZ=           -103.9608
   XY=              1.0989   XZ=              5.4979   YZ=              0.0646

 Normal termination of Gaussian 16 at Tue Oct 26 00:14:36 2021.
