 Gaussian 16, Revision C.01,
 Gaussian 16:  ES64L-G16RevC.01  3-Jul-2019

 --------------------------------------
 # opt=modredundant wb97xd/6-311+g(d,p)
 --------------------------------------

 ------------
 pBTTT_-5.pdb
 ------------
 Symbolic Z-matrix:
 Charge =  0 Multiplicity = 1

 SCF Done:  E(RwB97XD) =  -1654.30264472     A.U. after   19 cycles
 SCF Done:  E(RwB97XD) =  -1654.36069614     A.U. after   17 cycles
 SCF Done:  E(RwB97XD) =  -1654.39918193     A.U. after   17 cycles
 SCF Done:  E(RwB97XD) =  -1654.40873903     A.U. after   17 cycles
 SCF Done:  E(RwB97XD) =  -1654.41095141     A.U. after   14 cycles
 SCF Done:  E(RwB97XD) =  -1654.41154998     A.U. after   14 cycles
 SCF Done:  E(RwB97XD) =  -1654.41163497     A.U. after   14 cycles
 SCF Done:  E(RwB97XD) =  -1654.41181780     A.U. after   13 cycles
 SCF Done:  E(RwB97XD) =  -1654.41184258     A.U. after   13 cycles
 SCF Done:  E(RwB97XD) =  -1654.41185134     A.U. after   11 cycles
 SCF Done:  E(RwB97XD) =  -1654.41185353     A.U. after   11 cycles
 SCF Done:  E(RwB97XD) =  -1654.41185391     A.U. after   10 cycles
 SCF Done:  E(RwB97XD) =  -1654.41185396     A.U. after    9 cycles
 Optimization completed.
    -- Stationary point found.

                         Standard orientation:
 ---------------------------------------------------------------------
 Center     Atomic      Atomic             Coordinates (Angstroms)
 Number     Number       Type             X           Y           Z
 ---------------------------------------------------------------------
      1          6           0       -4.014269    0.379995    0.026532
      2          6           0       -2.672627    0.859048    0.047108
      3          6           0       -1.726974   -0.133580    0.008015
      4          6           0       -4.072769   -0.975892   -0.030299
      5          1           0       -4.885656    1.022352    0.056093
      6         16           0       -2.510193   -1.687756   -0.059224
      7          1           0       -4.951807   -1.601292   -0.055251
      8          6           0       -0.279158   -0.025696    0.011015
      9         16           0        0.520789    1.537891   -0.060241
     10          6           0        2.075129    0.778135   -0.037537
     11          6           0        1.958161   -0.595614    0.023444
     12          6           0        0.618168   -1.059663    0.053356
     13          1           0        0.328143   -2.100394    0.105422
     14         16           0        3.517809   -1.348495    0.054436
     15          6           0        4.296552    0.204327   -0.015446
     16          6           0        3.421430    1.243533   -0.059195
     17          1           0        5.375120    0.253401   -0.020714
     18          1           0        3.723269    2.280459   -0.105290
     19          8           0       -2.320934    2.168612    0.108474
     20          1           0       -3.097926    2.722777    0.030446
 ---------------------------------------------------------------------

 The electronic state is 1-A.
 Alpha  occ. eigenvalues --  -89.05403 -89.04469 -89.04334 -19.29636 -10.36298
 Alpha  occ. eigenvalues --  -10.33603 -10.32946 -10.32841 -10.31764 -10.31706
 Alpha  occ. eigenvalues --  -10.31499 -10.30614 -10.29940 -10.29765  -8.09479
 Alpha  occ. eigenvalues --   -8.08514  -8.08344  -6.04326  -6.03941  -6.03551
 Alpha  occ. eigenvalues --   -6.03364  -6.03208  -6.02992  -6.02823  -6.02574
 Alpha  occ. eigenvalues --   -6.02379  -1.18755  -1.01646  -0.99910  -0.94875
 Alpha  occ. eigenvalues --   -0.87003  -0.86015  -0.84247  -0.80445  -0.79855
 Alpha  occ. eigenvalues --   -0.71131  -0.70600  -0.66301  -0.65182  -0.62015
 Alpha  occ. eigenvalues --   -0.61065  -0.58107  -0.57361  -0.53656  -0.53041
 Alpha  occ. eigenvalues --   -0.52057  -0.50142  -0.49110  -0.47374  -0.46919
 Alpha  occ. eigenvalues --   -0.46178  -0.45322  -0.44672  -0.43323  -0.42851
 Alpha  occ. eigenvalues --   -0.40974  -0.36715  -0.34510  -0.32317  -0.30151
 Alpha  occ. eigenvalues --   -0.26573
 Alpha virt. eigenvalues --    0.00748   0.04757   0.05707   0.05849   0.06118
 Alpha virt. eigenvalues --    0.06645   0.07507   0.08362   0.08621   0.08989
 Alpha virt. eigenvalues --    0.09415   0.09673   0.09929   0.10640   0.10979

 Mulliken charges:
               1
     1  C   -0.439546
     2  C    0.523419
     3  C    0.566338
     4  C   -0.197110
     5  H    0.145320
     6  S   -0.584831
     7  H    0.191020
     8  C    0.027293
     9  S   -0.441987
    10  C    0.064892
    11  C    0.426781
    12  C    0.050768
    13  H    0.161423
    14  S   -0.484348
    15  C   -0.171448
    16  C   -0.223562
    17  H    0.191230
    18  H    0.158763
    19  O   -0.244317
    20  H    0.279902
 Sum of Mulliken charges =  -0.00000

 Dipole moment (field-independent basis, Debye):
    X=             -2.5596    Y=              0.9998    Z=             -0.1246  Tot=              2.7508
 Quadrupole moment (field-independent basis, Debye-Ang):
   XX=            -76.3049   YY=            -93.2209   ZZ=           -108.4710
   XY=             -1.7015   XZ=              0.1267   YZ=             -0.5603

 Normal termination of Gaussian 16 at Tue Oct 26 00:04:34 2021.
