 Gaussian 16, Revision C.01,
 Gaussian 16:  ES64L-G16RevC.01  3-Jul-2019

 --------------------------------------
 # opt=modredundant wb97xd/6-311+g(d,p)
 --------------------------------------

 -------------
 pBTTT_175.pdb
 -------------
 Symbolic Z-matrix:
 Charge =  0 Multiplicity = 1

 SCF Done:  E(RwB97XD) =  -1654.30153245     A.U. after   19 cycles
 SCF Done:  E(RwB97XD) =  -1654.35979344     A.U. after   16 cycles
 SCF Done:  E(RwB97XD) =  -1654.39928681     A.U. after   18 cycles
 SCF Done:  E(RwB97XD) =  -1654.40881561     A.U. after   15 cycles
 SCF Done:  E(RwB97XD) =  -1654.41117915     A.U. after   16 cycles
 SCF Done:  E(RwB97XD) =  -1654.41179134     A.U. after   14 cycles
 SCF Done:  E(RwB97XD) =  -1654.41191250     A.U. after   15 cycles
 SCF Done:  E(RwB97XD) =  -1654.41210279     A.U. after   13 cycles
 SCF Done:  E(RwB97XD) =  -1654.41211076     A.U. after   13 cycles
 SCF Done:  E(RwB97XD) =  -1654.41212360     A.U. after   12 cycles
 SCF Done:  E(RwB97XD) =  -1654.41212619     A.U. after   11 cycles
 SCF Done:  E(RwB97XD) =  -1654.41212657     A.U. after   10 cycles
 Optimization completed.
    -- Stationary point found.

                         Standard orientation:
 ---------------------------------------------------------------------
 Center     Atomic      Atomic             Coordinates (Angstroms)
 Number     Number       Type             X           Y           Z
 ---------------------------------------------------------------------
      1          6           0        3.918135    0.882438   -0.021049
      2          6           0        2.521756    1.159677   -0.037136
      3          6           0        1.732815    0.036158    0.004498
      4          6           0        4.177585   -0.450429    0.035867
      5          1           0        4.685780    1.646050   -0.049949
      6         16           0        2.738396   -1.383450    0.075593
      7          1           0        5.139266   -0.939119    0.059629
      8          6           0        0.282991   -0.037951    0.001892
      9         16           0       -0.525706   -1.597908   -0.071968
     10          6           0       -2.079475   -0.836265   -0.033277
     11          6           0       -1.949900    0.536068    0.026156
     12          6           0       -0.607298    1.001078    0.047111
     13          1           0       -0.301427    2.034552    0.094270
     14         16           0       -3.504708    1.297717    0.062022
     15          6           0       -4.294676   -0.248276   -0.004151
     16          6           0       -3.427052   -1.294400   -0.050845
     17          1           0       -5.373534   -0.290350   -0.004300
     18          1           0       -3.735462   -2.329344   -0.095349
     19          8           0        1.989556    2.409046   -0.087987
     20          1           0        2.691940    3.055520   -0.165146
 ---------------------------------------------------------------------

 The electronic state is 1-A.
 Alpha  occ. eigenvalues --  -89.05415 -89.04574 -89.04546 -19.29765 -10.36271
 Alpha  occ. eigenvalues --  -10.33543 -10.32858 -10.32853 -10.31884 -10.31822
 Alpha  occ. eigenvalues --  -10.31812 -10.30576 -10.30091 -10.29488  -8.09492
 Alpha  occ. eigenvalues --   -8.08619  -8.08608  -6.04336  -6.03950  -6.03568
 Alpha  occ. eigenvalues --   -6.03471  -6.03467  -6.03100  -6.03095  -6.02683
 Alpha  occ. eigenvalues --   -6.02635  -1.18789  -1.01759  -0.99925  -0.94960
 Alpha  occ. eigenvalues --   -0.87025  -0.86079  -0.84234  -0.80532  -0.79838
 Alpha  occ. eigenvalues --   -0.71186  -0.70543  -0.66064  -0.65298  -0.62693
 Alpha  occ. eigenvalues --   -0.60775  -0.58208  -0.57052  -0.53728  -0.53008
 Alpha  occ. eigenvalues --   -0.51931  -0.50258  -0.49050  -0.47803  -0.47028
 Alpha  occ. eigenvalues --   -0.45809  -0.45410  -0.44675  -0.43467  -0.42868
 Alpha  occ. eigenvalues --   -0.41340  -0.36765  -0.34591  -0.32304  -0.30321
 Alpha  occ. eigenvalues --   -0.26623
 Alpha virt. eigenvalues --    0.00698   0.04565   0.05306   0.06123   0.06299
 Alpha virt. eigenvalues --    0.06959   0.07409   0.07659   0.08460   0.08752
 Alpha virt. eigenvalues --    0.09291   0.09608   0.09957   0.10780   0.10956

 Mulliken charges:
               1
     1  C   -0.425595
     2  C    0.550319
     3  C    0.518610
     4  C   -0.130299
     5  H    0.144535
     6  S   -0.579085
     7  H    0.189470
     8  C    0.025310
     9  S   -0.635757
    10  C    0.321280
    11  C    0.276166
    12  C    0.069181
    13  H    0.182446
    14  S   -0.454264
    15  C   -0.163933
    16  C   -0.257908
    17  H    0.192138
    18  H    0.159934
    19  O   -0.258812
    20  H    0.276264
 Sum of Mulliken charges =  -0.00000

 Dipole moment (field-independent basis, Debye):
    X=              2.2438    Y=              1.1680    Z=             -0.1130  Tot=              2.5322
 Quadrupole moment (field-independent basis, Debye-Ang):
   XX=            -77.5613   YY=            -92.0534   ZZ=           -108.4154
   XY=              9.9960   XZ=             -0.2929   YZ=             -0.3421

 Normal termination of Gaussian 16 at Tue Oct 26 00:50:54 2021.
