 Gaussian 16, Revision C.01,
 Gaussian 16:  ES64L-G16RevC.01  3-Jul-2019

 --------------------------------------
 # opt=modredundant wb97xd/6-311+g(d,p)
 --------------------------------------

 -------------
 pBTTT_-30.pdb
 -------------
 Symbolic Z-matrix:
 Charge =  0 Multiplicity = 1

 SCF Done:  E(RwB97XD) =  -1654.30231675     A.U. after   18 cycles
 SCF Done:  E(RwB97XD) =  -1654.36042210     A.U. after   16 cycles
 SCF Done:  E(RwB97XD) =  -1654.39921156     A.U. after   16 cycles
 SCF Done:  E(RwB97XD) =  -1654.40881584     A.U. after   17 cycles
 SCF Done:  E(RwB97XD) =  -1654.41099999     A.U. after   15 cycles
 SCF Done:  E(RwB97XD) =  -1654.41146844     A.U. after   14 cycles
 SCF Done:  E(RwB97XD) =  -1654.41159039     A.U. after   14 cycles
 SCF Done:  E(RwB97XD) =  -1654.41174585     A.U. after   14 cycles
 SCF Done:  E(RwB97XD) =  -1654.41176182     A.U. after   13 cycles
 SCF Done:  E(RwB97XD) =  -1654.41177531     A.U. after   12 cycles
 SCF Done:  E(RwB97XD) =  -1654.41177829     A.U. after   11 cycles
 SCF Done:  E(RwB97XD) =  -1654.41177864     A.U. after   10 cycles
 Optimization completed.
    -- Stationary point found.

                         Standard orientation:
 ---------------------------------------------------------------------
 Center     Atomic      Atomic             Coordinates (Angstroms)
 Number     Number       Type             X           Y           Z
 ---------------------------------------------------------------------
      1          6           0       -4.012721    0.356429    0.188933
      2          6           0       -2.674119    0.838367    0.262025
      3          6           0       -1.727969   -0.121065    0.008499
      4          6           0       -4.066372   -0.965365   -0.124701
      5          1           0       -4.886788    0.970735    0.366987
      6         16           0       -2.503439   -1.637415   -0.347778
      7          1           0       -4.944005   -1.582069   -0.243337
      8          6           0       -0.278708   -0.013956    0.022849
      9         16           0        0.522906    1.496103   -0.374310
     10          6           0        2.076088    0.752969   -0.207611
     11          6           0        1.955402   -0.579438    0.133558
     12          6           0        0.613547   -1.021431    0.271244
     13          1           0        0.315321   -2.023372    0.548510
     14         16           0        3.512974   -1.311408    0.326843
     15          6           0        4.295561    0.192848   -0.054658
     16          6           0        3.423690    1.203106   -0.313236
     17          1           0        5.374276    0.237360   -0.067973
     18          1           0        3.728229    2.208284   -0.568676
     19          8           0       -2.327299    2.116356    0.559925
     20          1           0       -3.114093    2.646945    0.687600
 ---------------------------------------------------------------------

 The electronic state is 1-A.
 Alpha  occ. eigenvalues --  -89.05352 -89.04554 -89.04361 -19.29403 -10.36199
 Alpha  occ. eigenvalues --  -10.33513 -10.32827 -10.32647 -10.31830 -10.31805
 Alpha  occ. eigenvalues --  -10.31675 -10.30518 -10.30018 -10.29862  -8.09421
 Alpha  occ. eigenvalues --   -8.08599  -8.08384  -6.04264  -6.03880  -6.03502
 Alpha  occ. eigenvalues --   -6.03449  -6.03247  -6.03076  -6.02866  -6.02660
 Alpha  occ. eigenvalues --   -6.02422  -1.18536  -1.01701  -0.99849  -0.94927
 Alpha  occ. eigenvalues --   -0.86975  -0.86004  -0.84150  -0.80505  -0.79868
 Alpha  occ. eigenvalues --   -0.71071  -0.70432  -0.66272  -0.65093  -0.62206
 Alpha  occ. eigenvalues --   -0.60986  -0.58045  -0.57290  -0.53613  -0.52850
 Alpha  occ. eigenvalues --   -0.52052  -0.50146  -0.49161  -0.47382  -0.46927
 Alpha  occ. eigenvalues --   -0.45981  -0.45262  -0.44657  -0.43582  -0.42557
 Alpha  occ. eigenvalues --   -0.41266  -0.36603  -0.34306  -0.32137  -0.30163
 Alpha  occ. eigenvalues --   -0.26950
 Alpha virt. eigenvalues --    0.01027   0.04873   0.05515   0.05897   0.06095
 Alpha virt. eigenvalues --    0.06664   0.07500   0.08066   0.08412   0.09170
 Alpha virt. eigenvalues --    0.09381   0.09674   0.09960   0.10340   0.10752

 Mulliken charges:
               1
     1  C   -0.262163
     2  C   -0.026527
     3  C    0.592967
     4  C   -0.131445
     5  H    0.145136
     6  S   -0.461804
     7  H    0.190216
     8  C    0.324113
     9  S   -0.440856
    10  C    0.397656
    11  C    0.160168
    12  C   -0.104403
    13  H    0.165737
    14  S   -0.469840
    15  C   -0.137333
    16  C   -0.317606
    17  H    0.191350
    18  H    0.160225
    19  O   -0.247942
    20  H    0.272349
 Sum of Mulliken charges =  -0.00000

 Dipole moment (field-independent basis, Debye):
    X=             -2.3951    Y=              0.8962    Z=              0.2250  Tot=              2.5671
 Quadrupole moment (field-independent basis, Debye-Ang):
   XX=            -76.3006   YY=            -94.1884   ZZ=           -107.5103
   XY=             -1.4773   XZ=             -2.4949   YZ=             -0.0970

 Normal termination of Gaussian 16 at Tue Oct 26 00:12:13 2021.
