 Gaussian 16, Revision C.01,
 Gaussian 16:  ES64L-G16RevC.01  3-Jul-2019

 --------------------------------------
 # opt=modredundant wb97xd/6-311+g(d,p)
 --------------------------------------

 -------------
 pBTTT_-95.pdb
 -------------
 Symbolic Z-matrix:
 Charge =  0 Multiplicity = 1

 SCF Done:  E(RwB97XD) =  -1654.29771227     A.U. after   17 cycles
 SCF Done:  E(RwB97XD) =  -1654.35650941     A.U. after   15 cycles
 SCF Done:  E(RwB97XD) =  -1654.39711108     A.U. after   16 cycles
 SCF Done:  E(RwB97XD) =  -1654.40680692     A.U. after   15 cycles
 SCF Done:  E(RwB97XD) =  -1654.40917510     A.U. after   15 cycles
 SCF Done:  E(RwB97XD) =  -1654.40972979     A.U. after   14 cycles
 SCF Done:  E(RwB97XD) =  -1654.40994387     A.U. after   14 cycles
 SCF Done:  E(RwB97XD) =  -1654.41011647     A.U. after   14 cycles
 SCF Done:  E(RwB97XD) =  -1654.41013162     A.U. after   14 cycles
 SCF Done:  E(RwB97XD) =  -1654.41015685     A.U. after   13 cycles
 SCF Done:  E(RwB97XD) =  -1654.41016114     A.U. after   12 cycles
 SCF Done:  E(RwB97XD) =  -1654.41016150     A.U. after   11 cycles
 SCF Done:  E(RwB97XD) =  -1654.41016164     A.U. after   11 cycles
 SCF Done:  E(RwB97XD) =  -1654.41016170     A.U. after   10 cycles
 Optimization completed.
    -- Stationary point found.

                         Standard orientation:
 ---------------------------------------------------------------------
 Center     Atomic      Atomic             Coordinates (Angstroms)
 Number     Number       Type             X           Y           Z
 ---------------------------------------------------------------------
      1          6           0        3.943226    0.681624    0.285495
      2          6           0        2.556331    0.901323    0.536452
      3          6           0        1.737817    0.015359   -0.109532
      4          6           0        4.151931   -0.375820   -0.544711
      5          1           0        4.738577    1.285001    0.705624
      6         16           0        2.684042   -1.112095   -1.036079
      7          1           0        5.097463   -0.758213   -0.898234
      8          6           0        0.278066   -0.047027   -0.060236
      9         16           0       -0.520206   -1.124895    1.070843
     10          6           0       -2.074603   -0.585242    0.540904
     11          6           0       -1.953334    0.375139   -0.445101
     12          6           0       -0.609456    0.683465   -0.792048
     13          1           0       -0.299977    1.406045   -1.534100
     14         16           0       -3.510421    0.917602   -0.974481
     15          6           0       -4.293061   -0.159581    0.140920
     16          6           0       -3.423350   -0.896705    0.880680
     17          1           0       -5.371796   -0.181777    0.183224
     18          1           0       -3.729147   -1.618235    1.625039
     19          8           0        2.056621    1.882051    1.327766
     20          1           0        2.775868    2.365763    1.734850
 ---------------------------------------------------------------------

 The electronic state is 1-A.
 Alpha  occ. eigenvalues --  -89.05107 -89.04704 -89.04437 -19.28989 -10.36049
 Alpha  occ. eigenvalues --  -10.33124 -10.32679 -10.32105 -10.32011 -10.31989
 Alpha  occ. eigenvalues --  -10.31905 -10.30283 -10.30159 -10.30086  -8.09167
 Alpha  occ. eigenvalues --   -8.08750  -8.08479  -6.04000  -6.03620  -6.03599
 Alpha  occ. eigenvalues --   -6.03330  -6.03263  -6.03226  -6.02959  -6.02813
 Alpha  occ. eigenvalues --   -6.02532  -1.18161  -1.01742  -0.99616  -0.94962
 Alpha  occ. eigenvalues --   -0.86849  -0.85908  -0.83861  -0.80617  -0.79861
 Alpha  occ. eigenvalues --   -0.70864  -0.70033  -0.66200  -0.64755  -0.62876
 Alpha  occ. eigenvalues --   -0.60734  -0.58093  -0.56963  -0.53559  -0.52517
 Alpha  occ. eigenvalues --   -0.51837  -0.49862  -0.49620  -0.47388  -0.47005
 Alpha  occ. eigenvalues --   -0.45791  -0.44901  -0.44268  -0.44027  -0.41887
 Alpha  occ. eigenvalues --   -0.41675  -0.36443  -0.33236  -0.30742  -0.30194
 Alpha  occ. eigenvalues --   -0.29216
 Alpha virt. eigenvalues --    0.02680   0.03732   0.04996   0.06012   0.06226
 Alpha virt. eigenvalues --    0.06657   0.07383   0.07507   0.08056   0.09034
 Alpha virt. eigenvalues --    0.09252   0.09469   0.09865   0.10307   0.10829

 Mulliken charges:
               1
     1  C   -0.153066
     2  C   -0.333681
     3  C    0.271862
     4  C   -0.205759
     5  H    0.146330
     6  S   -0.139170
     7  H    0.189814
     8  C    0.219259
     9  S   -0.502055
    10  C    0.263681
    11  C   -0.495443
    12  C    0.615778
    13  H    0.161048
    14  S   -0.429032
    15  C   -0.208167
    16  C    0.205693
    17  H    0.192228
    18  H    0.161593
    19  O   -0.233551
    20  H    0.272638
 Sum of Mulliken charges =  -0.00000

 Dipole moment (field-independent basis, Debye):
    X=              1.9731    Y=              0.8500    Z=              0.6168  Tot=              2.2352
 Quadrupole moment (field-independent basis, Debye-Ang):
   XX=            -77.5415   YY=            -99.5076   ZZ=           -101.1575
   XY=              7.4872   XZ=              0.6456   YZ=              0.2665

 Normal termination of Gaussian 16 at Tue Oct 26 00:02:14 2021.
