 Gaussian 16, Revision C.01,
 Gaussian 16:  ES64L-G16RevC.01  3-Jul-2019

 --------------------------------------
 # opt=modredundant wb97xd/6-311+g(d,p)
 --------------------------------------

 -------------
 pBTTT_-45.pdb
 -------------
 Symbolic Z-matrix:
 Charge =  0 Multiplicity = 1

 SCF Done:  E(RwB97XD) =  -1654.30122384     A.U. after   18 cycles
 SCF Done:  E(RwB97XD) =  -1654.35956955     A.U. after   15 cycles
 SCF Done:  E(RwB97XD) =  -1654.39879875     A.U. after   16 cycles
 SCF Done:  E(RwB97XD) =  -1654.40844309     A.U. after   16 cycles
 SCF Done:  E(RwB97XD) =  -1654.41066623     A.U. after   16 cycles
 SCF Done:  E(RwB97XD) =  -1654.41113988     A.U. after   14 cycles
 SCF Done:  E(RwB97XD) =  -1654.41130570     A.U. after   14 cycles
 SCF Done:  E(RwB97XD) =  -1654.41145737     A.U. after   14 cycles
 SCF Done:  E(RwB97XD) =  -1654.41146533     A.U. after   13 cycles
 SCF Done:  E(RwB97XD) =  -1654.41148020     A.U. after   13 cycles
 SCF Done:  E(RwB97XD) =  -1654.41148392     A.U. after   11 cycles
 SCF Done:  E(RwB97XD) =  -1654.41148422     A.U. after   10 cycles
 Optimization completed.
    -- Stationary point found.

                         Standard orientation:
 ---------------------------------------------------------------------
 Center     Atomic      Atomic             Coordinates (Angstroms)
 Number     Number       Type             X           Y           Z
 ---------------------------------------------------------------------
      1          6           0       -4.007105    0.345598    0.284796
      2          6           0       -2.665767    0.814641    0.389783
      3          6           0       -1.730040   -0.109598    0.004556
      4          6           0       -4.070611   -0.931566   -0.178986
      5          1           0       -4.876287    0.935023    0.549939
      6         16           0       -2.514888   -1.574238   -0.508278
      7          1           0       -4.953261   -1.528245   -0.351378
      8          6           0       -0.278285   -0.008674    0.017815
      9         16           0        0.525441    1.435149   -0.569406
     10          6           0        2.077550    0.720770   -0.301183
     11          6           0        1.953272   -0.560011    0.200499
     12          6           0        0.609425   -0.980651    0.386880
     13          1           0        0.304210   -1.939408    0.783268
     14         16           0        3.509035   -1.264872    0.486833
     15          6           0        4.295295    0.180178   -0.072649
     16          6           0        3.426532    1.152675   -0.456088
     17          1           0        5.374150    0.221345   -0.087128
     18          1           0        3.733909    2.118580   -0.831390
     19          8           0       -2.308371    2.046168    0.833854
     20          1           0       -3.090772    2.546577    1.066952
 ---------------------------------------------------------------------

 The electronic state is 1-A.
 Alpha  occ. eigenvalues --  -89.05303 -89.04612 -89.04374 -19.29214 -10.36126
 Alpha  occ. eigenvalues --  -10.33416 -10.32751 -10.32475 -10.31881 -10.31878
 Alpha  occ. eigenvalues --  -10.31789 -10.30439 -10.30071 -10.29954  -8.09366
 Alpha  occ. eigenvalues --   -8.08658  -8.08407  -6.04205  -6.03822  -6.03507
 Alpha  occ. eigenvalues --   -6.03453  -6.03266  -6.03135  -6.02889  -6.02719
 Alpha  occ. eigenvalues --   -6.02448  -1.18364  -1.01729  -0.99784  -0.94954
 Alpha  occ. eigenvalues --   -0.86937  -0.85983  -0.84060  -0.80549  -0.79873
 Alpha  occ. eigenvalues --   -0.71010  -0.70284  -0.66248  -0.65002  -0.62382
 Alpha  occ. eigenvalues --   -0.60919  -0.58044  -0.57185  -0.53574  -0.52702
 Alpha  occ. eigenvalues --   -0.52032  -0.50109  -0.49273  -0.47376  -0.46934
 Alpha  occ. eigenvalues --   -0.45841  -0.45167  -0.44581  -0.43760  -0.42322
 Alpha  occ. eigenvalues --   -0.41446  -0.36519  -0.34027  -0.31930  -0.30188
 Alpha  occ. eigenvalues --   -0.27402
 Alpha virt. eigenvalues --    0.01371   0.04916   0.05266   0.05958   0.06064
 Alpha virt. eigenvalues --    0.06654   0.07472   0.07745   0.08315   0.09282
 Alpha virt. eigenvalues --    0.09327   0.09679   0.09896   0.10151   0.10759

 Mulliken charges:
               1
     1  C   -0.211423
     2  C   -0.353714
     3  C    0.633115
     4  C   -0.158248
     5  H    0.145418
     6  S   -0.358784
     7  H    0.190323
     8  C    0.730175
     9  S   -0.408182
    10  C    0.460395
    11  C    0.004375
    12  C   -0.276249
    13  H    0.168802
    14  S   -0.458211
    15  C   -0.143375
    16  C   -0.337254
    17  H    0.191617
    18  H    0.161039
    19  O   -0.247396
    20  H    0.267576
 Sum of Mulliken charges =  -0.00000

 Dipole moment (field-independent basis, Debye):
    X=             -2.2659    Y=              0.7928    Z=              0.3903  Tot=              2.4321
 Quadrupole moment (field-independent basis, Debye-Ang):
   XX=            -76.4436   YY=            -95.3474   ZZ=           -106.2444
   XY=             -1.2314   XZ=             -3.9040   YZ=              0.0480

 Normal termination of Gaussian 16 at Tue Oct 26 00:12:36 2021.
