 Gaussian 16, Revision C.01,
 Gaussian 16:  ES64L-G16RevC.01  3-Jul-2019

 --------------------------------------
 # opt=modredundant wb97xd/6-311+g(d,p)
 --------------------------------------

 -------------
 pBTTT_140.pdb
 -------------
 Symbolic Z-matrix:
 Charge =  0 Multiplicity = 1

 SCF Done:  E(RwB97XD) =  -1654.30031220     A.U. after   19 cycles
 SCF Done:  E(RwB97XD) =  -1654.35886212     A.U. after   16 cycles
 SCF Done:  E(RwB97XD) =  -1654.39868641     A.U. after   17 cycles
 SCF Done:  E(RwB97XD) =  -1654.40853651     A.U. after   16 cycles
 SCF Done:  E(RwB97XD) =  -1654.41101195     A.U. after   16 cycles
 SCF Done:  E(RwB97XD) =  -1654.41162761     A.U. after   14 cycles
 SCF Done:  E(RwB97XD) =  -1654.41174393     A.U. after   14 cycles
 SCF Done:  E(RwB97XD) =  -1654.41190791     A.U. after   13 cycles
 SCF Done:  E(RwB97XD) =  -1654.41191776     A.U. after   13 cycles
 SCF Done:  E(RwB97XD) =  -1654.41193111     A.U. after   12 cycles
 SCF Done:  E(RwB97XD) =  -1654.41193331     A.U. after   11 cycles
 SCF Done:  E(RwB97XD) =  -1654.41193387     A.U. after   10 cycles
 Optimization completed.
    -- Stationary point found.

                         Standard orientation:
 ---------------------------------------------------------------------
 Center     Atomic      Atomic             Coordinates (Angstroms)
 Number     Number       Type             X           Y           Z
 ---------------------------------------------------------------------
      1          6           0       -3.910962    0.849382    0.184262
      2          6           0       -2.512293    1.105632    0.276154
      3          6           0       -1.733961    0.031969   -0.072421
      4          6           0       -4.175048   -0.418736   -0.229685
      5          1           0       -4.676225    1.579217    0.418422
      6         16           0       -2.740934   -1.309887   -0.533037
      7          1           0       -5.140174   -0.876231   -0.384173
      8          6           0       -0.283115   -0.051542   -0.059682
      9         16           0        0.519608   -1.515252    0.487982
     10          6           0        2.073597   -0.793813    0.244513
     11          6           0        1.946958    0.506031   -0.204202
     12          6           0        0.603769    0.934813   -0.382812
     13          1           0        0.294975    1.910750   -0.727424
     14         16           0        3.502316    1.229018   -0.441246
     15          6           0        4.290014   -0.233682    0.067056
     16          6           0        3.421793   -1.225273    0.400703
     17          1           0        5.368820   -0.271391    0.090120
     18          1           0        3.729509   -2.204310    0.739870
     19          8           0       -1.968188    2.289492    0.660024
     20          1           0       -2.651737    2.855284    1.020492
 ---------------------------------------------------------------------

 The electronic state is 1-A.
 Alpha  occ. eigenvalues --  -89.05308 -89.04629 -89.04557 -19.29322 -10.36138
 Alpha  occ. eigenvalues --  -10.33329 -10.32763 -10.32552 -10.31934 -10.31890
 Alpha  occ. eigenvalues --  -10.31871 -10.30451 -10.30122 -10.29750  -8.09376
 Alpha  occ. eigenvalues --   -8.08675  -8.08608  -6.04215  -6.03832  -6.03523
 Alpha  occ. eigenvalues --   -6.03465  -6.03463  -6.03151  -6.03095  -6.02739
 Alpha  occ. eigenvalues --   -6.02647  -1.18400  -1.01765  -0.99804  -0.94977
 Alpha  occ. eigenvalues --   -0.86974  -0.86021  -0.84085  -0.80582  -0.79822
 Alpha  occ. eigenvalues --   -0.71049  -0.70269  -0.66115  -0.65037  -0.62804
 Alpha  occ. eigenvalues --   -0.60713  -0.58037  -0.57114  -0.53685  -0.52745
 Alpha  occ. eigenvalues --   -0.51899  -0.50155  -0.49148  -0.47711  -0.46963
 Alpha  occ. eigenvalues --   -0.45837  -0.44877  -0.44581  -0.43850  -0.42438
 Alpha  occ. eigenvalues --   -0.41558  -0.36598  -0.34121  -0.32050  -0.30332
 Alpha  occ. eigenvalues --   -0.27255
 Alpha virt. eigenvalues --    0.01286   0.04661   0.05210   0.06079   0.06263
 Alpha virt. eigenvalues --    0.06922   0.07526   0.07553   0.08273   0.08971
 Alpha virt. eigenvalues --    0.09475   0.09639   0.09759   0.10367   0.10774

 Mulliken charges:
               1
     1  C   -0.237325
     2  C   -0.206251
     3  C    0.541930
     4  C   -0.178131
     5  H    0.146544
     6  S   -0.382589
     7  H    0.189894
     8  C    0.531419
     9  S   -0.544681
    10  C    0.439199
    11  C    0.129552
    12  C   -0.006983
    13  H    0.171028
    14  S   -0.452091
    15  C   -0.134424
    16  C   -0.371736
    17  H    0.191851
    18  H    0.160796
    19  O   -0.256708
    20  H    0.268704
 Sum of Mulliken charges =  -0.00000

 Dipole moment (field-independent basis, Debye):
    X=             -2.0749    Y=              1.0135    Z=              0.5877  Tot=              2.3828
 Quadrupole moment (field-independent basis, Debye-Ang):
   XX=            -78.0423   YY=            -94.3233   ZZ=           -106.1088
   XY=             -9.0493   XZ=             -1.1985   YZ=              0.9442

 Normal termination of Gaussian 16 at Tue Oct 26 00:30:06 2021.
