 Gaussian 16, Revision C.01,
 Gaussian 16:  ES64L-G16RevC.01  3-Jul-2019

 --------------------------------------
 # opt=modredundant wb97xd/6-311+g(d,p)
 --------------------------------------

 --------------
 pBTTT_-110.pdb
 --------------
 Symbolic Z-matrix:
 Charge =  0 Multiplicity = 1

 SCF Done:  E(RwB97XD) =  -1654.29822961     A.U. after   18 cycles
 SCF Done:  E(RwB97XD) =  -1654.35688816     A.U. after   15 cycles
 SCF Done:  E(RwB97XD) =  -1654.39732574     A.U. after   16 cycles
 SCF Done:  E(RwB97XD) =  -1654.40707383     A.U. after   15 cycles
 SCF Done:  E(RwB97XD) =  -1654.40950818     A.U. after   15 cycles
 SCF Done:  E(RwB97XD) =  -1654.41009739     A.U. after   14 cycles
 SCF Done:  E(RwB97XD) =  -1654.41029606     A.U. after   14 cycles
 SCF Done:  E(RwB97XD) =  -1654.41047257     A.U. after   14 cycles
 SCF Done:  E(RwB97XD) =  -1654.41049927     A.U. after   13 cycles
 SCF Done:  E(RwB97XD) =  -1654.41052401     A.U. after   13 cycles
 SCF Done:  E(RwB97XD) =  -1654.41052648     A.U. after   11 cycles
 SCF Done:  E(RwB97XD) =  -1654.41052725     A.U. after   11 cycles
 SCF Done:  E(RwB97XD) =  -1654.41052729     A.U. after   11 cycles
 Optimization completed.
    -- Stationary point found.

                         Standard orientation:
 ---------------------------------------------------------------------
 Center     Atomic      Atomic             Coordinates (Angstroms)
 Number     Number       Type             X           Y           Z
 ---------------------------------------------------------------------
      1          6           0        3.923040    0.755865    0.284910
      2          6           0        2.527455    0.979459    0.475977
      3          6           0        1.737092    0.025398   -0.106337
      4          6           0        4.167689   -0.372897   -0.433742
      5          1           0        4.699169    1.406365    0.669156
      6         16           0        2.722369   -1.169751   -0.898244
      7          1           0        5.126974   -0.775575   -0.721385
      8          6           0        0.280094   -0.057290   -0.077904
      9         16           0       -0.517976   -1.320993    0.842955
     10          6           0       -2.072727   -0.688845    0.426934
     11          6           0       -1.951003    0.440957   -0.359058
     12          6           0       -0.607662    0.803534   -0.650806
     13          1           0       -0.298843    1.650803   -1.246508
     14         16           0       -3.508005    1.074712   -0.774182
     15          6           0       -4.291026   -0.194489    0.116334
     16          6           0       -3.421080   -1.059671    0.701193
     17          1           0       -5.369709   -0.223109    0.155483
     18          1           0       -3.726709   -1.909565    1.294908
     19          8           0        1.997079    2.023672    1.160041
     20          1           0        2.699053    2.526091    1.574561
 ---------------------------------------------------------------------

 The electronic state is 1-A.
 Alpha  occ. eigenvalues --  -89.05146 -89.04688 -89.04483 -19.29028 -10.36073
 Alpha  occ. eigenvalues --  -10.33149 -10.32701 -10.32201 -10.31981 -10.31978
 Alpha  occ. eigenvalues --  -10.31902 -10.30318 -10.30152 -10.30002  -8.09207
 Alpha  occ. eigenvalues --   -8.08734  -8.08526  -6.04041  -6.03661  -6.03582
 Alpha  occ. eigenvalues --   -6.03378  -6.03302  -6.03210  -6.03008  -6.02797
 Alpha  occ. eigenvalues --   -6.02576  -1.18185  -1.01744  -0.99652  -0.94963
 Alpha  occ. eigenvalues --   -0.86881  -0.85929  -0.83906  -0.80609  -0.79844
 Alpha  occ. eigenvalues --   -0.70901  -0.70065  -0.66176  -0.64793  -0.62899
 Alpha  occ. eigenvalues --   -0.60707  -0.58061  -0.57011  -0.53598  -0.52547
 Alpha  occ. eigenvalues --   -0.51840  -0.49958  -0.49458  -0.47469  -0.46977
 Alpha  occ. eigenvalues --   -0.45819  -0.44854  -0.44310  -0.44019  -0.42005
 Alpha  occ. eigenvalues --   -0.41665  -0.36462  -0.33414  -0.31322  -0.30213
 Alpha  occ. eigenvalues --   -0.28530
 Alpha virt. eigenvalues --    0.02238   0.04113   0.04995   0.06069   0.06215
 Alpha virt. eigenvalues --    0.06741   0.07402   0.07570   0.08108   0.09109
 Alpha virt. eigenvalues --    0.09313   0.09398   0.09863   0.10266   0.10770

 Mulliken charges:
               1
     1  C   -0.207007
     2  C   -0.228704
     3  C    0.302828
     4  C   -0.187263
     5  H    0.146422
     6  S   -0.225815
     7  H    0.189946
     8  C    0.146230
     9  S   -0.561225
    10  C    0.216223
    11  C   -0.347862
    12  C    0.624936
    13  H    0.160880
    14  S   -0.433692
    15  C   -0.205984
    16  C    0.221675
    17  H    0.192051
    18  H    0.161213
    19  O   -0.232247
    20  H    0.267394
 Sum of Mulliken charges =  -0.00000

 Dipole moment (field-independent basis, Debye):
    X=              1.9762    Y=              0.9005    Z=              0.6622  Tot=              2.2704
 Quadrupole moment (field-independent basis, Debye-Ang):
   XX=            -77.8675   YY=            -97.5040   ZZ=           -102.9661
   XY=              8.0894   XZ=              1.0601   YZ=              0.4498

 Normal termination of Gaussian 16 at Mon Oct 25 23:46:23 2021.
