 Gaussian 16, Revision C.01,
 Gaussian 16:  ES64L-G16RevC.01  3-Jul-2019

 --------------------------------------
 # opt=modredundant wb97xd/6-311+g(d,p)
 --------------------------------------

 ------------
 pBTTT_75.pdb
 ------------
 Symbolic Z-matrix:
 Charge =  0 Multiplicity = 1

 SCF Done:  E(RwB97XD) =  -1654.29834015     A.U. after   18 cycles
 SCF Done:  E(RwB97XD) =  -1654.35696871     A.U. after   15 cycles
 SCF Done:  E(RwB97XD) =  -1654.39715122     A.U. after   16 cycles
 SCF Done:  E(RwB97XD) =  -1654.40692242     A.U. after   15 cycles
 SCF Done:  E(RwB97XD) =  -1654.40937464     A.U. after   15 cycles
 SCF Done:  E(RwB97XD) =  -1654.41001806     A.U. after   14 cycles
 SCF Done:  E(RwB97XD) =  -1654.41018757     A.U. after   14 cycles
 SCF Done:  E(RwB97XD) =  -1654.41035662     A.U. after   14 cycles
 SCF Done:  E(RwB97XD) =  -1654.41037184     A.U. after   13 cycles
 SCF Done:  E(RwB97XD) =  -1654.41038238     A.U. after   13 cycles
 SCF Done:  E(RwB97XD) =  -1654.41038575     A.U. after   11 cycles
 SCF Done:  E(RwB97XD) =  -1654.41038651     A.U. after   11 cycles
 SCF Done:  E(RwB97XD) =  -1654.41038660     A.U. after   11 cycles
 Optimization completed.
    -- Stationary point found.

                         Standard orientation:
 ---------------------------------------------------------------------
 Center     Atomic      Atomic             Coordinates (Angstroms)
 Number     Number       Type             X           Y           Z
 ---------------------------------------------------------------------
      1          6           0        3.981303    0.347461    0.488066
      2          6           0        2.617731    0.729464    0.657148
      3          6           0        1.735685   -0.098551    0.017194
      4          6           0        4.109806   -0.768554   -0.279606
      5          1           0        4.818061    0.879111    0.924416
      6         16           0        2.592747   -1.365911   -0.809203
      7          1           0        5.022016   -1.272639   -0.560624
      8          6           0        0.276735   -0.021519   -0.005071
      9         16           0       -0.526452    1.195772   -0.979084
     10          6           0       -2.078630    0.599624   -0.506032
     11          6           0       -1.953464   -0.483354    0.343028
     12          6           0       -0.608104   -0.842917    0.628944
     13          1           0       -0.296779   -1.653944    1.272633
     14         16           0       -3.508358   -1.077478    0.820780
     15          6           0       -4.295629    0.144719   -0.129841
     16          6           0       -3.428805    0.965988   -0.778797
     17          1           0       -5.374560    0.181238   -0.152355
     18          1           0       -3.737649    1.782905   -1.415577
     19          8           0        2.194169    1.793944    1.382212
     20          1           0        2.948795    2.259499    1.743733
 ---------------------------------------------------------------------

 The electronic state is 1-A.
 Alpha  occ. eigenvalues --  -89.05155 -89.04694 -89.04399 -19.29008 -10.36051
 Alpha  occ. eigenvalues --  -10.33199 -10.32677 -10.32159 -10.31992 -10.31964
 Alpha  occ. eigenvalues --  -10.31894 -10.30306 -10.30143 -10.30100  -8.09212
 Alpha  occ. eigenvalues --   -8.08740  -8.08440  -6.04047  -6.03665  -6.03588
 Alpha  occ. eigenvalues --   -6.03308  -6.03293  -6.03216  -6.02920  -6.02802
 Alpha  occ. eigenvalues --   -6.02490  -1.18181  -1.01741  -0.99642  -0.94963
 Alpha  occ. eigenvalues --   -0.86854  -0.85922  -0.83889  -0.80609  -0.79876
 Alpha  occ. eigenvalues --   -0.70887  -0.70069  -0.66217  -0.64819  -0.62729
 Alpha  occ. eigenvalues --   -0.60796  -0.58094  -0.56990  -0.53536  -0.52534
 Alpha  occ. eigenvalues --   -0.51900  -0.49919  -0.49583  -0.47360  -0.46984
 Alpha  occ. eigenvalues --   -0.45766  -0.44984  -0.44349  -0.43969  -0.41933
 Alpha  occ. eigenvalues --   -0.41630  -0.36443  -0.33351  -0.30968  -0.30310
 Alpha  occ. eigenvalues --   -0.28780
 Alpha virt. eigenvalues --    0.02366   0.04130   0.05007   0.05978   0.06164
 Alpha virt. eigenvalues --    0.06600   0.07399   0.07458   0.08088   0.09105
 Alpha virt. eigenvalues --    0.09251   0.09536   0.09871   0.10251   0.10871

 Mulliken charges:
               1
     1  C   -0.078307
     2  C   -0.502169
     3  C    0.337243
     4  C   -0.263914
     5  H    0.145887
     6  S   -0.147067
     7  H    0.190148
     8  C    0.491066
     9  S   -0.482364
    10  C    0.320435
    11  C   -0.546508
    12  C    0.474866
    13  H    0.165404
    14  S   -0.431595
    15  C   -0.207867
    16  C    0.162172
    17  H    0.192224
    18  H    0.161598
    19  O   -0.250540
    20  H    0.269286
 Sum of Mulliken charges =  -0.00000

 Dipole moment (field-independent basis, Debye):
    X=              2.0640    Y=              0.6701    Z=              0.6049  Tot=              2.2527
 Quadrupole moment (field-independent basis, Debye-Ang):
   XX=            -76.8826   YY=            -98.5125   ZZ=           -102.6280
   XY=              1.2246   XZ=              6.1634   YZ=              0.0732

 Normal termination of Gaussian 16 at Tue Oct 26 00:13:19 2021.
