 Gaussian 16, Revision C.01,
 Gaussian 16:  ES64L-G16RevC.01  3-Jul-2019

 --------------------------------------
 # opt=modredundant wb97xd/6-311+g(d,p)
 --------------------------------------

 -------------
 pBTTT_100.pdb
 -------------
 Symbolic Z-matrix:
 Charge =  0 Multiplicity = 1

 SCF Done:  E(RwB97XD) =  -1654.29799518     A.U. after   17 cycles
 SCF Done:  E(RwB97XD) =  -1654.35678501     A.U. after   15 cycles
 SCF Done:  E(RwB97XD) =  -1654.39713994     A.U. after   16 cycles
 SCF Done:  E(RwB97XD) =  -1654.40686771     A.U. after   16 cycles
 SCF Done:  E(RwB97XD) =  -1654.40929077     A.U. after   15 cycles
 SCF Done:  E(RwB97XD) =  -1654.40992193     A.U. after   15 cycles
 SCF Done:  E(RwB97XD) =  -1654.41004392     A.U. after   15 cycles
 SCF Done:  E(RwB97XD) =  -1654.41020307     A.U. after   14 cycles
 SCF Done:  E(RwB97XD) =  -1654.41021614     A.U. after   13 cycles
 SCF Done:  E(RwB97XD) =  -1654.41023170     A.U. after   12 cycles
 SCF Done:  E(RwB97XD) =  -1654.41023519     A.U. after   11 cycles
 SCF Done:  E(RwB97XD) =  -1654.41023571     A.U. after   11 cycles
 SCF Done:  E(RwB97XD) =  -1654.41023582     A.U. after   11 cycles
 SCF Done:  E(RwB97XD) =  -1654.41023588     A.U. after   10 cycles
 Optimization completed.
    -- Stationary point found.

                         Standard orientation:
 ---------------------------------------------------------------------
 Center     Atomic      Atomic             Coordinates (Angstroms)
 Number     Number       Type             X           Y           Z
 ---------------------------------------------------------------------
      1          6           0       -3.936310    0.704386    0.294594
      2          6           0       -2.546285    0.920885    0.530302
      3          6           0       -1.737781    0.019689   -0.107498
      4          6           0       -4.157670   -0.366317   -0.514985
      5          1           0       -4.724927    1.318645    0.711641
      6         16           0       -2.697810   -1.117818   -1.007418
      7          1           0       -5.108140   -0.750271   -0.853196
      8          6           0       -0.278694   -0.050544   -0.066196
      9         16           0        0.520004   -1.209308    0.982073
     10          6           0        2.074221   -0.629095    0.495970
     11          6           0        1.952420    0.405240   -0.412100
     12          6           0        0.608534    0.737111   -0.736433
     13          1           0        0.298806    1.514043   -1.421173
     14         16           0        3.509279    0.987300   -0.898068
     15          6           0        4.292434   -0.173423    0.129581
     16          6           0        3.423016   -0.966415    0.809537
     17          1           0        5.371179   -0.198648    0.169804
     18          1           0        3.729099   -1.744032    1.494979
     19          8           0       -2.035484    1.911401    1.302371
     20          1           0       -2.749029    2.397185    1.716965
 ---------------------------------------------------------------------

 The electronic state is 1-A.
 Alpha  occ. eigenvalues --  -89.05113 -89.04702 -89.04451 -19.28996 -10.36055
 Alpha  occ. eigenvalues --  -10.33126 -10.32684 -10.32124 -10.32004 -10.31988
 Alpha  occ. eigenvalues --  -10.31906 -10.30290 -10.30158 -10.30064  -8.09173
 Alpha  occ. eigenvalues --   -8.08748  -8.08493  -6.04007  -6.03626  -6.03596
 Alpha  occ. eigenvalues --   -6.03345  -6.03269  -6.03224  -6.02974  -6.02811
 Alpha  occ. eigenvalues --   -6.02546  -1.18164  -1.01743  -0.99623  -0.94962
 Alpha  occ. eigenvalues --   -0.86858  -0.85912  -0.83870  -0.80616  -0.79855
 Alpha  occ. eigenvalues --   -0.70872  -0.70038  -0.66193  -0.64759  -0.62892
 Alpha  occ. eigenvalues --   -0.60723  -0.58085  -0.56973  -0.53570  -0.52522
 Alpha  occ. eigenvalues --   -0.51834  -0.49892  -0.49572  -0.47408  -0.46999
 Alpha  occ. eigenvalues --   -0.45799  -0.44886  -0.44272  -0.44028  -0.41913
 Alpha  occ. eigenvalues --   -0.41676  -0.36447  -0.33270  -0.30927  -0.30178
 Alpha  occ. eigenvalues --   -0.29031
 Alpha virt. eigenvalues --    0.02565   0.03831   0.04994   0.06030   0.06225
 Alpha virt. eigenvalues --    0.06683   0.07387   0.07528   0.08067   0.09052
 Alpha virt. eigenvalues --    0.09269   0.09448   0.09864   0.10298   0.10812

 Mulliken charges:
               1
     1  C   -0.173333
     2  C   -0.285581
     3  C    0.259679
     4  C   -0.194186
     5  H    0.146371
     6  S   -0.163204
     7  H    0.189820
     8  C    0.173366
     9  S   -0.521264
    10  C    0.249574
    11  C   -0.458436
    12  C    0.643815
    13  H    0.160640
    14  S   -0.429927
    15  C   -0.208347
    16  C    0.218562
    17  H    0.192165
    18  H    0.161480
    19  O   -0.232065
    20  H    0.270871
 Sum of Mulliken charges =  -0.00000

 Dipole moment (field-independent basis, Debye):
    X=             -1.9688    Y=              0.8619    Z=              0.6375  Tot=              2.2417
 Quadrupole moment (field-independent basis, Debye-Ang):
   XX=            -77.6496   YY=            -98.8226   ZZ=           -101.7694
   XY=             -7.7101   XZ=             -0.8740   YZ=              0.3141

 Normal termination of Gaussian 16 at Tue Oct 26 00:21:17 2021.
