 Gaussian 16, Revision C.01,
 Gaussian 16:  ES64L-G16RevC.01  3-Jul-2019

 --------------------------------------
 # opt=modredundant wb97xd/6-311+g(d,p)
 --------------------------------------

 ------------
 pBTTT_95.pdb
 ------------
 Symbolic Z-matrix:
 Charge =  0 Multiplicity = 1

 SCF Done:  E(RwB97XD) =  -1654.29779966     A.U. after   17 cycles
 SCF Done:  E(RwB97XD) =  -1654.35661153     A.U. after   15 cycles
 SCF Done:  E(RwB97XD) =  -1654.39698761     A.U. after   16 cycles
 SCF Done:  E(RwB97XD) =  -1654.40676878     A.U. after   16 cycles
 SCF Done:  E(RwB97XD) =  -1654.40919463     A.U. after   15 cycles
 SCF Done:  E(RwB97XD) =  -1654.40982439     A.U. after   14 cycles
 SCF Done:  E(RwB97XD) =  -1654.40994885     A.U. after   15 cycles
 SCF Done:  E(RwB97XD) =  -1654.41012896     A.U. after   14 cycles
 SCF Done:  E(RwB97XD) =  -1654.41014244     A.U. after   13 cycles
 SCF Done:  E(RwB97XD) =  -1654.41015732     A.U. after   13 cycles
 SCF Done:  E(RwB97XD) =  -1654.41016134     A.U. after   11 cycles
 SCF Done:  E(RwB97XD) =  -1654.41016174     A.U. after   11 cycles
 SCF Done:  E(RwB97XD) =  -1654.41016187     A.U. after   11 cycles
 Optimization completed.
    -- Stationary point found.

                         Standard orientation:
 ---------------------------------------------------------------------
 Center     Atomic      Atomic             Coordinates (Angstroms)
 Number     Number       Type             X           Y           Z
 ---------------------------------------------------------------------
      1          6           0       -3.943097    0.681817    0.285711
      2          6           0       -2.556153    0.901358    0.536530
      3          6           0       -1.737812    0.015396   -0.109702
      4          6           0       -4.152013   -0.375672   -0.544399
      5          1           0       -4.738335    1.285302    0.705905
      6         16           0       -2.684261   -1.112062   -1.035999
      7          1           0       -5.097600   -0.757982   -0.897864
      8          6           0       -0.278072   -0.047053   -0.060407
      9         16           0        0.520150   -1.125462    1.070193
     10          6           0        2.074567   -0.585522    0.540622
     11          6           0        1.953321    0.375433   -0.444820
     12          6           0        0.609457    0.683984   -0.791614
     13          1           0        0.299984    1.406987   -1.533253
     14         16           0        3.510430    0.918029   -0.973973
     15          6           0        4.293029   -0.159671    0.140967
     16          6           0        3.423295   -0.897349    0.880122
     17          1           0        5.371767   -0.182168    0.183021
     18          1           0        3.729068   -1.619377    1.624007
     19          8           0       -2.056226    1.882134    1.327692
     20          1           0       -2.775314    2.365760    1.735055
 ---------------------------------------------------------------------

 The electronic state is 1-A.
 Alpha  occ. eigenvalues --  -89.05108 -89.04704 -89.04437 -19.28989 -10.36049
 Alpha  occ. eigenvalues --  -10.33124 -10.32680 -10.32105 -10.32011 -10.31989
 Alpha  occ. eigenvalues --  -10.31905 -10.30283 -10.30159 -10.30085  -8.09167
 Alpha  occ. eigenvalues --   -8.08750  -8.08479  -6.04001  -6.03620  -6.03598
 Alpha  occ. eigenvalues --   -6.03330  -6.03264  -6.03226  -6.02959  -6.02813
 Alpha  occ. eigenvalues --   -6.02532  -1.18161  -1.01742  -0.99617  -0.94962
 Alpha  occ. eigenvalues --   -0.86849  -0.85909  -0.83862  -0.80617  -0.79861
 Alpha  occ. eigenvalues --   -0.70864  -0.70033  -0.66200  -0.64755  -0.62876
 Alpha  occ. eigenvalues --   -0.60734  -0.58093  -0.56963  -0.53558  -0.52517
 Alpha  occ. eigenvalues --   -0.51837  -0.49862  -0.49620  -0.47387  -0.47005
 Alpha  occ. eigenvalues --   -0.45791  -0.44901  -0.44268  -0.44027  -0.41887
 Alpha  occ. eigenvalues --   -0.41674  -0.36443  -0.33236  -0.30743  -0.30193
 Alpha  occ. eigenvalues --   -0.29215
 Alpha virt. eigenvalues --    0.02680   0.03733   0.04996   0.06012   0.06226
 Alpha virt. eigenvalues --    0.06657   0.07383   0.07507   0.08056   0.09035
 Alpha virt. eigenvalues --    0.09252   0.09470   0.09865   0.10307   0.10829

 Mulliken charges:
               1
     1  C   -0.153273
     2  C   -0.333562
     3  C    0.272090
     4  C   -0.205686
     5  H    0.146333
     6  S   -0.139356
     7  H    0.189820
     8  C    0.218939
     9  S   -0.502003
    10  C    0.263599
    11  C   -0.495226
    12  C    0.615854
    13  H    0.161038
    14  S   -0.429050
    15  C   -0.208135
    16  C    0.205698
    17  H    0.192227
    18  H    0.161593
    19  O   -0.233535
    20  H    0.272635
 Sum of Mulliken charges =  -0.00000

 Dipole moment (field-independent basis, Debye):
    X=             -1.9730    Y=              0.8496    Z=              0.6170  Tot=              2.2350
 Quadrupole moment (field-independent basis, Debye-Ang):
   XX=            -77.5442   YY=            -99.5035   ZZ=           -101.1600
   XY=             -7.4899   XZ=             -0.6495   YZ=              0.2675

 Normal termination of Gaussian 16 at Tue Oct 26 00:25:34 2021.
