 Gaussian 16, Revision C.01,
 Gaussian 16:  ES64L-G16RevC.01  3-Jul-2019

 --------------------------------------
 # opt=modredundant wb97xd/6-311+g(d,p)
 --------------------------------------

 -------------
 pBTTT_120.pdb
 -------------
 Symbolic Z-matrix:
 Charge =  0 Multiplicity = 1

 SCF Done:  E(RwB97XD) =  -1654.29887670     A.U. after   18 cycles
 SCF Done:  E(RwB97XD) =  -1654.35762637     A.U. after   16 cycles
 SCF Done:  E(RwB97XD) =  -1654.39779368     A.U. after   16 cycles
 SCF Done:  E(RwB97XD) =  -1654.40760186     A.U. after   16 cycles
 SCF Done:  E(RwB97XD) =  -1654.41002504     A.U. after   15 cycles
 SCF Done:  E(RwB97XD) =  -1654.41066768     A.U. after   14 cycles
 SCF Done:  E(RwB97XD) =  -1654.41079394     A.U. after   15 cycles
 SCF Done:  E(RwB97XD) =  -1654.41095919     A.U. after   14 cycles
 SCF Done:  E(RwB97XD) =  -1654.41096931     A.U. after   13 cycles
 SCF Done:  E(RwB97XD) =  -1654.41098118     A.U. after   12 cycles
 SCF Done:  E(RwB97XD) =  -1654.41098398     A.U. after   11 cycles
 SCF Done:  E(RwB97XD) =  -1654.41098451     A.U. after   11 cycles
 SCF Done:  E(RwB97XD) =  -1654.41098455     A.U. after   11 cycles
 Optimization completed.
    -- Stationary point found.

                         Standard orientation:
 ---------------------------------------------------------------------
 Center     Atomic      Atomic             Coordinates (Angstroms)
 Number     Number       Type             X           Y           Z
 ---------------------------------------------------------------------
      1          6           0       -3.913758    0.797928    0.262878
      2          6           0       -2.515019    1.034713    0.406580
      3          6           0       -1.735787    0.031564   -0.105602
      4          6           0       -4.173268   -0.389220   -0.348189
      5          1           0       -4.681788    1.481503    0.603483
      6         16           0       -2.737202   -1.225142   -0.772338
      7          1           0       -5.137822   -0.814131   -0.580675
      8          6           0       -0.281383   -0.057734   -0.085894
      9         16           0        0.514670   -1.404793    0.711505
     10          6           0        2.070722   -0.734991    0.362178
     11          6           0        1.950185    0.468069   -0.305996
     12          6           0        0.607840    0.857696   -0.565488
     13          1           0        0.300975    1.760196   -1.074400
     14         16           0        3.508217    1.139150   -0.653138
     15          6           0        4.289555   -0.213813    0.106026
     16          6           0        3.418087   -1.133205    0.598941
     17          1           0        5.368146   -0.246747    0.143832
     18          1           0        3.722292   -2.038963    1.104189
     19          8           0       -1.972778    2.136368    0.984384
     20          1           0       -2.663579    2.653728    1.399413
 ---------------------------------------------------------------------

 The electronic state is 1-A.
 Alpha  occ. eigenvalues --  -89.05200 -89.04668 -89.04515 -19.29095 -10.36094
 Alpha  occ. eigenvalues --  -10.33197 -10.32723 -10.32314 -10.31963 -10.31949
 Alpha  occ. eigenvalues --  -10.31896 -10.30360 -10.30142 -10.29923  -8.09264
 Alpha  occ. eigenvalues --   -8.08714  -8.08560  -6.04099  -6.03718  -6.03562
 Alpha  occ. eigenvalues --   -6.03414  -6.03356  -6.03190  -6.03043  -6.02777
 Alpha  occ. eigenvalues --   -6.02606  -1.18231  -1.01749  -0.99700  -0.94966
 Alpha  occ. eigenvalues --   -0.86910  -0.85958  -0.83962  -0.80600  -0.79833
 Alpha  occ. eigenvalues --   -0.70946  -0.70116  -0.66155  -0.64861  -0.62879
 Alpha  occ. eigenvalues --   -0.60698  -0.58033  -0.57061  -0.53631  -0.52598
 Alpha  occ. eigenvalues --   -0.51857  -0.50027  -0.49343  -0.47546  -0.46954
 Alpha  occ. eigenvalues --   -0.45838  -0.44822  -0.44383  -0.43991  -0.42139
 Alpha  occ. eigenvalues --   -0.41643  -0.36491  -0.33640  -0.31667  -0.30262
 Alpha  occ. eigenvalues --   -0.28016
 Alpha virt. eigenvalues --    0.01881   0.04389   0.05018   0.06091   0.06213
 Alpha virt. eigenvalues --    0.06804   0.07431   0.07593   0.08167   0.09130
 Alpha virt. eigenvalues --    0.09329   0.09434   0.09857   0.10245   0.10742

 Mulliken charges:
               1
     1  C   -0.228339
     2  C   -0.220418
     3  C    0.387215
     4  C   -0.190256
     5  H    0.146543
     6  S   -0.284669
     7  H    0.190155
     8  C    0.176990
     9  S   -0.585658
    10  C    0.195486
    11  C   -0.255501
    12  C    0.579375
    13  H    0.164084
    14  S   -0.439218
    15  C   -0.199482
    16  C    0.183089
    17  H    0.191965
    18  H    0.161002
    19  O   -0.237453
    20  H    0.265090
 Sum of Mulliken charges =  -0.00000

 Dipole moment (field-independent basis, Debye):
    X=             -2.0001    Y=              0.9280    Z=              0.6871  Tot=              2.3095
 Quadrupole moment (field-independent basis, Debye-Ang):
   XX=            -78.0434   YY=            -96.3189   ZZ=           -104.0889
   XY=             -8.3860   XZ=             -1.2236   YZ=              0.6467

 Normal termination of Gaussian 16 at Tue Oct 26 00:41:10 2021.
