 Gaussian 16, Revision C.01,
 Gaussian 16:  ES64L-G16RevC.01  3-Jul-2019

 --------------------------------------
 # opt=modredundant wb97xd/6-311+g(d,p)
 --------------------------------------

 -------------
 pBTTT_155.pdb
 -------------
 Symbolic Z-matrix:
 Charge =  0 Multiplicity = 1

 SCF Done:  E(RwB97XD) =  -1654.30104360     A.U. after   19 cycles
 SCF Done:  E(RwB97XD) =  -1654.35946695     A.U. after   16 cycles
 SCF Done:  E(RwB97XD) =  -1654.39914921     A.U. after   17 cycles
 SCF Done:  E(RwB97XD) =  -1654.40889353     A.U. after   16 cycles
 SCF Done:  E(RwB97XD) =  -1654.41128276     A.U. after   15 cycles
 SCF Done:  E(RwB97XD) =  -1654.41193686     A.U. after   14 cycles
 SCF Done:  E(RwB97XD) =  -1654.41206131     A.U. after   14 cycles
 SCF Done:  E(RwB97XD) =  -1654.41222617     A.U. after   13 cycles
 SCF Done:  E(RwB97XD) =  -1654.41223632     A.U. after   13 cycles
 SCF Done:  E(RwB97XD) =  -1654.41225040     A.U. after   12 cycles
 SCF Done:  E(RwB97XD) =  -1654.41225262     A.U. after   11 cycles
 SCF Done:  E(RwB97XD) =  -1654.41225297     A.U. after   10 cycles
 Optimization completed.
    -- Stationary point found.

                         Standard orientation:
 ---------------------------------------------------------------------
 Center     Atomic      Atomic             Coordinates (Angstroms)
 Number     Number       Type             X           Y           Z
 ---------------------------------------------------------------------
      1          6           0       -3.914864    0.869439    0.110617
      2          6           0       -2.517798    1.137391    0.179347
      3          6           0       -1.733215    0.032383   -0.036538
      4          6           0       -4.175173   -0.437370   -0.159187
      5          1           0       -4.682018    1.620042    0.256183
      6         16           0       -2.737221   -1.353662   -0.351303
      7          1           0       -5.137950   -0.912833   -0.265976
      8          6           0       -0.283411   -0.043774   -0.025330
      9         16           0        0.524050   -1.564683    0.327186
     10          6           0        2.076894   -0.819329    0.158388
     11          6           0        1.947035    0.524592   -0.129041
     12          6           0        0.603512    0.974541   -0.238296
     13          1           0        0.294588    1.984638   -0.461214
     14         16           0        3.501088    1.271011   -0.289827
     15          6           0        4.291930   -0.241894    0.032751
     16          6           0        3.425331   -1.266461    0.252155
     17          1           0        5.370831   -0.282206    0.041448
     18          1           0        3.734681   -2.279219    0.468641
     19          8           0       -1.979855    2.360458    0.426784
     20          1           0       -2.669428    2.966139    0.700555
 ---------------------------------------------------------------------

 The electronic state is 1-A.
 Alpha  occ. eigenvalues --  -89.05368 -89.04604 -89.04562 -19.29540 -10.36187
 Alpha  occ. eigenvalues --  -10.33439 -10.32801 -10.32715 -10.31909 -10.31853
 Alpha  occ. eigenvalues --  -10.31846 -10.30514 -10.30107 -10.29618  -8.09440
 Alpha  occ. eigenvalues --   -8.08649  -8.08618  -6.04282  -6.03897  -6.03522
 Alpha  occ. eigenvalues --   -6.03497  -6.03478  -6.03125  -6.03107  -6.02713
 Alpha  occ. eigenvalues --   -6.02651  -1.18580  -1.01768  -0.99868  -0.94974
 Alpha  occ. eigenvalues --   -0.87007  -0.86058  -0.84163  -0.80562  -0.79825
 Alpha  occ. eigenvalues --   -0.71121  -0.70404  -0.66088  -0.65174  -0.62744
 Alpha  occ. eigenvalues --   -0.60740  -0.58110  -0.57091  -0.53714  -0.52870
 Alpha  occ. eigenvalues --   -0.51920  -0.50224  -0.49064  -0.47789  -0.47005
 Alpha  occ. eigenvalues --   -0.45820  -0.45075  -0.44665  -0.43677  -0.42650
 Alpha  occ. eigenvalues --   -0.41461  -0.36690  -0.34396  -0.32201  -0.30344
 Alpha  occ. eigenvalues --   -0.26881
 Alpha virt. eigenvalues --    0.00949   0.04652   0.05310   0.06080   0.06295
 Alpha virt. eigenvalues --    0.06956   0.07478   0.07619   0.08351   0.08846
 Alpha virt. eigenvalues --    0.09510   0.09602   0.09806   0.10564   0.10840

 Mulliken charges:
               1
     1  C   -0.267626
     2  C    0.008583
     3  C    0.509969
     4  C   -0.150806
     5  H    0.145816
     6  S   -0.460140
     7  H    0.189327
     8  C    0.350722
     9  S   -0.588333
    10  C    0.442689
    11  C    0.199021
    12  C    0.033085
    13  H    0.175239
    14  S   -0.454017
    15  C   -0.144117
    16  C   -0.353238
    17  H    0.191856
    18  H    0.160292
    19  O   -0.260885
    20  H    0.272563
 Sum of Mulliken charges =  -0.00000

 Dipole moment (field-independent basis, Debye):
    X=             -2.1496    Y=              1.0861    Z=              0.4210  Tot=              2.4449
 Quadrupole moment (field-independent basis, Debye-Ang):
   XX=            -77.8448   YY=            -93.1081   ZZ=           -107.3584
   XY=             -9.5383   XZ=             -0.9509   YZ=              0.9411

 Normal termination of Gaussian 16 at Tue Oct 26 00:44:54 2021.
