 Gaussian 16, Revision C.01,
 Gaussian 16:  ES64L-G16RevC.01  3-Jul-2019

 --------------------------------------
 # opt=modredundant wb97xd/6-311+g(d,p)
 --------------------------------------

 -------------
 pBTTT_-50.pdb
 -------------
 Symbolic Z-matrix:
 Charge =  0 Multiplicity = 1

 SCF Done:  E(RwB97XD) =  -1654.30080303     A.U. after   18 cycles
 SCF Done:  E(RwB97XD) =  -1654.35920653     A.U. after   15 cycles
 SCF Done:  E(RwB97XD) =  -1654.39858598     A.U. after   16 cycles
 SCF Done:  E(RwB97XD) =  -1654.40825023     A.U. after   16 cycles
 SCF Done:  E(RwB97XD) =  -1654.41049246     A.U. after   16 cycles
 SCF Done:  E(RwB97XD) =  -1654.41096238     A.U. after   14 cycles
 SCF Done:  E(RwB97XD) =  -1654.41115192     A.U. after   14 cycles
 SCF Done:  E(RwB97XD) =  -1654.41129776     A.U. after   14 cycles
 SCF Done:  E(RwB97XD) =  -1654.41130460     A.U. after   13 cycles
 SCF Done:  E(RwB97XD) =  -1654.41131813     A.U. after   12 cycles
 SCF Done:  E(RwB97XD) =  -1654.41132179     A.U. after   11 cycles
 SCF Done:  E(RwB97XD) =  -1654.41132213     A.U. after   10 cycles
 Optimization completed.
    -- Stationary point found.

                         Standard orientation:
 ---------------------------------------------------------------------
 Center     Atomic      Atomic             Coordinates (Angstroms)
 Number     Number       Type             X           Y           Z
 ---------------------------------------------------------------------
      1          6           0       -4.005050    0.342491    0.315207
      2          6           0       -2.661950    0.803718    0.433988
      3          6           0       -1.730896   -0.106047    0.006218
      4          6           0       -4.073597   -0.914608   -0.200252
      5          1           0       -4.871771    0.922311    0.608175
      6         16           0       -2.521123   -1.547262   -0.561202
      7          1           0       -4.958757   -1.501444   -0.392628
      8          6           0       -0.277992   -0.007396    0.016907
      9         16           0        0.526245    1.407593   -0.635517
     10          6           0        2.078096    0.706664   -0.333479
     11          6           0        1.953035   -0.550793    0.224261
     12          6           0        0.608629   -0.962783    0.427542
     13          1           0        0.301676   -1.903318    0.864124
     14         16           0        3.508363   -1.243388    0.541243
     15          6           0        4.295450    0.175045   -0.081187
     16          6           0        3.427496    1.130355   -0.507212
     17          1           0        5.374339    0.215049   -0.096934
     18          1           0        3.735560    2.078652   -0.924487
     19          8           0       -2.299530    2.014108    0.928715
     20          1           0       -3.079871    2.504933    1.187673
 ---------------------------------------------------------------------

 The electronic state is 1-A.
 Alpha  occ. eigenvalues --  -89.05281 -89.04631 -89.04379 -19.29162 -10.36107
 Alpha  occ. eigenvalues --  -10.33381 -10.32729 -10.32417 -10.31902 -10.31897
 Alpha  occ. eigenvalues --  -10.31819 -10.30412 -10.30088 -10.29986  -8.09343
 Alpha  occ. eigenvalues --   -8.08676  -8.08414  -6.04181  -6.03798  -6.03526
 Alpha  occ. eigenvalues --   -6.03432  -6.03272  -6.03153  -6.02895  -6.02738
 Alpha  occ. eigenvalues --   -6.02456  -1.18316  -1.01735  -0.99759  -0.94959
 Alpha  occ. eigenvalues --   -0.86922  -0.85973  -0.84027  -0.80562  -0.79875
 Alpha  occ. eigenvalues --   -0.70988  -0.70236  -0.66242  -0.64971  -0.62444
 Alpha  occ. eigenvalues --   -0.60897  -0.58051  -0.57146  -0.53564  -0.52658
 Alpha  occ. eigenvalues --   -0.52018  -0.50088  -0.49320  -0.47374  -0.46939
 Alpha  occ. eigenvalues --   -0.45807  -0.45138  -0.44544  -0.43810  -0.42243
 Alpha  occ. eigenvalues --   -0.41493  -0.36497  -0.33910  -0.31829  -0.30201
 Alpha  occ. eigenvalues --   -0.27594
 Alpha virt. eigenvalues --    0.01515   0.04896   0.05169   0.05980   0.06058
 Alpha virt. eigenvalues --    0.06647   0.07461   0.07657   0.08273   0.09297
 Alpha virt. eigenvalues --    0.09310   0.09702   0.09821   0.10149   0.10765

 Mulliken charges:
               1
     1  C   -0.193248
     2  C   -0.421595
     3  C    0.633967
     4  C   -0.176664
     5  H    0.145479
     6  S   -0.327256
     7  H    0.190307
     8  C    0.825907
     9  S   -0.394702
    10  C    0.463674
    11  C   -0.026901
    12  C   -0.315768
    13  H    0.168938
    14  S   -0.454433
    15  C   -0.147807
    16  C   -0.341879
    17  H    0.191725
    18  H    0.161250
    19  O   -0.247732
    20  H    0.266736
 Sum of Mulliken charges =  -0.00000

 Dipole moment (field-independent basis, Debye):
    X=             -2.2268    Y=              0.7585    Z=              0.4260  Tot=              2.3907
 Quadrupole moment (field-independent basis, Debye-Ang):
   XX=            -76.4833   YY=            -95.8075   ZZ=           -105.7402
   XY=             -1.1756   XZ=             -4.3124   YZ=              0.0456

 Normal termination of Gaussian 16 at Tue Oct 26 00:00:26 2021.
