 Gaussian 16, Revision C.01,
 Gaussian 16:  ES64L-G16RevC.01  3-Jul-2019

 --------------------------------------
 # opt=modredundant wb97xd/6-311+g(d,p)
 --------------------------------------

 -------------
 pBTTT_-15.pdb
 -------------
 Symbolic Z-matrix:
 Charge =  0 Multiplicity = 1

 SCF Done:  E(RwB97XD) =  -1654.30256881     A.U. after   19 cycles
 SCF Done:  E(RwB97XD) =  -1654.36067235     A.U. after   17 cycles
 SCF Done:  E(RwB97XD) =  -1654.39937336     A.U. after   17 cycles
 SCF Done:  E(RwB97XD) =  -1654.40885656     A.U. after   17 cycles
 SCF Done:  E(RwB97XD) =  -1654.41107117     A.U. after   16 cycles
 SCF Done:  E(RwB97XD) =  -1654.41154800     A.U. after   14 cycles
 SCF Done:  E(RwB97XD) =  -1654.41165774     A.U. after   14 cycles
 SCF Done:  E(RwB97XD) =  -1654.41183129     A.U. after   13 cycles
 SCF Done:  E(RwB97XD) =  -1654.41185177     A.U. after   13 cycles
 SCF Done:  E(RwB97XD) =  -1654.41186196     A.U. after   12 cycles
 SCF Done:  E(RwB97XD) =  -1654.41186414     A.U. after   11 cycles
 SCF Done:  E(RwB97XD) =  -1654.41186445     A.U. after   10 cycles
 SCF Done:  E(RwB97XD) =  -1654.41186450     A.U. after   10 cycles
 Optimization completed.
    -- Stationary point found.

                         Standard orientation:
 ---------------------------------------------------------------------
 Center     Atomic      Atomic             Coordinates (Angstroms)
 Number     Number       Type             X           Y           Z
 ---------------------------------------------------------------------
      1          6           0       -4.014087    0.373194    0.092778
      2          6           0       -2.673626    0.853943    0.133412
      3          6           0       -1.727060   -0.130630    0.009071
      4          6           0       -4.070246   -0.974870   -0.067456
      5          1           0       -4.886764    1.008254    0.182434
      6         16           0       -2.507068   -1.676150   -0.177060
      7          1           0       -4.948495   -1.598788   -0.129987
      8          6           0       -0.279033   -0.022391    0.018580
      9         16           0        0.520979    1.528768   -0.183611
     10          6           0        2.075085    0.772261   -0.107701
     11          6           0        1.957475   -0.591864    0.066522
     12          6           0        0.617093   -1.050314    0.143408
     13          1           0        0.324876   -2.081476    0.289075
     14         16           0        3.516634   -1.339704    0.163524
     15          6           0        4.296149    0.201753   -0.032501
     16          6           0        3.421649    1.234211   -0.162770
     17          1           0        5.374743    0.249674   -0.041895
     18          1           0        3.723963    2.263751   -0.293490
     19          8           0       -2.323951    2.156384    0.287547
     20          1           0       -3.105843    2.709122    0.287777
 ---------------------------------------------------------------------

 The electronic state is 1-A.
 Alpha  occ. eigenvalues --  -89.05390 -89.04494 -89.04342 -19.29575 -10.36270
 Alpha  occ. eigenvalues --  -10.33580 -10.32911 -10.32787 -10.31783 -10.31734
 Alpha  occ. eigenvalues --  -10.31550 -10.30588 -10.29963 -10.29790  -8.09464
 Alpha  occ. eigenvalues --   -8.08539  -8.08355  -6.04309  -6.03925  -6.03538
 Alpha  occ. eigenvalues --   -6.03389  -6.03219  -6.03017  -6.02835  -6.02599
 Alpha  occ. eigenvalues --   -6.02391  -1.18698  -1.01664  -0.99896  -0.94892
 Alpha  occ. eigenvalues --   -0.86997  -0.86014  -0.84223  -0.80463  -0.79859
 Alpha  occ. eigenvalues --   -0.71116  -0.70559  -0.66293  -0.65160  -0.62065
 Alpha  occ. eigenvalues --   -0.61043  -0.58082  -0.57348  -0.53644  -0.52991
 Alpha  occ. eigenvalues --   -0.52058  -0.50147  -0.49110  -0.47383  -0.46920
 Alpha  occ. eigenvalues --   -0.46120  -0.45334  -0.44671  -0.43400  -0.42768
 Alpha  occ. eigenvalues --   -0.41058  -0.36684  -0.34466  -0.32271  -0.30152
 Alpha  occ. eigenvalues --   -0.26662
 Alpha virt. eigenvalues --    0.00813   0.04796   0.05660   0.05862   0.06113
 Alpha virt. eigenvalues --    0.06659   0.07510   0.08347   0.08500   0.09047
 Alpha virt. eigenvalues --    0.09413   0.09682   0.09926   0.10599   0.10805

 Mulliken charges:
               1
     1  C   -0.352113
     2  C    0.333154
     3  C    0.563331
     4  C   -0.160509
     5  H    0.145129
     6  S   -0.550522
     7  H    0.190406
     8  C    0.033055
     9  S   -0.455004
    10  C    0.223913
    11  C    0.341706
    12  C    0.049648
    13  H    0.162264
    14  S   -0.479591
    15  C   -0.147109
    16  C   -0.278913
    17  H    0.191166
    18  H    0.159229
    19  O   -0.246623
    20  H    0.277382
 Sum of Mulliken charges =  -0.00000

 Dipole moment (field-independent basis, Debye):
    X=             -2.5142    Y=              0.9800    Z=              0.0151  Tot=              2.6985
 Quadrupole moment (field-independent basis, Debye-Ang):
   XX=            -76.2810   YY=            -93.4087   ZZ=           -108.2990
   XY=             -1.6740   XZ=             -0.9087   YZ=             -0.3843

 Normal termination of Gaussian 16 at Tue Oct 26 00:03:45 2021.
