 Gaussian 16, Revision C.01,
 Gaussian 16:  ES64L-G16RevC.01  3-Jul-2019

 --------------------------------------
 # opt=modredundant wb97xd/6-311+g(d,p)
 --------------------------------------

 -------------
 pBTTT_170.pdb
 -------------
 Symbolic Z-matrix:
 Charge =  0 Multiplicity = 1

 SCF Done:  E(RwB97XD) =  -1654.30154290     A.U. after   19 cycles
 SCF Done:  E(RwB97XD) =  -1654.35980724     A.U. after   16 cycles
 SCF Done:  E(RwB97XD) =  -1654.39927858     A.U. after   17 cycles
 SCF Done:  E(RwB97XD) =  -1654.40884691     A.U. after   15 cycles
 SCF Done:  E(RwB97XD) =  -1654.41122074     A.U. after   15 cycles
 SCF Done:  E(RwB97XD) =  -1654.41184644     A.U. after   14 cycles
 SCF Done:  E(RwB97XD) =  -1654.41198247     A.U. after   14 cycles
 SCF Done:  E(RwB97XD) =  -1654.41214548     A.U. after   14 cycles
 SCF Done:  E(RwB97XD) =  -1654.41215577     A.U. after   13 cycles
 SCF Done:  E(RwB97XD) =  -1654.41216860     A.U. after   12 cycles
 SCF Done:  E(RwB97XD) =  -1654.41217104     A.U. after   11 cycles
 SCF Done:  E(RwB97XD) =  -1654.41217138     A.U. after   10 cycles
 Optimization completed.
    -- Stationary point found.

                         Standard orientation:
 ---------------------------------------------------------------------
 Center     Atomic      Atomic             Coordinates (Angstroms)
 Number     Number       Type             X           Y           Z
 ---------------------------------------------------------------------
      1          6           0       -3.917832    0.880381    0.041524
      2          6           0       -2.521496    1.156568    0.074495
      3          6           0       -1.732861    0.035411   -0.009279
      4          6           0       -4.176865   -0.449051   -0.071683
      5          1           0       -4.685657    1.642172    0.098995
      6         16           0       -2.737458   -1.379491   -0.149270
      7          1           0       -5.138495   -0.936120   -0.119376
      8          6           0       -0.283082   -0.038538   -0.003794
      9         16           0        0.525544   -1.593181    0.141930
     10          6           0        2.079040   -0.833930    0.066051
     11          6           0        1.949315    0.534710   -0.052090
     12          6           0        0.606521    0.997765   -0.093998
     13          1           0        0.300011    2.028057   -0.187129
     14         16           0        3.503875    1.294199   -0.123115
     15          6           0        4.294177   -0.247443    0.008502
     16          6           0        3.426790   -1.290644    0.101491
     17          1           0        5.373039   -0.289373    0.009065
     18          1           0        3.735435   -2.322676    0.190156
     19          8           0       -1.988685    2.402525    0.176829
     20          1           0       -2.688476    3.041929    0.313607
 ---------------------------------------------------------------------

 The electronic state is 1-A.
 Alpha  occ. eigenvalues --  -89.05407 -89.04580 -89.04549 -19.29728 -10.36254
 Alpha  occ. eigenvalues --  -10.33527 -10.32843 -10.32836 -10.31888 -10.31828
 Alpha  occ. eigenvalues --  -10.31819 -10.30565 -10.30094 -10.29509  -8.09483
 Alpha  occ. eigenvalues --   -8.08625  -8.08611  -6.04327  -6.03941  -6.03560
 Alpha  occ. eigenvalues --   -6.03473  -6.03472  -6.03102  -6.03101  -6.02689
 Alpha  occ. eigenvalues --   -6.02639  -1.18754  -1.01762  -0.99916  -0.94964
 Alpha  occ. eigenvalues --   -0.87023  -0.86077  -0.84222  -0.80538  -0.79836
 Alpha  occ. eigenvalues --   -0.71176  -0.70520  -0.66068  -0.65280  -0.62701
 Alpha  occ. eigenvalues --   -0.60770  -0.58192  -0.57057  -0.53727  -0.52984
 Alpha  occ. eigenvalues --   -0.51929  -0.50256  -0.49049  -0.47803  -0.47029
 Alpha  occ. eigenvalues --   -0.45812  -0.45346  -0.44676  -0.43504  -0.42830
 Alpha  occ. eigenvalues --   -0.41361  -0.36756  -0.34565  -0.32290  -0.30326
 Alpha  occ. eigenvalues --   -0.26659
 Alpha virt. eigenvalues --    0.00733   0.04582   0.05313   0.06114   0.06303
 Alpha virt. eigenvalues --    0.06961   0.07423   0.07660   0.08437   0.08767
 Alpha virt. eigenvalues --    0.09342   0.09613   0.09927   0.10748   0.10921

 Mulliken charges:
               1
     1  C   -0.373511
     2  C    0.417395
     3  C    0.513923
     4  C   -0.126939
     5  H    0.144708
     6  S   -0.558265
     7  H    0.189109
     8  C    0.070615
     9  S   -0.623360
    10  C    0.365397
    11  C    0.285661
    12  C    0.048730
    13  H    0.180794
    14  S   -0.454691
    15  C   -0.159271
    16  C   -0.288082
    17  H    0.192015
    18  H    0.159979
    19  O   -0.259954
    20  H    0.275748
 Sum of Mulliken charges =  -0.00000

 Dipole moment (field-independent basis, Debye):
    X=             -2.2260    Y=              1.1527    Z=              0.1990  Tot=              2.5146
 Quadrupole moment (field-independent basis, Debye-Ang):
   XX=            -77.6109   YY=            -92.2209   ZZ=           -108.2525
   XY=             -9.9205   XZ=             -0.4995   YZ=              0.5728

 Normal termination of Gaussian 16 at Tue Oct 26 00:36:51 2021.
