 Gaussian 16, Revision C.01,
 Gaussian 16:  ES64L-G16RevC.01  3-Jul-2019

 --------------------------------------
 # opt=modredundant wb97xd/6-311+g(d,p)
 --------------------------------------

 ------------
 pBTTT_85.pdb
 ------------
 Symbolic Z-matrix:
 Charge =  0 Multiplicity = 1

 SCF Done:  E(RwB97XD) =  -1654.29796553     A.U. after   18 cycles
 SCF Done:  E(RwB97XD) =  -1654.35668628     A.U. after   15 cycles
 SCF Done:  E(RwB97XD) =  -1654.39697714     A.U. after   16 cycles
 SCF Done:  E(RwB97XD) =  -1654.40673151     A.U. after   16 cycles
 SCF Done:  E(RwB97XD) =  -1654.40916891     A.U. after   15 cycles
 SCF Done:  E(RwB97XD) =  -1654.40981311     A.U. after   14 cycles
 SCF Done:  E(RwB97XD) =  -1654.40995608     A.U. after   14 cycles
 SCF Done:  E(RwB97XD) =  -1654.41012331     A.U. after   13 cycles
 SCF Done:  E(RwB97XD) =  -1654.41013784     A.U. after   13 cycles
 SCF Done:  E(RwB97XD) =  -1654.41015372     A.U. after   12 cycles
 SCF Done:  E(RwB97XD) =  -1654.41015831     A.U. after   11 cycles
 SCF Done:  E(RwB97XD) =  -1654.41015877     A.U. after   11 cycles
 SCF Done:  E(RwB97XD) =  -1654.41015894     A.U. after   11 cycles
 SCF Done:  E(RwB97XD) =  -1654.41015907     A.U. after   10 cycles
 Optimization completed.
    -- Stationary point found.

                         Standard orientation:
 ---------------------------------------------------------------------
 Center     Atomic      Atomic             Coordinates (Angstroms)
 Number     Number       Type             X           Y           Z
 ---------------------------------------------------------------------
      1          6           0        3.962734    0.386997    0.549451
      2          6           0        2.586444    0.724428    0.712429
      3          6           0        1.737206   -0.101771    0.028087
      4          6           0        4.132689   -0.692078   -0.261580
      5          1           0        4.778326    0.923790    1.018310
      6         16           0        2.640654   -1.311753   -0.834637
      7          1           0        5.062519   -1.158798   -0.549442
      8          6           0        0.277003   -0.044156   -0.020776
      9         16           0       -0.523248    1.011695   -1.170438
     10          6           0       -2.076747    0.507121   -0.604773
     11          6           0       -1.954063   -0.424539    0.408290
     12          6           0       -0.609463   -0.743547    0.742562
     13          1           0       -0.299256   -1.442305    1.506963
     14         16           0       -3.510320   -0.928090    0.977192
     15          6           0       -4.294658    0.125979   -0.158879
     16          6           0       -3.426128    0.827706   -0.933577
     17          1           0       -5.373489    0.163160   -0.185252
     18          1           0       -3.733151    1.531411   -1.694321
     19          8           0        2.122759    1.749644    1.468394
     20          1           0        2.859495    2.239122    1.835319
 ---------------------------------------------------------------------

 The electronic state is 1-A.
 Alpha  occ. eigenvalues --  -89.05118 -89.04705 -89.04414 -19.28990 -10.36045
 Alpha  occ. eigenvalues --  -10.33148 -10.32674 -10.32107 -10.32010 -10.31982
 Alpha  occ. eigenvalues --  -10.31903 -10.30283 -10.30155 -10.30111  -8.09176
 Alpha  occ. eigenvalues --   -8.08751  -8.08455  -6.04009  -6.03628  -6.03599
 Alpha  occ. eigenvalues --   -6.03307  -6.03272  -6.03227  -6.02935  -6.02813
 Alpha  occ. eigenvalues --   -6.02508  -1.18164  -1.01742  -0.99617  -0.94963
 Alpha  occ. eigenvalues --   -0.86843  -0.85911  -0.83861  -0.80617  -0.79871
 Alpha  occ. eigenvalues --   -0.70866  -0.70037  -0.66211  -0.64774  -0.62818
 Alpha  occ. eigenvalues --   -0.60763  -0.58101  -0.56963  -0.53542  -0.52519
 Alpha  occ. eigenvalues --   -0.51858  -0.49851  -0.49655  -0.47365  -0.47004
 Alpha  occ. eigenvalues --   -0.45782  -0.44928  -0.44296  -0.44002  -0.41880
 Alpha  occ. eigenvalues --   -0.41660  -0.36440  -0.33242  -0.30508  -0.30421
 Alpha  occ. eigenvalues --   -0.29210
 Alpha virt. eigenvalues --    0.02664   0.03787   0.05000   0.05985   0.06209
 Alpha virt. eigenvalues --    0.06616   0.07383   0.07470   0.08052   0.09042
 Alpha virt. eigenvalues --    0.09241   0.09499   0.09875   0.10299   0.10863

 Mulliken charges:
               1
     1  C   -0.108011
     2  C   -0.448288
     3  C    0.321850
     4  C   -0.233723
     5  H    0.146161
     6  S   -0.124837
     7  H    0.189889
     8  C    0.374321
     9  S   -0.491446
    10  C    0.302733
    11  C   -0.533580
    12  C    0.511795
    13  H    0.162712
    14  S   -0.428540
    15  C   -0.207249
    16  C    0.182104
    17  H    0.192299
    18  H    0.161681
    19  O   -0.242870
    20  H    0.273000
 Sum of Mulliken charges =  -0.00000

 Dipole moment (field-independent basis, Debye):
    X=              2.0078    Y=              0.7302    Z=              0.6452  Tot=              2.2318
 Quadrupole moment (field-independent basis, Debye-Ang):
   XX=            -77.2073   YY=            -99.7059   ZZ=           -101.1972
   XY=              1.7429   XZ=              6.6855   YZ=              0.1367

 Normal termination of Gaussian 16 at Tue Oct 26 00:30:47 2021.
