 Gaussian 16, Revision C.01,
 Gaussian 16:  ES64L-G16RevC.01  3-Jul-2019

 --------------------------------------
 # opt=modredundant wb97xd/6-311+g(d,p)
 --------------------------------------

 -------------
 pBTTT_-80.pdb
 -------------
 Symbolic Z-matrix:
 Charge =  0 Multiplicity = 1

 SCF Done:  E(RwB97XD) =  -1654.29829496     A.U. after   17 cycles
 SCF Done:  E(RwB97XD) =  -1654.35703806     A.U. after   15 cycles
 SCF Done:  E(RwB97XD) =  -1654.39735959     A.U. after   16 cycles
 SCF Done:  E(RwB97XD) =  -1654.40702104     A.U. after   16 cycles
 SCF Done:  E(RwB97XD) =  -1654.40932316     A.U. after   15 cycles
 SCF Done:  E(RwB97XD) =  -1654.40984509     A.U. after   14 cycles
 SCF Done:  E(RwB97XD) =  -1654.41005093     A.U. after   14 cycles
 SCF Done:  E(RwB97XD) =  -1654.41021384     A.U. after   14 cycles
 SCF Done:  E(RwB97XD) =  -1654.41021862     A.U. after   13 cycles
 SCF Done:  E(RwB97XD) =  -1654.41024099     A.U. after   13 cycles
 SCF Done:  E(RwB97XD) =  -1654.41024560     A.U. after   11 cycles
 SCF Done:  E(RwB97XD) =  -1654.41024598     A.U. after   11 cycles
 SCF Done:  E(RwB97XD) =  -1654.41024611     A.U. after   11 cycles
 Optimization completed.
    -- Stationary point found.

                         Standard orientation:
 ---------------------------------------------------------------------
 Center     Atomic      Atomic             Coordinates (Angstroms)
 Number     Number       Type             X           Y           Z
 ---------------------------------------------------------------------
      1          6           0        3.972210    0.359828   -0.524552
      2          6           0        2.601925    0.715874   -0.697349
      3          6           0        1.736454   -0.101469   -0.022477
      4          6           0        4.121794   -0.725168    0.282690
      5          1           0        4.798350    0.887452   -0.985311
      6         16           0        2.617193   -1.326180    0.842753
      7          1           0        5.043118   -1.205430    0.575536
      8          6           0        0.276693   -0.033030    0.013082
      9         16           0       -0.524164    1.122092    1.062111
     10          6           0       -2.077417    0.563068    0.549251
     11          6           0       -1.954231   -0.460948   -0.370278
     12          6           0       -0.609452   -0.806183   -0.676406
     13          1           0       -0.299138   -1.573852   -1.371598
     14         16           0       -3.510244   -1.018270   -0.887356
     15          6           0       -4.295164    0.138270    0.143761
     16          6           0       -3.426964    0.912648    0.846241
     17          1           0       -5.374024    0.176180    0.167658
     18          1           0       -3.734376    1.685692    1.536244
     19          8           0        2.157870    1.748777   -1.454891
     20          1           0        2.903472    2.220133   -1.827306
 ---------------------------------------------------------------------

 The electronic state is 1-A.
 Alpha  occ. eigenvalues --  -89.05133 -89.04701 -89.04406 -19.28996 -10.36047
 Alpha  occ. eigenvalues --  -10.33169 -10.32675 -10.32128 -10.32003 -10.31975
 Alpha  occ. eigenvalues --  -10.31900 -10.30292 -10.30150 -10.30110  -8.09190
 Alpha  occ. eigenvalues --   -8.08747  -8.08447  -6.04024  -6.03643  -6.03596
 Alpha  occ. eigenvalues --   -6.03299  -6.03286  -6.03223  -6.02926  -6.02809
 Alpha  occ. eigenvalues --   -6.02498  -1.18170  -1.01742  -0.99626  -0.94964
 Alpha  occ. eigenvalues --   -0.86846  -0.85916  -0.83872  -0.80614  -0.79874
 Alpha  occ. eigenvalues --   -0.70874  -0.70050  -0.66214  -0.64794  -0.62778
 Alpha  occ. eigenvalues --   -0.60778  -0.58100  -0.56973  -0.53538  -0.52524
 Alpha  occ. eigenvalues --   -0.51877  -0.49880  -0.49627  -0.47362  -0.46996
 Alpha  occ. eigenvalues --   -0.45774  -0.44955  -0.44318  -0.43988  -0.41899
 Alpha  occ. eigenvalues --   -0.41647  -0.36441  -0.33283  -0.30718  -0.30364
 Alpha  occ. eigenvalues --   -0.29027
 Alpha virt. eigenvalues --    0.02536   0.03936   0.05003   0.05979   0.06190
 Alpha virt. eigenvalues --    0.06605   0.07388   0.07459   0.08067   0.09069
 Alpha virt. eigenvalues --    0.09242   0.09515   0.09877   0.10281   0.10884

 Mulliken charges:
               1
     1  C   -0.091137
     2  C   -0.485055
     3  C    0.335362
     4  C   -0.248122
     5  H    0.146021
     6  S   -0.134303
     7  H    0.190003
     8  C    0.443013
     9  S   -0.489080
    10  C    0.316768
    11  C   -0.539270
    12  C    0.479816
    13  H    0.163962
    14  S   -0.429875
    15  C   -0.207200
    16  C    0.171734
    17  H    0.192286
    18  H    0.161657
    19  O   -0.247782
    20  H    0.271199
 Sum of Mulliken charges =  -0.00000

 Dipole moment (field-independent basis, Debye):
    X=              2.0333    Y=              0.6897    Z=             -0.6358  Tot=              2.2393
 Quadrupole moment (field-independent basis, Debye-Ang):
   XX=            -77.0443   YY=            -99.1228   ZZ=           -101.8950
   XY=              1.3806   XZ=             -6.4568   YZ=             -0.1013

 Normal termination of Gaussian 16 at Mon Oct 25 23:53:30 2021.
