 Gaussian 16, Revision C.01,
 Gaussian 16:  ES64L-G16RevC.01  3-Jul-2019

 --------------------------------------
 # opt=modredundant wb97xd/6-311+g(d,p)
 --------------------------------------

 ------------
 pBTTT_45.pdb
 ------------
 Symbolic Z-matrix:
 Charge =  0 Multiplicity = 1

 SCF Done:  E(RwB97XD) =  -1654.30039353     A.U. after   18 cycles
 SCF Done:  E(RwB97XD) =  -1654.35862210     A.U. after   16 cycles
 SCF Done:  E(RwB97XD) =  -1654.39808160     A.U. after   16 cycles
 SCF Done:  E(RwB97XD) =  -1654.40796471     A.U. after   16 cycles
 SCF Done:  E(RwB97XD) =  -1654.41046557     A.U. after   15 cycles
 SCF Done:  E(RwB97XD) =  -1654.41107169     A.U. after   14 cycles
 SCF Done:  E(RwB97XD) =  -1654.41129898     A.U. after   14 cycles
 SCF Done:  E(RwB97XD) =  -1654.41146015     A.U. after   13 cycles
 SCF Done:  E(RwB97XD) =  -1654.41147163     A.U. after   13 cycles
 SCF Done:  E(RwB97XD) =  -1654.41148131     A.U. after   12 cycles
 SCF Done:  E(RwB97XD) =  -1654.41148314     A.U. after   11 cycles
 SCF Done:  E(RwB97XD) =  -1654.41148396     A.U. after   10 cycles
 Optimization completed.
    -- Stationary point found.

                         Standard orientation:
 ---------------------------------------------------------------------
 Center     Atomic      Atomic             Coordinates (Angstroms)
 Number     Number       Type             X           Y           Z
 ---------------------------------------------------------------------
      1          6           0       -4.007038    0.345934   -0.284936
      2          6           0       -2.665591    0.814661   -0.390146
      3          6           0       -1.730056   -0.109600   -0.004507
      4          6           0       -4.070771   -0.931225    0.178804
      5          1           0       -4.876081    0.935416   -0.550406
      6         16           0       -2.515183   -1.574017    0.508593
      7          1           0       -4.953542   -1.527752    0.351109
      8          6           0       -0.278264   -0.008869   -0.017320
      9         16           0        0.525448    1.434816    0.570169
     10          6           0        2.077560    0.720711    0.301272
     11          6           0        1.953288   -0.560008   -0.200612
     12          6           0        0.609428   -0.980897   -0.386330
     13          1           0        0.304129   -1.939486   -0.783062
     14         16           0        3.509042   -1.264611   -0.487555
     15          6           0        4.295306    0.180101    0.072757
     16          6           0        3.426536    1.152569    0.456286
     17          1           0        5.374160    0.221150    0.087535
     18          1           0        3.733929    2.118379    0.831824
     19          8           0       -2.307959    2.045875   -0.834875
     20          1           0       -3.090253    2.546032   -1.068903
 ---------------------------------------------------------------------

 The electronic state is 1-A.
 Alpha  occ. eigenvalues --  -89.05302 -89.04613 -89.04375 -19.29214 -10.36126
 Alpha  occ. eigenvalues --  -10.33416 -10.32751 -10.32475 -10.31881 -10.31878
 Alpha  occ. eigenvalues --  -10.31789 -10.30439 -10.30071 -10.29954  -8.09365
 Alpha  occ. eigenvalues --   -8.08658  -8.08408  -6.04204  -6.03822  -6.03507
 Alpha  occ. eigenvalues --   -6.03453  -6.03267  -6.03135  -6.02889  -6.02720
 Alpha  occ. eigenvalues --   -6.02449  -1.18363  -1.01729  -0.99783  -0.94954
 Alpha  occ. eigenvalues --   -0.86937  -0.85983  -0.84059  -0.80549  -0.79873
 Alpha  occ. eigenvalues --   -0.71010  -0.70283  -0.66248  -0.65001  -0.62383
 Alpha  occ. eigenvalues --   -0.60919  -0.58044  -0.57184  -0.53574  -0.52701
 Alpha  occ. eigenvalues --   -0.52032  -0.50110  -0.49273  -0.47376  -0.46935
 Alpha  occ. eigenvalues --   -0.45840  -0.45167  -0.44581  -0.43761  -0.42321
 Alpha  occ. eigenvalues --   -0.41447  -0.36519  -0.34027  -0.31929  -0.30189
 Alpha  occ. eigenvalues --   -0.27402
 Alpha virt. eigenvalues --    0.01371   0.04917   0.05266   0.05958   0.06064
 Alpha virt. eigenvalues --    0.06654   0.07472   0.07745   0.08315   0.09282
 Alpha virt. eigenvalues --    0.09327   0.09679   0.09895   0.10150   0.10759

 Mulliken charges:
               1
     1  C   -0.211383
     2  C   -0.353640
     3  C    0.633198
     4  C   -0.158291
     5  H    0.145418
     6  S   -0.358723
     7  H    0.190317
     8  C    0.730140
     9  S   -0.408180
    10  C    0.460909
    11  C    0.003630
    12  C   -0.276747
    13  H    0.168826
    14  S   -0.458172
    15  C   -0.143310
    16  C   -0.336847
    17  H    0.191616
    18  H    0.161040
    19  O   -0.247352
    20  H    0.267551
 Sum of Mulliken charges =  -0.00000

 Dipole moment (field-independent basis, Debye):
    X=             -2.2652    Y=              0.7926    Z=             -0.3920  Tot=              2.4317
 Quadrupole moment (field-independent basis, Debye-Ang):
   XX=            -76.4465   YY=            -95.3524   ZZ=           -106.2380
   XY=             -1.2304   XZ=              3.9138   YZ=             -0.0508

 Normal termination of Gaussian 16 at Tue Oct 26 00:03:38 2021.
