 Gaussian 16, Revision C.01,
 Gaussian 16:  ES64L-G16RevC.01  3-Jul-2019

 --------------------------------------
 # opt=modredundant wb97xd/6-311+g(d,p)
 --------------------------------------

 -------------
 pBTTT_-55.pdb
 -------------
 Symbolic Z-matrix:
 Charge =  0 Multiplicity = 1

 SCF Done:  E(RwB97XD) =  -1654.30030664     A.U. after   18 cycles
 SCF Done:  E(RwB97XD) =  -1654.35880098     A.U. after   15 cycles
 SCF Done:  E(RwB97XD) =  -1654.39840265     A.U. after   16 cycles
 SCF Done:  E(RwB97XD) =  -1654.40806102     A.U. after   16 cycles
 SCF Done:  E(RwB97XD) =  -1654.41030307     A.U. after   16 cycles
 SCF Done:  E(RwB97XD) =  -1654.41080959     A.U. after   14 cycles
 SCF Done:  E(RwB97XD) =  -1654.41095978     A.U. after   14 cycles
 SCF Done:  E(RwB97XD) =  -1654.41111297     A.U. after   14 cycles
 SCF Done:  E(RwB97XD) =  -1654.41111772     A.U. after   13 cycles
 SCF Done:  E(RwB97XD) =  -1654.41113319     A.U. after   12 cycles
 SCF Done:  E(RwB97XD) =  -1654.41113740     A.U. after   11 cycles
 SCF Done:  E(RwB97XD) =  -1654.41113765     A.U. after   10 cycles
 Optimization completed.
    -- Stationary point found.

                         Standard orientation:
 ---------------------------------------------------------------------
 Center     Atomic      Atomic             Coordinates (Angstroms)
 Number     Number       Type             X           Y           Z
 ---------------------------------------------------------------------
      1          6           0       -4.001870    0.341385    0.347628
      2          6           0       -2.655923    0.791494    0.478710
      3          6           0       -1.731820   -0.103208    0.007380
      4          6           0       -4.078422   -0.892869   -0.219632
      5          1           0       -4.864632    0.911892    0.669191
      6         16           0       -2.530805   -1.517050   -0.613684
      7          1           0       -4.967382   -1.467277   -0.431231
      8          6           0       -0.277691   -0.007641    0.014538
      9         16           0        0.526636    1.375613   -0.702058
     10          6           0        2.078391    0.690401   -0.366200
     11          6           0        1.952886   -0.540649    0.247849
     12          6           0        0.608042   -0.943757    0.467314
     13          1           0        0.299612   -1.864178    0.943813
     14         16           0        3.507902   -1.218804    0.595970
     15          6           0        4.295498    0.169611   -0.090049
     16          6           0        3.428111    1.105116   -0.558880
     17          1           0        5.374413    0.208630   -0.107079
     18          1           0        3.736623    2.033423   -1.018590
     19          8           0       -2.284991    1.977745    1.022630
     20          1           0       -3.061646    2.460109    1.307262
 ---------------------------------------------------------------------

 The electronic state is 1-A.
 Alpha  occ. eigenvalues --  -89.05259 -89.04646 -89.04382 -19.29116 -10.36089
 Alpha  occ. eigenvalues --  -10.33341 -10.32712 -10.32357 -10.31924 -10.31911
 Alpha  occ. eigenvalues --  -10.31842 -10.30387 -10.30101 -10.30015  -8.09319
 Alpha  occ. eigenvalues --   -8.08692  -8.08419  -6.04156  -6.03774  -6.03541
 Alpha  occ. eigenvalues --   -6.03410  -6.03276  -6.03169  -6.02900  -6.02754
 Alpha  occ. eigenvalues --   -6.02463  -1.18275  -1.01738  -0.99734  -0.94963
 Alpha  occ. eigenvalues --   -0.86906  -0.85963  -0.83996  -0.80574  -0.79876
 Alpha  occ. eigenvalues --   -0.70965  -0.70193  -0.66235  -0.64938  -0.62505
 Alpha  occ. eigenvalues --   -0.60876  -0.58060  -0.57107  -0.53553  -0.52621
 Alpha  occ. eigenvalues --   -0.52000  -0.50061  -0.49371  -0.47370  -0.46945
 Alpha  occ. eigenvalues --   -0.45782  -0.45108  -0.44505  -0.43854  -0.42168
 Alpha  occ. eigenvalues --   -0.41531  -0.36478  -0.33787  -0.31710  -0.30215
 Alpha  occ. eigenvalues --   -0.27802
 Alpha virt. eigenvalues --    0.01672   0.04821   0.05102   0.05994   0.06063
 Alpha virt. eigenvalues --    0.06641   0.07451   0.07586   0.08231   0.09278
 Alpha virt. eigenvalues --    0.09311   0.09734   0.09747   0.10162   0.10777

 Mulliken charges:
               1
     1  C   -0.172388
     2  C   -0.466735
     3  C    0.627652
     4  C   -0.198405
     5  H    0.145554
     6  S   -0.298590
     7  H    0.190288
     8  C    0.888614
     9  S   -0.379732
    10  C    0.463182
    11  C   -0.047150
    12  C   -0.340348
    13  H    0.168660
    14  S   -0.451088
    15  C   -0.152489
    16  C   -0.348043
    17  H    0.191833
    18  H    0.161427
    19  O   -0.248573
    20  H    0.266331
 Sum of Mulliken charges =  -0.00000

 Dipole moment (field-independent basis, Debye):
    X=             -2.1911    Y=              0.7291    Z=              0.4641  Tot=              2.3554
 Quadrupole moment (field-independent basis, Debye-Ang):
   XX=            -76.5455   YY=            -96.2941   ZZ=           -105.1860
   XY=             -1.1356   XZ=             -4.7187   YZ=              0.0501

 Normal termination of Gaussian 16 at Mon Oct 25 23:50:55 2021.
