 Gaussian 16, Revision C.01,
 Gaussian 16:  ES64L-G16RevC.01  3-Jul-2019

 --------------------------------------
 # opt=modredundant wb97xd/6-311+g(d,p)
 --------------------------------------

 ------------
 pBTTT_60.pdb
 ------------
 Symbolic Z-matrix:
 Charge =  0 Multiplicity = 1

 SCF Done:  E(RwB97XD) =  -1654.29922582     A.U. after   18 cycles
 SCF Done:  E(RwB97XD) =  -1654.35767525     A.U. after   15 cycles
 SCF Done:  E(RwB97XD) =  -1654.39758779     A.U. after   16 cycles
 SCF Done:  E(RwB97XD) =  -1654.40742742     A.U. after   15 cycles
 SCF Done:  E(RwB97XD) =  -1654.40992548     A.U. after   15 cycles
 SCF Done:  E(RwB97XD) =  -1654.41058944     A.U. after   14 cycles
 SCF Done:  E(RwB97XD) =  -1654.41079353     A.U. after   14 cycles
 SCF Done:  E(RwB97XD) =  -1654.41096124     A.U. after   14 cycles
 SCF Done:  E(RwB97XD) =  -1654.41097793     A.U. after   13 cycles
 SCF Done:  E(RwB97XD) =  -1654.41098727     A.U. after   12 cycles
 SCF Done:  E(RwB97XD) =  -1654.41098738     A.U. after   11 cycles
 SCF Done:  E(RwB97XD) =  -1654.41098775     A.U. after   11 cycles
 Optimization completed.
    -- Stationary point found.

                         Standard orientation:
 ---------------------------------------------------------------------
 Center     Atomic      Atomic             Coordinates (Angstroms)
 Number     Number       Type             X           Y           Z
 ---------------------------------------------------------------------
      1          6           0        3.998531    0.339966    0.380389
      2          6           0        2.649490    0.777824    0.523245
      3          6           0        1.732784   -0.100247    0.009098
      4          6           0        4.083812   -0.869078   -0.237788
      5          1           0        4.856898    0.900118    0.730661
      6         16           0        2.541500   -1.483773   -0.665478
      7          1           0        4.976851   -1.429976   -0.467823
      8          6           0        0.277376   -0.007936    0.011543
      9         16           0       -0.527408    1.340208   -0.768808
     10          6           0       -2.078917    0.672314   -0.399249
     11          6           0       -1.952749   -0.528905    0.271440
     12          6           0       -0.607466   -0.922267    0.506736
     13          1           0       -0.297591   -1.820222    1.023392
     14         16           0       -3.507278   -1.191138    0.650715
     15          6           0       -4.295680    0.163408   -0.098764
     16          6           0       -3.429040    1.076593   -0.610912
     17          1           0       -5.374627    0.201073   -0.117347
     18          1           0       -3.738268    1.982330   -1.113175
     19          8           0        2.269550    1.937488    1.115543
     20          1           0        3.042477    2.412001    1.422647
 ---------------------------------------------------------------------

 The electronic state is 1-A.
 Alpha  occ. eigenvalues --  -89.05234 -89.04661 -89.04388 -19.29078 -10.36076
 Alpha  occ. eigenvalues --  -10.33304 -10.32698 -10.32302 -10.31943 -10.31925
 Alpha  occ. eigenvalues --  -10.31862 -10.30363 -10.30113 -10.30042  -8.09293
 Alpha  occ. eigenvalues --   -8.08706  -8.08426  -6.04129  -6.03747  -6.03556
 Alpha  occ. eigenvalues --   -6.03385  -6.03282  -6.03183  -6.02907  -6.02769
 Alpha  occ. eigenvalues --   -6.02471  -1.18242  -1.01739  -0.99708  -0.94963
 Alpha  occ. eigenvalues --   -0.86891  -0.85950  -0.83965  -0.80584  -0.79876
 Alpha  occ. eigenvalues --   -0.70943  -0.70154  -0.66229  -0.64907  -0.62563
 Alpha  occ. eigenvalues --   -0.60854  -0.58069  -0.57071  -0.53545  -0.52591
 Alpha  occ. eigenvalues --   -0.51976  -0.50031  -0.49423  -0.47366  -0.46952
 Alpha  occ. eigenvalues --   -0.45767  -0.45076  -0.44462  -0.43891  -0.42097
 Alpha  occ. eigenvalues --   -0.41563  -0.36463  -0.33663  -0.31567  -0.30231
 Alpha  occ. eigenvalues --   -0.28027
 Alpha virt. eigenvalues --    0.01836   0.04680   0.05036   0.05989   0.06073
 Alpha virt. eigenvalues --    0.06610   0.07439   0.07531   0.08190   0.09226
 Alpha virt. eigenvalues --    0.09285   0.09657   0.09782   0.10168   0.10774

 Mulliken charges:
               1
     1  C   -0.101829
     2  C   -0.447279
     3  C    0.359534
     4  C   -0.262069
     5  H    0.145647
     6  S   -0.197526
     7  H    0.190475
     8  C    0.482819
     9  S   -0.478943
    10  C    0.319105
    11  C   -0.598782
    12  C    0.551670
    13  H    0.168025
    14  S   -0.438144
    15  C   -0.207228
    16  C    0.143606
    17  H    0.191922
    18  H    0.161313
    19  O   -0.248445
    20  H    0.266130
 Sum of Mulliken charges =  -0.00000

 Dipole moment (field-independent basis, Debye):
    X=              2.1579    Y=              0.7010    Z=              0.4990  Tot=              2.3231
 Quadrupole moment (field-independent basis, Debye-Ang):
   XX=            -76.6013   YY=            -96.8106   ZZ=           -104.6009
   XY=              1.1154   XZ=              5.1093   YZ=              0.0506

 Normal termination of Gaussian 16 at Tue Oct 26 00:14:17 2021.
