 Gaussian 16, Revision C.01,
 Gaussian 16:  ES64L-G16RevC.01  3-Jul-2019

 --------------------------------------
 # opt=modredundant wb97xd/6-311+g(d,p)
 --------------------------------------

 --------------
 pBTTT_-170.pdb
 --------------
 Symbolic Z-matrix:
 Charge =  0 Multiplicity = 1

 SCF Done:  E(RwB97XD) =  -1654.30181358     A.U. after   18 cycles
 SCF Done:  E(RwB97XD) =  -1654.35995431     A.U. after   16 cycles
 SCF Done:  E(RwB97XD) =  -1654.39939112     A.U. after   17 cycles
 SCF Done:  E(RwB97XD) =  -1654.40888510     A.U. after   17 cycles
 SCF Done:  E(RwB97XD) =  -1654.41123487     A.U. after   15 cycles
 SCF Done:  E(RwB97XD) =  -1654.41182227     A.U. after   14 cycles
 SCF Done:  E(RwB97XD) =  -1654.41193740     A.U. after   14 cycles
 SCF Done:  E(RwB97XD) =  -1654.41214504     A.U. after   13 cycles
 SCF Done:  E(RwB97XD) =  -1654.41214996     A.U. after   13 cycles
 SCF Done:  E(RwB97XD) =  -1654.41216889     A.U. after   12 cycles
 SCF Done:  E(RwB97XD) =  -1654.41217128     A.U. after   11 cycles
 SCF Done:  E(RwB97XD) =  -1654.41217157     A.U. after   10 cycles
 Optimization completed.
    -- Stationary point found.

                         Standard orientation:
 ---------------------------------------------------------------------
 Center     Atomic      Atomic             Coordinates (Angstroms)
 Number     Number       Type             X           Y           Z
 ---------------------------------------------------------------------
      1          6           0        3.917800    0.880445    0.041551
      2          6           0        2.521456    1.156567    0.074787
      3          6           0        1.732868    0.035401   -0.009291
      4          6           0        4.176874   -0.448984   -0.071639
      5          1           0        4.685607    1.642245    0.099141
      6         16           0        2.737498   -1.379458   -0.149448
      7          1           0        5.138527   -0.936001   -0.119374
      8          6           0        0.283088   -0.038571   -0.004071
      9         16           0       -0.525536   -1.593202    0.141832
     10          6           0       -2.079034   -0.833919    0.066144
     11          6           0       -1.949300    0.534660   -0.052597
     12          6           0       -0.606497    0.997682   -0.094831
     13          1           0       -0.300006    2.027929   -0.188523
     14         16           0       -3.503866    1.294179   -0.123332
     15          6           0       -4.294170   -0.247431    0.008710
     16          6           0       -3.426791   -1.290559    0.102493
     17          1           0       -5.373034   -0.289341    0.009456
     18          1           0       -3.735416   -2.322543    0.191764
     19          8           0        1.988592    2.402479    0.177516
     20          1           0        2.688297    3.041819    0.315041
 ---------------------------------------------------------------------

 The electronic state is 1-A.
 Alpha  occ. eigenvalues --  -89.05407 -89.04580 -89.04549 -19.29728 -10.36254
 Alpha  occ. eigenvalues --  -10.33527 -10.32842 -10.32835 -10.31888 -10.31828
 Alpha  occ. eigenvalues --  -10.31819 -10.30565 -10.30094 -10.29509  -8.09483
 Alpha  occ. eigenvalues --   -8.08625  -8.08611  -6.04327  -6.03941  -6.03560
 Alpha  occ. eigenvalues --   -6.03473  -6.03472  -6.03102  -6.03101  -6.02689
 Alpha  occ. eigenvalues --   -6.02639  -1.18753  -1.01762  -0.99916  -0.94964
 Alpha  occ. eigenvalues --   -0.87023  -0.86077  -0.84222  -0.80538  -0.79836
 Alpha  occ. eigenvalues --   -0.71176  -0.70519  -0.66068  -0.65280  -0.62701
 Alpha  occ. eigenvalues --   -0.60770  -0.58192  -0.57057  -0.53727  -0.52984
 Alpha  occ. eigenvalues --   -0.51929  -0.50256  -0.49049  -0.47803  -0.47029
 Alpha  occ. eigenvalues --   -0.45812  -0.45344  -0.44676  -0.43504  -0.42830
 Alpha  occ. eigenvalues --   -0.41361  -0.36755  -0.34565  -0.32290  -0.30326
 Alpha  occ. eigenvalues --   -0.26659
 Alpha virt. eigenvalues --    0.00733   0.04582   0.05313   0.06114   0.06303
 Alpha virt. eigenvalues --    0.06961   0.07423   0.07660   0.08437   0.08767
 Alpha virt. eigenvalues --    0.09342   0.09613   0.09926   0.10748   0.10920

 Mulliken charges:
               1
     1  C   -0.372864
     2  C    0.416564
     3  C    0.513925
     4  C   -0.126971
     5  H    0.144711
     6  S   -0.558126
     7  H    0.189105
     8  C    0.071843
     9  S   -0.623224
    10  C    0.365631
    11  C    0.285443
    12  C    0.048807
    13  H    0.180776
    14  S   -0.454670
    15  C   -0.159228
    16  C   -0.289470
    17  H    0.192015
    18  H    0.159978
    19  O   -0.259989
    20  H    0.275744
 Sum of Mulliken charges =  -0.00000

 Dipole moment (field-independent basis, Debye):
    X=              2.2257    Y=              1.1525    Z=              0.2005  Tot=              2.5144
 Quadrupole moment (field-independent basis, Debye-Ang):
   XX=            -77.6122   YY=            -92.2225   ZZ=           -108.2505
   XY=              9.9194   XZ=              0.5005   YZ=              0.5744

 Normal termination of Gaussian 16 at Mon Oct 25 23:31:22 2021.
