 Gaussian 16, Revision C.01,
 Gaussian 16:  ES64L-G16RevC.01  3-Jul-2019

 --------------------------------------
 # opt=modredundant wb97xd/6-311+g(d,p)
 --------------------------------------

 ------------
 pBTTT_40.pdb
 ------------
 Symbolic Z-matrix:
 Charge =  0 Multiplicity = 1

 SCF Done:  E(RwB97XD) =  -1654.30058736     A.U. after   18 cycles
 SCF Done:  E(RwB97XD) =  -1654.35881756     A.U. after   16 cycles
 SCF Done:  E(RwB97XD) =  -1654.39822160     A.U. after   16 cycles
 SCF Done:  E(RwB97XD) =  -1654.40807982     A.U. after   16 cycles
 SCF Done:  E(RwB97XD) =  -1654.41059909     A.U. after   16 cycles
 SCF Done:  E(RwB97XD) =  -1654.41119868     A.U. after   14 cycles
 SCF Done:  E(RwB97XD) =  -1654.41143275     A.U. after   14 cycles
 SCF Done:  E(RwB97XD) =  -1654.41159373     A.U. after   13 cycles
 SCF Done:  E(RwB97XD) =  -1654.41160605     A.U. after   13 cycles
 SCF Done:  E(RwB97XD) =  -1654.41161504     A.U. after   11 cycles
 SCF Done:  E(RwB97XD) =  -1654.41161509     A.U. after   11 cycles
 SCF Done:  E(RwB97XD) =  -1654.41161530     A.U. after   10 cycles
 Optimization completed.
    -- Stationary point found.

                         Standard orientation:
 ---------------------------------------------------------------------
 Center     Atomic      Atomic             Coordinates (Angstroms)
 Number     Number       Type             X           Y           Z
 ---------------------------------------------------------------------
      1          6           0       -4.009094    0.349208   -0.253636
      2          6           0       -2.668998    0.823774   -0.347405
      3          6           0       -1.729230   -0.113595   -0.005359
      4          6           0       -4.068546   -0.945073    0.159919
      5          1           0       -4.880267    0.947557   -0.490705
      6         16           0       -2.510018   -1.597725    0.456054
      7          1           0       -4.949198   -1.549680    0.313726
      8          6           0       -0.278427   -0.010534   -0.018980
      9         16           0        0.524427    1.458185    0.505186
     10          6           0        2.076959    0.732810    0.270327
     11          6           0        1.953906   -0.567636   -0.177816
     12          6           0        0.610743   -0.996251   -0.347769
     13          1           0        0.307743   -1.970757   -0.705658
     14         16           0        3.510304   -1.282446   -0.434426
     15          6           0        4.295290    0.185029    0.065869
     16          6           0        3.425425    1.171763    0.408269
     17          1           0        5.374095    0.227341    0.080038
     18          1           0        3.731792    2.152539    0.743748
     19          8           0       -2.315924    2.072979   -0.743290
     20          1           0       -3.100343    2.583984   -0.944364
 ---------------------------------------------------------------------

 The electronic state is 1-A.
 Alpha  occ. eigenvalues --  -89.05320 -89.04593 -89.04370 -19.29272 -10.36147
 Alpha  occ. eigenvalues --  -10.33449 -10.32774 -10.32533 -10.31864 -10.31855
 Alpha  occ. eigenvalues --  -10.31755 -10.30465 -10.30054 -10.29923  -8.09385
 Alpha  occ. eigenvalues --   -8.08638  -8.08400  -6.04225  -6.03842  -6.03488
 Alpha  occ. eigenvalues --   -6.03470  -6.03261  -6.03116  -6.02882  -6.02700
 Alpha  occ. eigenvalues --   -6.02440  -1.18417  -1.01722  -0.99806  -0.94947
 Alpha  occ. eigenvalues --   -0.86950  -0.85992  -0.84090  -0.80535  -0.79872
 Alpha  occ. eigenvalues --   -0.71031  -0.70332  -0.66256  -0.65033  -0.62322
 Alpha  occ. eigenvalues --   -0.60941  -0.58041  -0.57222  -0.53586  -0.52748
 Alpha  occ. eigenvalues --   -0.52041  -0.50127  -0.49230  -0.47379  -0.46931
 Alpha  occ. eigenvalues --   -0.45883  -0.45198  -0.44612  -0.43706  -0.42399
 Alpha  occ. eigenvalues --   -0.41393  -0.36545  -0.34132  -0.32010  -0.30178
 Alpha  occ. eigenvalues --   -0.27234
 Alpha virt. eigenvalues --    0.01243   0.04913   0.05360   0.05936   0.06074
 Alpha virt. eigenvalues --    0.06658   0.07482   0.07843   0.08352   0.09252
 Alpha virt. eigenvalues --    0.09346   0.09669   0.09944   0.10183   0.10754

 Mulliken charges:
               1
     1  C   -0.227686
     2  C   -0.261231
     3  C    0.624877
     4  C   -0.144104
     5  H    0.145325
     6  S   -0.392084
     7  H    0.190287
     8  C    0.605543
     9  S   -0.420476
    10  C    0.450697
    11  C    0.047506
    12  C   -0.226997
    13  H    0.168184
    14  S   -0.462140
    15  C   -0.139986
    16  C   -0.331858
    17  H    0.191520
    18  H    0.160801
    19  O   -0.247089
    20  H    0.268910
 Sum of Mulliken charges =  -0.00000

 Dipole moment (field-independent basis, Debye):
    X=             -2.3066    Y=              0.8293    Z=             -0.3423  Tot=              2.4749
 Quadrupole moment (field-independent basis, Debye-Ang):
   XX=            -76.3985   YY=            -94.9242   ZZ=           -106.7081
   XY=             -1.3089   XZ=              3.4639   YZ=             -0.0169

 Normal termination of Gaussian 16 at Tue Oct 26 00:18:23 2021.
