 Gaussian 16, Revision C.01,
 Gaussian 16:  ES64L-G16RevC.01  3-Jul-2019

 --------------------------------------
 # opt=modredundant wb97xd/6-311+g(d,p)
 --------------------------------------

 -------------
 pBTTT_150.pdb
 -------------
 Symbolic Z-matrix:
 Charge =  0 Multiplicity = 1

 SCF Done:  E(RwB97XD) =  -1654.30083740     A.U. after   19 cycles
 SCF Done:  E(RwB97XD) =  -1654.35929676     A.U. after   16 cycles
 SCF Done:  E(RwB97XD) =  -1654.39901364     A.U. after   17 cycles
 SCF Done:  E(RwB97XD) =  -1654.40881916     A.U. after   16 cycles
 SCF Done:  E(RwB97XD) =  -1654.41128200     A.U. after   16 cycles
 SCF Done:  E(RwB97XD) =  -1654.41188689     A.U. after   14 cycles
 SCF Done:  E(RwB97XD) =  -1654.41201521     A.U. after   14 cycles
 SCF Done:  E(RwB97XD) =  -1654.41217404     A.U. after   13 cycles
 SCF Done:  E(RwB97XD) =  -1654.41218362     A.U. after   13 cycles
 SCF Done:  E(RwB97XD) =  -1654.41219920     A.U. after   12 cycles
 SCF Done:  E(RwB97XD) =  -1654.41220140     A.U. after   11 cycles
 SCF Done:  E(RwB97XD) =  -1654.41220182     A.U. after   10 cycles
 Optimization completed.
    -- Stationary point found.

                         Standard orientation:
 ---------------------------------------------------------------------
 Center     Atomic      Atomic             Coordinates (Angstroms)
 Number     Number       Type             X           Y           Z
 ---------------------------------------------------------------------
      1          6           0       -3.913291    0.864326    0.135566
      2          6           0       -2.515653    1.128336    0.212017
      3          6           0       -1.733400    0.031791   -0.048444
      4          6           0       -4.175112   -0.431351   -0.182729
      5          1           0       -4.679653    1.609340    0.310950
      6         16           0       -2.738597   -1.340891   -0.413034
      7          1           0       -5.138762   -0.901190   -0.305652
      8          6           0       -0.283390   -0.046574   -0.036823
      9         16           0        0.522889   -1.550849    0.381684
     10          6           0        2.075896   -0.812248    0.187142
     11          6           0        1.946645    0.519150   -0.154624
     12          6           0        0.603079    0.962761   -0.287106
     13          1           0        0.293610    1.963081   -0.550631
     14         16           0        3.500874    1.259152   -0.340976
     15          6           0        4.291211   -0.239258    0.044478
     16          6           0        3.424390   -1.254609    0.302152
     17          1           0        5.370101   -0.278655    0.058089
     18          1           0        3.733492   -2.257731    0.559925
     19          8           0       -1.975262    2.340055    0.505061
     20          1           0       -2.661606    2.932199    0.814284
 ---------------------------------------------------------------------

 The electronic state is 1-A.
 Alpha  occ. eigenvalues --  -89.05351 -89.04612 -89.04564 -19.29466 -10.36167
 Alpha  occ. eigenvalues --  -10.33402 -10.32787 -10.32665 -10.31918 -10.31864
 Alpha  occ. eigenvalues --  -10.31855 -10.30493 -10.30112 -10.29661  -8.09422
 Alpha  occ. eigenvalues --   -8.08658  -8.08618  -6.04262  -6.03878  -6.03506
 Alpha  occ. eigenvalues --   -6.03505  -6.03477  -6.03133  -6.03106  -6.02721
 Alpha  occ. eigenvalues --   -6.02653  -1.18516  -1.01769  -0.99848  -0.94977
 Alpha  occ. eigenvalues --   -0.86998  -0.86047  -0.84139  -0.80570  -0.79823
 Alpha  occ. eigenvalues --   -0.71098  -0.70358  -0.66096  -0.65130  -0.62763
 Alpha  occ. eigenvalues --   -0.60730  -0.58081  -0.57102  -0.53705  -0.52828
 Alpha  occ. eigenvalues --   -0.51914  -0.50205  -0.49085  -0.47770  -0.46990
 Alpha  occ. eigenvalues --   -0.45825  -0.44990  -0.44649  -0.43738  -0.42582
 Alpha  occ. eigenvalues --   -0.41496  -0.36661  -0.34316  -0.32159  -0.30344
 Alpha  occ. eigenvalues --   -0.26989
 Alpha virt. eigenvalues --    0.01050   0.04667   0.05288   0.06076   0.06286
 Alpha virt. eigenvalues --    0.06949   0.07499   0.07595   0.08324   0.08883
 Alpha virt. eigenvalues --    0.09525   0.09616   0.09772   0.10494   0.10817

 Mulliken charges:
               1
     1  C   -0.252622
     2  C   -0.084148
     3  C    0.518875
     4  C   -0.160821
     5  H    0.146156
     6  S   -0.431309
     7  H    0.189536
     8  C    0.426304
     9  S   -0.575693
    10  C    0.449906
    11  C    0.165539
    12  C    0.026072
    13  H    0.173641
    14  S   -0.453756
    15  C   -0.140427
    16  C   -0.360799
    17  H    0.191854
    18  H    0.160446
    19  O   -0.260068
    20  H    0.271313
 Sum of Mulliken charges =  -0.00000

 Dipole moment (field-independent basis, Debye):
    X=             -2.1228    Y=              1.0611    Z=              0.4872  Tot=              2.4227
 Quadrupole moment (field-independent basis, Debye-Ang):
   XX=            -77.9272   YY=            -93.4913   ZZ=           -106.9658
   XY=             -9.3773   XZ=             -1.0590   YZ=              0.9830

 Normal termination of Gaussian 16 at Tue Oct 26 00:46:08 2021.
