 Gaussian 16, Revision C.01,
 Gaussian 16:  ES64L-G16RevC.01  3-Jul-2019

 --------------------------------------
 # opt=modredundant wb97xd/6-311+g(d,p)
 --------------------------------------

 ------------
 pBTTT_80.pdb
 ------------
 Symbolic Z-matrix:
 Charge =  0 Multiplicity = 1

 SCF Done:  E(RwB97XD) =  -1654.29802320     A.U. after   18 cycles
 SCF Done:  E(RwB97XD) =  -1654.35673896     A.U. after   15 cycles
 SCF Done:  E(RwB97XD) =  -1654.39703807     A.U. after   16 cycles
 SCF Done:  E(RwB97XD) =  -1654.40679956     A.U. after   15 cycles
 SCF Done:  E(RwB97XD) =  -1654.40924136     A.U. after   15 cycles
 SCF Done:  E(RwB97XD) =  -1654.40986787     A.U. after   14 cycles
 SCF Done:  E(RwB97XD) =  -1654.41004306     A.U. after   14 cycles
 SCF Done:  E(RwB97XD) =  -1654.41021534     A.U. after   13 cycles
 SCF Done:  E(RwB97XD) =  -1654.41022716     A.U. after   13 cycles
 SCF Done:  E(RwB97XD) =  -1654.41024182     A.U. after   13 cycles
 SCF Done:  E(RwB97XD) =  -1654.41024635     A.U. after   12 cycles
 SCF Done:  E(RwB97XD) =  -1654.41024673     A.U. after   11 cycles
 SCF Done:  E(RwB97XD) =  -1654.41024689     A.U. after   11 cycles
 Optimization completed.
    -- Stationary point found.

                         Standard orientation:
 ---------------------------------------------------------------------
 Center     Atomic      Atomic             Coordinates (Angstroms)
 Number     Number       Type             X           Y           Z
 ---------------------------------------------------------------------
      1          6           0        3.972012    0.360536    0.524602
      2          6           0        2.601561    0.715997    0.697308
      3          6           0        1.736453   -0.101946    0.022678
      4          6           0        4.122082   -0.724429   -0.282581
      5          1           0        4.797900    0.888483    0.985439
      6         16           0        2.617761   -1.326170   -0.842628
      7          1           0        5.043589   -1.204446   -0.575251
      8          6           0        0.276687   -0.033589   -0.013113
      9         16           0       -0.523923    1.121524   -1.062355
     10          6           0       -2.077298    0.562888   -0.549425
     11          6           0       -1.954330   -0.460805    0.370484
     12          6           0       -0.609623   -0.806145    0.676830
     13          1           0       -0.299459   -1.573515    1.372420
     14         16           0       -3.510467   -1.017940    0.887399
     15          6           0       -4.295143    0.138726   -0.143777
     16          6           0       -3.426772    0.912301   -0.846941
     17          1           0       -5.373999    0.176504   -0.168071
     18          1           0       -3.734023    1.685082   -1.537315
     19          8           0        2.156979    1.748448    1.455081
     20          1           0        2.902441    2.220474    1.827086
 ---------------------------------------------------------------------

 The electronic state is 1-A.
 Alpha  occ. eigenvalues --  -89.05133 -89.04701 -89.04405 -19.28997 -10.36047
 Alpha  occ. eigenvalues --  -10.33169 -10.32675 -10.32127 -10.32003 -10.31974
 Alpha  occ. eigenvalues --  -10.31899 -10.30292 -10.30149 -10.30110  -8.09190
 Alpha  occ. eigenvalues --   -8.08747  -8.08446  -6.04024  -6.03643  -6.03595
 Alpha  occ. eigenvalues --   -6.03299  -6.03286  -6.03223  -6.02926  -6.02809
 Alpha  occ. eigenvalues --   -6.02498  -1.18171  -1.01741  -0.99626  -0.94963
 Alpha  occ. eigenvalues --   -0.86846  -0.85916  -0.83872  -0.80614  -0.79874
 Alpha  occ. eigenvalues --   -0.70874  -0.70050  -0.66214  -0.64793  -0.62778
 Alpha  occ. eigenvalues --   -0.60778  -0.58100  -0.56973  -0.53538  -0.52524
 Alpha  occ. eigenvalues --   -0.51876  -0.49880  -0.49626  -0.47361  -0.46995
 Alpha  occ. eigenvalues --   -0.45774  -0.44955  -0.44318  -0.43988  -0.41899
 Alpha  occ. eigenvalues --   -0.41647  -0.36441  -0.33283  -0.30716  -0.30363
 Alpha  occ. eigenvalues --   -0.29028
 Alpha virt. eigenvalues --    0.02537   0.03936   0.05003   0.05979   0.06191
 Alpha virt. eigenvalues --    0.06604   0.07388   0.07460   0.08067   0.09069
 Alpha virt. eigenvalues --    0.09242   0.09515   0.09876   0.10281   0.10884

 Mulliken charges:
               1
     1  C   -0.091116
     2  C   -0.485837
     3  C    0.336768
     4  C   -0.248142
     5  H    0.146023
     6  S   -0.134227
     7  H    0.190007
     8  C    0.442120
     9  S   -0.489228
    10  C    0.316608
    11  C   -0.538711
    12  C    0.479456
    13  H    0.163946
    14  S   -0.429901
    15  C   -0.207267
    16  C    0.172005
    17  H    0.192287
    18  H    0.161656
    19  O   -0.247643
    20  H    0.271197
 Sum of Mulliken charges =  -0.00000

 Dipole moment (field-independent basis, Debye):
    X=              2.0332    Y=              0.6912    Z=              0.6350  Tot=              2.2394
 Quadrupole moment (field-independent basis, Debye-Ang):
   XX=            -77.0496   YY=            -99.1192   ZZ=           -101.8949
   XY=              1.3878   XZ=              6.4579   YZ=              0.1013

 Normal termination of Gaussian 16 at Tue Oct 26 00:18:20 2021.
