 Gaussian 16, Revision C.01,
 Gaussian 16:  ES64L-G16RevC.01  3-Jul-2019

 --------------------------------------
 # opt=modredundant wb97xd/6-311+g(d,p)
 --------------------------------------

 -------------
 pBTTT_-65.pdb
 -------------
 Symbolic Z-matrix:
 Charge =  0 Multiplicity = 1

 SCF Done:  E(RwB97XD) =  -1654.29919465     A.U. after   18 cycles
 SCF Done:  E(RwB97XD) =  -1654.35787353     A.U. after   15 cycles
 SCF Done:  E(RwB97XD) =  -1654.39790517     A.U. after   16 cycles
 SCF Done:  E(RwB97XD) =  -1654.40758415     A.U. after   16 cycles
 SCF Done:  E(RwB97XD) =  -1654.40986455     A.U. after   16 cycles
 SCF Done:  E(RwB97XD) =  -1654.41038146     A.U. after   14 cycles
 SCF Done:  E(RwB97XD) =  -1654.41059663     A.U. after   14 cycles
 SCF Done:  E(RwB97XD) =  -1654.41075226     A.U. after   14 cycles
 SCF Done:  E(RwB97XD) =  -1654.41075588     A.U. after   13 cycles
 SCF Done:  E(RwB97XD) =  -1654.41077269     A.U. after   13 cycles
 SCF Done:  E(RwB97XD) =  -1654.41077704     A.U. after   11 cycles
 SCF Done:  E(RwB97XD) =  -1654.41077734     A.U. after   11 cycles
 SCF Done:  E(RwB97XD) =  -1654.41077738     A.U. after    9 cycles
 Optimization completed.
    -- Stationary point found.

                         Standard orientation:
 ---------------------------------------------------------------------
 Center     Atomic      Atomic             Coordinates (Angstroms)
 Number     Number       Type             X           Y           Z
 ---------------------------------------------------------------------
      1          6           0       -3.994535    0.338758    0.414176
      2          6           0       -2.642002    0.762878    0.567081
      3          6           0       -1.733799   -0.097471    0.010508
      4          6           0       -4.090070   -0.842376   -0.254535
      5          1           0       -4.847783    0.888254    0.792688
      6         16           0       -2.553849   -1.448018   -0.715214
      7          1           0       -4.987777   -1.387926   -0.502716
      8          6           0       -0.277170   -0.008775    0.007532
      9         16           0        0.528220    1.301132   -0.835042
     10          6           0        2.079404    0.652321   -0.432275
     11          6           0        1.952518   -0.515895    0.294488
     12          6           0        0.606840   -0.898421    0.545722
     13          1           0        0.295614   -1.772105    1.101620
     14         16           0        3.506549   -1.160387    0.704932
     15          6           0        4.295776    0.156384   -0.107953
     16          6           0        3.429929    1.045098   -0.662661
     17          1           0        5.374754    0.192864   -0.127529
     18          1           0        3.739864    1.925965   -1.206950
     19          8           0       -2.251408    1.894297    1.204869
     20          1           0       -3.019491    2.359934    1.536629
 ---------------------------------------------------------------------

 The electronic state is 1-A.
 Alpha  occ. eigenvalues --  -89.05208 -89.04674 -89.04392 -19.29048 -10.36065
 Alpha  occ. eigenvalues --  -10.33268 -10.32689 -10.32250 -10.31960 -10.31938
 Alpha  occ. eigenvalues --  -10.31876 -10.30342 -10.30123 -10.30064  -8.09266
 Alpha  occ. eigenvalues --   -8.08720  -8.08431  -6.04102  -6.03720  -6.03569
 Alpha  occ. eigenvalues --   -6.03360  -6.03285  -6.03196  -6.02911  -6.02782
 Alpha  occ. eigenvalues --   -6.02478  -1.18215  -1.01741  -0.99686  -0.94964
 Alpha  occ. eigenvalues --   -0.86878  -0.85939  -0.83938  -0.80593  -0.79877
 Alpha  occ. eigenvalues --   -0.70923  -0.70121  -0.66224  -0.64878  -0.62620
 Alpha  occ. eigenvalues --   -0.60835  -0.58078  -0.57039  -0.53540  -0.52567
 Alpha  occ. eigenvalues --   -0.51953  -0.49996  -0.49479  -0.47362  -0.46961
 Alpha  occ. eigenvalues --   -0.45758  -0.45047  -0.44421  -0.43923  -0.42035
 Alpha  occ. eigenvalues --   -0.41589  -0.36453  -0.33548  -0.31401  -0.30251
 Alpha  occ. eigenvalues --   -0.28262
 Alpha virt. eigenvalues --    0.02005   0.04515   0.05022   0.05985   0.06100
 Alpha virt. eigenvalues --    0.06605   0.07428   0.07490   0.08153   0.09186
 Alpha virt. eigenvalues --    0.09276   0.09605   0.09822   0.10190   0.10799

 Mulliken charges:
               1
     1  C   -0.084286
     2  C   -0.473656
     3  C    0.338626
     4  C   -0.274162
     5  H    0.145691
     6  S   -0.178146
     7  H    0.190395
     8  C    0.511737
     9  S   -0.474210
    10  C    0.315260
    11  C   -0.572392
    12  C    0.513769
    13  H    0.167523
    14  S   -0.435581
    15  C   -0.208467
    16  C    0.147447
    17  H    0.192031
    18  H    0.161413
    19  O   -0.249715
    20  H    0.266722
 Sum of Mulliken charges =  -0.00000

 Dipole moment (field-independent basis, Debye):
    X=             -2.1269    Y=              0.6740    Z=              0.5409  Tot=              2.2957
 Quadrupole moment (field-independent basis, Debye-Ang):
   XX=            -76.6629   YY=            -97.3727   ZZ=           -103.9657
   XY=             -1.0953   XZ=             -5.4951   YZ=              0.0647

 Normal termination of Gaussian 16 at Tue Oct 26 00:05:14 2021.
