 Gaussian 16, Revision C.01,
 Gaussian 16:  ES64L-G16RevC.01  3-Jul-2019

 --------------------------------------
 # opt=modredundant wb97xd/6-311+g(d,p)
 --------------------------------------

 -------------
 pBTTT_-40.pdb
 -------------
 Symbolic Z-matrix:
 Charge =  0 Multiplicity = 1

 SCF Done:  E(RwB97XD) =  -1654.30166393     A.U. after   18 cycles
 SCF Done:  E(RwB97XD) =  -1654.35990610     A.U. after   15 cycles
 SCF Done:  E(RwB97XD) =  -1654.39895203     A.U. after   16 cycles
 SCF Done:  E(RwB97XD) =  -1654.40858964     A.U. after   16 cycles
 SCF Done:  E(RwB97XD) =  -1654.41081267     A.U. after   15 cycles
 SCF Done:  E(RwB97XD) =  -1654.41127621     A.U. after   14 cycles
 SCF Done:  E(RwB97XD) =  -1654.41143294     A.U. after   14 cycles
 SCF Done:  E(RwB97XD) =  -1654.41158607     A.U. after   14 cycles
 SCF Done:  E(RwB97XD) =  -1654.41159507     A.U. after   13 cycles
 SCF Done:  E(RwB97XD) =  -1654.41161090     A.U. after   13 cycles
 SCF Done:  E(RwB97XD) =  -1654.41161454     A.U. after   11 cycles
 SCF Done:  E(RwB97XD) =  -1654.41161483     A.U. after   10 cycles
 Optimization completed.
    -- Stationary point found.

                         Standard orientation:
 ---------------------------------------------------------------------
 Center     Atomic      Atomic             Coordinates (Angstroms)
 Number     Number       Type             X           Y           Z
 ---------------------------------------------------------------------
      1          6           0       -4.009105    0.349073    0.253768
      2          6           0       -2.669039    0.823702    0.347403
      3          6           0       -1.729228   -0.113666    0.005392
      4          6           0       -4.068541   -0.945068   -0.160260
      5          1           0       -4.880324    0.947421    0.490658
      6         16           0       -2.509974   -1.597802   -0.455939
      7          1           0       -4.949158   -1.549639   -0.314397
      8          6           0       -0.278448   -0.010458    0.019376
      9         16           0        0.524389    1.458283   -0.504864
     10          6           0        2.076941    0.732768   -0.270470
     11          6           0        1.953916   -0.567657    0.177734
     12          6           0        0.610774   -0.996083    0.348331
     13          1           0        0.307846   -1.970700    0.705983
     14         16           0        3.510336   -1.282540    0.434085
     15          6           0        4.295289    0.185064   -0.065914
     16          6           0        3.425398    1.171809   -0.408235
     17          1           0        5.374094    0.227517   -0.079709
     18          1           0        3.731735    2.152616   -0.743651
     19          8           0       -2.315950    2.073059    0.742828
     20          1           0       -3.100364    2.584343    0.943229
 ---------------------------------------------------------------------

 The electronic state is 1-A.
 Alpha  occ. eigenvalues --  -89.05321 -89.04593 -89.04370 -19.29272 -10.36148
 Alpha  occ. eigenvalues --  -10.33449 -10.32774 -10.32533 -10.31864 -10.31855
 Alpha  occ. eigenvalues --  -10.31755 -10.30465 -10.30054 -10.29923  -8.09386
 Alpha  occ. eigenvalues --   -8.08638  -8.08400  -6.04226  -6.03843  -6.03488
 Alpha  occ. eigenvalues --   -6.03471  -6.03260  -6.03115  -6.02882  -6.02700
 Alpha  occ. eigenvalues --   -6.02440  -1.18417  -1.01722  -0.99806  -0.94947
 Alpha  occ. eigenvalues --   -0.86950  -0.85992  -0.84091  -0.80535  -0.79871
 Alpha  occ. eigenvalues --   -0.71031  -0.70333  -0.66255  -0.65033  -0.62322
 Alpha  occ. eigenvalues --   -0.60941  -0.58040  -0.57222  -0.53586  -0.52748
 Alpha  occ. eigenvalues --   -0.52042  -0.50126  -0.49230  -0.47380  -0.46931
 Alpha  occ. eigenvalues --   -0.45883  -0.45198  -0.44613  -0.43705  -0.42399
 Alpha  occ. eigenvalues --   -0.41393  -0.36544  -0.34132  -0.32010  -0.30177
 Alpha  occ. eigenvalues --   -0.27234
 Alpha virt. eigenvalues --    0.01244   0.04912   0.05360   0.05936   0.06074
 Alpha virt. eigenvalues --    0.06658   0.07482   0.07843   0.08352   0.09252
 Alpha virt. eigenvalues --    0.09346   0.09669   0.09944   0.10184   0.10754

 Mulliken charges:
               1
     1  C   -0.227836
     2  C   -0.261623
     3  C    0.624883
     4  C   -0.144065
     5  H    0.145330
     6  S   -0.392052
     7  H    0.190295
     8  C    0.606095
     9  S   -0.420376
    10  C    0.450295
    11  C    0.047919
    12  C   -0.226679
    13  H    0.168158
    14  S   -0.462144
    15  C   -0.140098
    16  C   -0.332227
    17  H    0.191522
    18  H    0.160801
    19  O   -0.247129
    20  H    0.268931
 Sum of Mulliken charges =  -0.00000

 Dipole moment (field-independent basis, Debye):
    X=             -2.3071    Y=              0.8297    Z=              0.3412  Tot=              2.4754
 Quadrupole moment (field-independent basis, Debye-Ang):
   XX=            -76.3976   YY=            -94.9207   ZZ=           -106.7114
   XY=             -1.3103   XZ=             -3.4550   YZ=              0.0152

 Normal termination of Gaussian 16 at Tue Oct 26 00:12:34 2021.
