 Gaussian 16, Revision C.01,
 Gaussian 16:  ES64L-G16RevC.01  3-Jul-2019

 --------------------------------------
 # opt=modredundant wb97xd/6-311+g(d,p)
 --------------------------------------

 -------------
 pBTTT_-85.pdb
 -------------
 Symbolic Z-matrix:
 Charge =  0 Multiplicity = 1

 SCF Done:  E(RwB97XD) =  -1654.29800771     A.U. after   17 cycles
 SCF Done:  E(RwB97XD) =  -1654.35678044     A.U. after   15 cycles
 SCF Done:  E(RwB97XD) =  -1654.39722262     A.U. after   16 cycles
 SCF Done:  E(RwB97XD) =  -1654.40688512     A.U. after   15 cycles
 SCF Done:  E(RwB97XD) =  -1654.40921631     A.U. after   15 cycles
 SCF Done:  E(RwB97XD) =  -1654.40974464     A.U. after   14 cycles
 SCF Done:  E(RwB97XD) =  -1654.40994551     A.U. after   14 cycles
 SCF Done:  E(RwB97XD) =  -1654.41012614     A.U. after   14 cycles
 SCF Done:  E(RwB97XD) =  -1654.41012955     A.U. after   13 cycles
 SCF Done:  E(RwB97XD) =  -1654.41015408     A.U. after   13 cycles
 SCF Done:  E(RwB97XD) =  -1654.41015864     A.U. after   11 cycles
 SCF Done:  E(RwB97XD) =  -1654.41015876     A.U. after   11 cycles
 SCF Done:  E(RwB97XD) =  -1654.41015871     A.U. after   11 cycles
 Optimization completed.
    -- Stationary point found.

                         Standard orientation:
 ---------------------------------------------------------------------
 Center     Atomic      Atomic             Coordinates (Angstroms)
 Number     Number       Type             X           Y           Z
 ---------------------------------------------------------------------
      1          6           0        3.962738    0.387027   -0.549416
      2          6           0        2.586459    0.724521   -0.712396
      3          6           0        1.737213   -0.101583   -0.027931
      4          6           0        4.132653   -0.692231    0.261398
      5          1           0        4.778340    0.923783   -1.018307
      6         16           0        2.640596   -1.311807    0.834535
      7          1           0        5.062447   -1.159071    0.549183
      8          6           0        0.277005   -0.044006    0.020932
      9         16           0       -0.523371    1.011526    1.170750
     10          6           0       -2.076806    0.506999    0.604883
     11          6           0       -1.953986   -0.424478   -0.408336
     12          6           0       -0.609347   -0.743476   -0.742446
     13          1           0       -0.299007   -1.442068   -1.506940
     14         16           0       -3.510177   -0.927847   -0.977571
     15          6           0       -4.294658    0.125624    0.158966
     16          6           0       -3.426220    0.827525    0.933593
     17          1           0       -5.373491    0.162897    0.185100
     18          1           0       -3.733340    1.531082    1.694432
     19          8           0        2.122815    1.749870   -1.468325
     20          1           0        2.859467    2.238918   -1.835767
 ---------------------------------------------------------------------

 The electronic state is 1-A.
 Alpha  occ. eigenvalues --  -89.05118 -89.04705 -89.04414 -19.28989 -10.36045
 Alpha  occ. eigenvalues --  -10.33148 -10.32675 -10.32108 -10.32010 -10.31983
 Alpha  occ. eigenvalues --  -10.31903 -10.30284 -10.30155 -10.30111  -8.09176
 Alpha  occ. eigenvalues --   -8.08751  -8.08456  -6.04010  -6.03629  -6.03599
 Alpha  occ. eigenvalues --   -6.03307  -6.03272  -6.03227  -6.02935  -6.02813
 Alpha  occ. eigenvalues --   -6.02508  -1.18162  -1.01742  -0.99617  -0.94963
 Alpha  occ. eigenvalues --   -0.86844  -0.85911  -0.83862  -0.80617  -0.79871
 Alpha  occ. eigenvalues --   -0.70866  -0.70037  -0.66211  -0.64775  -0.62818
 Alpha  occ. eigenvalues --   -0.60763  -0.58101  -0.56963  -0.53542  -0.52518
 Alpha  occ. eigenvalues --   -0.51858  -0.49851  -0.49655  -0.47366  -0.47004
 Alpha  occ. eigenvalues --   -0.45782  -0.44928  -0.44296  -0.44002  -0.41880
 Alpha  occ. eigenvalues --   -0.41660  -0.36441  -0.33242  -0.30508  -0.30422
 Alpha  occ. eigenvalues --   -0.29210
 Alpha virt. eigenvalues --    0.02664   0.03786   0.05001   0.05985   0.06209
 Alpha virt. eigenvalues --    0.06616   0.07383   0.07469   0.08053   0.09042
 Alpha virt. eigenvalues --    0.09241   0.09499   0.09875   0.10299   0.10863

 Mulliken charges:
               1
     1  C   -0.108032
     2  C   -0.447758
     3  C    0.321110
     4  C   -0.233787
     5  H    0.146163
     6  S   -0.124713
     7  H    0.189892
     8  C    0.374782
     9  S   -0.491315
    10  C    0.302799
    11  C   -0.533992
    12  C    0.512047
    13  H    0.162720
    14  S   -0.428523
    15  C   -0.207216
    16  C    0.181780
    17  H    0.192300
    18  H    0.161683
    19  O   -0.242941
    20  H    0.273003
 Sum of Mulliken charges =  -0.00000

 Dipole moment (field-independent basis, Debye):
    X=              2.0077    Y=              0.7293    Z=             -0.6462  Tot=              2.2317
 Quadrupole moment (field-independent basis, Debye-Ang):
   XX=            -77.2071   YY=            -99.7108   ZZ=           -101.1927
   XY=              1.7384   XZ=             -6.6879   YZ=             -0.1378

 Normal termination of Gaussian 16 at Mon Oct 25 23:59:36 2021.
