 Gaussian 16, Revision C.01,
 Gaussian 16:  ES64L-G16RevC.01  3-Jul-2019

 --------------------------------------
 # opt=modredundant wb97xd/6-311+g(d,p)
 --------------------------------------

 --------------
 pBTTT_-155.pdb
 --------------
 Symbolic Z-matrix:
 Charge =  0 Multiplicity = 1

 SCF Done:  E(RwB97XD) =  -1654.30173386     A.U. after   18 cycles
 SCF Done:  E(RwB97XD) =  -1654.35990359     A.U. after   16 cycles
 SCF Done:  E(RwB97XD) =  -1654.39951699     A.U. after   17 cycles
 SCF Done:  E(RwB97XD) =  -1654.40897653     A.U. after   16 cycles
 SCF Done:  E(RwB97XD) =  -1654.41128788     A.U. after   15 cycles
 SCF Done:  E(RwB97XD) =  -1654.41185985     A.U. after   14 cycles
 SCF Done:  E(RwB97XD) =  -1654.41200384     A.U. after   14 cycles
 SCF Done:  E(RwB97XD) =  -1654.41221684     A.U. after   13 cycles
 SCF Done:  E(RwB97XD) =  -1654.41222719     A.U. after   13 cycles
 SCF Done:  E(RwB97XD) =  -1654.41224975     A.U. after   12 cycles
 SCF Done:  E(RwB97XD) =  -1654.41225275     A.U. after   11 cycles
 SCF Done:  E(RwB97XD) =  -1654.41225301     A.U. after   10 cycles
 Optimization completed.
    -- Stationary point found.

                         Standard orientation:
 ---------------------------------------------------------------------
 Center     Atomic      Atomic             Coordinates (Angstroms)
 Number     Number       Type             X           Y           Z
 ---------------------------------------------------------------------
      1          6           0        3.914867    0.869482    0.110340
      2          6           0        2.517807    1.137411    0.179281
      3          6           0        1.733222    0.032389   -0.036543
      4          6           0        4.175161   -0.437374   -0.159264
      5          1           0        4.682043    1.620060    0.255924
      6         16           0        2.737198   -1.353675   -0.351271
      7          1           0        5.137937   -0.912850   -0.265988
      8          6           0        0.283410   -0.043750   -0.025287
      9         16           0       -0.524044   -1.564672    0.327162
     10          6           0       -2.076891   -0.819322    0.158321
     11          6           0       -1.947031    0.524568   -0.129220
     12          6           0       -0.603497    0.974559   -0.238280
     13          1           0       -0.294602    1.984621   -0.461389
     14         16           0       -3.501097    1.270982   -0.289966
     15          6           0       -4.291928   -0.241905    0.032750
     16          6           0       -3.425323   -1.266391    0.252472
     17          1           0       -5.370829   -0.282169    0.041650
     18          1           0       -3.734642   -2.279109    0.469184
     19          8           0        1.979876    2.360419    0.427120
     20          1           0        2.669382    2.965934    0.701444
 ---------------------------------------------------------------------

 The electronic state is 1-A.
 Alpha  occ. eigenvalues --  -89.05369 -89.04604 -89.04562 -19.29539 -10.36187
 Alpha  occ. eigenvalues --  -10.33439 -10.32800 -10.32715 -10.31910 -10.31853
 Alpha  occ. eigenvalues --  -10.31846 -10.30514 -10.30107 -10.29619  -8.09440
 Alpha  occ. eigenvalues --   -8.08649  -8.08618  -6.04282  -6.03898  -6.03522
 Alpha  occ. eigenvalues --   -6.03497  -6.03478  -6.03125  -6.03107  -6.02713
 Alpha  occ. eigenvalues --   -6.02651  -1.18578  -1.01768  -0.99868  -0.94975
 Alpha  occ. eigenvalues --   -0.87006  -0.86058  -0.84163  -0.80562  -0.79825
 Alpha  occ. eigenvalues --   -0.71121  -0.70403  -0.66088  -0.65174  -0.62744
 Alpha  occ. eigenvalues --   -0.60740  -0.58110  -0.57090  -0.53714  -0.52870
 Alpha  occ. eigenvalues --   -0.51919  -0.50224  -0.49064  -0.47788  -0.47005
 Alpha  occ. eigenvalues --   -0.45821  -0.45074  -0.44665  -0.43677  -0.42651
 Alpha  occ. eigenvalues --   -0.41461  -0.36691  -0.34397  -0.32202  -0.30344
 Alpha  occ. eigenvalues --   -0.26881
 Alpha virt. eigenvalues --    0.00949   0.04652   0.05310   0.06080   0.06295
 Alpha virt. eigenvalues --    0.06956   0.07478   0.07619   0.08351   0.08846
 Alpha virt. eigenvalues --    0.09510   0.09602   0.09806   0.10564   0.10840

 Mulliken charges:
               1
     1  C   -0.267484
     2  C    0.008304
     3  C    0.509912
     4  C   -0.150796
     5  H    0.145819
     6  S   -0.460079
     7  H    0.189325
     8  C    0.350684
     9  S   -0.588457
    10  C    0.442842
    11  C    0.198887
    12  C    0.033489
    13  H    0.175236
    14  S   -0.454008
    15  C   -0.144104
    16  C   -0.353368
    17  H    0.191859
    18  H    0.160292
    19  O   -0.260915
    20  H    0.272564
 Sum of Mulliken charges =  -0.00000

 Dipole moment (field-independent basis, Debye):
    X=              2.1492    Y=              1.0857    Z=              0.4223  Tot=              2.4446
 Quadrupole moment (field-independent basis, Debye-Ang):
   XX=            -77.8455   YY=            -93.1107   ZZ=           -107.3561
   XY=              9.5362   XZ=              0.9523   YZ=              0.9428

 Normal termination of Gaussian 16 at Mon Oct 25 23:38:36 2021.
