 Gaussian 16, Revision C.01,
 Gaussian 16:  ES64L-G16RevC.01  3-Jul-2019

 --------------------------------------
 # opt=modredundant wb97xd/6-311+g(d,p)
 --------------------------------------

 ------------
 pBTTT_55.pdb
 ------------
 Symbolic Z-matrix:
 Charge =  0 Multiplicity = 1

 SCF Done:  E(RwB97XD) =  -1654.29965263     A.U. after   18 cycles
 SCF Done:  E(RwB97XD) =  -1654.35801995     A.U. after   16 cycles
 SCF Done:  E(RwB97XD) =  -1654.39779582     A.U. after   16 cycles
 SCF Done:  E(RwB97XD) =  -1654.40761855     A.U. after   15 cycles
 SCF Done:  E(RwB97XD) =  -1654.41012697     A.U. after   15 cycles
 SCF Done:  E(RwB97XD) =  -1654.41078913     A.U. after   14 cycles
 SCF Done:  E(RwB97XD) =  -1654.41094276     A.U. after   14 cycles
 SCF Done:  E(RwB97XD) =  -1654.41111397     A.U. after   13 cycles
 SCF Done:  E(RwB97XD) =  -1654.41112899     A.U. after   13 cycles
 SCF Done:  E(RwB97XD) =  -1654.41113795     A.U. after   11 cycles
 SCF Done:  E(RwB97XD) =  -1654.41113796     A.U. after   11 cycles
 SCF Done:  E(RwB97XD) =  -1654.41113875     A.U. after   11 cycles
 Optimization completed.
    -- Stationary point found.

                         Standard orientation:
 ---------------------------------------------------------------------
 Center     Atomic      Atomic             Coordinates (Angstroms)
 Number     Number       Type             X           Y           Z
 ---------------------------------------------------------------------
      1          6           0        4.001762    0.341900    0.347659
      2          6           0        2.655670    0.791586    0.478849
      3          6           0        1.731834   -0.103314    0.007386
      4          6           0        4.078632   -0.892518   -0.219182
      5          1           0        4.864338    0.912560    0.669453
      6         16           0        2.531221   -1.516895   -0.613783
      7          1           0        4.967743   -1.466810   -0.430462
      8          6           0        0.277674   -0.007982    0.014023
      9         16           0       -0.526613    1.375339   -0.702446
     10          6           0       -2.078378    0.690402   -0.366109
     11          6           0       -1.952917   -0.540706    0.247850
     12          6           0       -0.608071   -0.944218    0.466549
     13          1           0       -0.299599   -1.864535    0.943229
     14         16           0       -3.507948   -1.218593    0.596385
     15          6           0       -4.295507    0.169584   -0.090142
     16          6           0       -3.428084    1.105124   -0.558861
     17          1           0       -5.374420    0.208465   -0.107497
     18          1           0       -3.736575    2.033423   -1.018604
     19          8           0        2.284411    1.977530    1.023143
     20          1           0        3.060978    2.459878    1.308108
 ---------------------------------------------------------------------

 The electronic state is 1-A.
 Alpha  occ. eigenvalues --  -89.05258 -89.04647 -89.04382 -19.29116 -10.36089
 Alpha  occ. eigenvalues --  -10.33342 -10.32712 -10.32357 -10.31924 -10.31911
 Alpha  occ. eigenvalues --  -10.31843 -10.30386 -10.30101 -10.30015  -8.09319
 Alpha  occ. eigenvalues --   -8.08692  -8.08419  -6.04156  -6.03773  -6.03541
 Alpha  occ. eigenvalues --   -6.03409  -6.03277  -6.03169  -6.02901  -6.02754
 Alpha  occ. eigenvalues --   -6.02463  -1.18275  -1.01738  -0.99734  -0.94963
 Alpha  occ. eigenvalues --   -0.86906  -0.85963  -0.83996  -0.80574  -0.79876
 Alpha  occ. eigenvalues --   -0.70965  -0.70193  -0.66235  -0.64938  -0.62505
 Alpha  occ. eigenvalues --   -0.60875  -0.58060  -0.57107  -0.53553  -0.52622
 Alpha  occ. eigenvalues --   -0.51999  -0.50063  -0.49370  -0.47370  -0.46945
 Alpha  occ. eigenvalues --   -0.45782  -0.45108  -0.44504  -0.43855  -0.42167
 Alpha  occ. eigenvalues --   -0.41532  -0.36478  -0.33787  -0.31709  -0.30215
 Alpha  occ. eigenvalues --   -0.27802
 Alpha virt. eigenvalues --    0.01671   0.04823   0.05101   0.05994   0.06063
 Alpha virt. eigenvalues --    0.06641   0.07451   0.07586   0.08231   0.09278
 Alpha virt. eigenvalues --    0.09311   0.09734   0.09747   0.10161   0.10778

 Mulliken charges:
               1
     1  C   -0.172624
     2  C   -0.465792
     3  C    0.627653
     4  C   -0.198309
     5  H    0.145552
     6  S   -0.298616
     7  H    0.190281
     8  C    0.887767
     9  S   -0.379860
    10  C    0.463731
    11  C   -0.047624
    12  C   -0.340667
    13  H    0.168682
    14  S   -0.451064
    15  C   -0.152415
    16  C   -0.347764
    17  H    0.191834
    18  H    0.161426
    19  O   -0.248511
    20  H    0.266320
 Sum of Mulliken charges =  -0.00000

 Dipole moment (field-independent basis, Debye):
    X=              2.1906    Y=              0.7296    Z=              0.4649  Tot=              2.3552
 Quadrupole moment (field-independent basis, Debye-Ang):
   XX=            -76.5493   YY=            -96.2949   ZZ=           -105.1833
   XY=              1.1363   XZ=              4.7245   YZ=              0.0509

 Normal termination of Gaussian 16 at Tue Oct 26 00:14:51 2021.
