 Gaussian 16, Revision C.01,
 Gaussian 16:  ES64L-G16RevC.01  3-Jul-2019

 --------------------------------------
 # opt=modredundant wb97xd/6-311+g(d,p)
 --------------------------------------

 ------------
 pBTTT_15.pdb
 ------------
 Symbolic Z-matrix:
 Charge =  0 Multiplicity = 1

 SCF Done:  E(RwB97XD) =  -1654.30211318     A.U. after   18 cycles
 SCF Done:  E(RwB97XD) =  -1654.36012353     A.U. after   16 cycles
 SCF Done:  E(RwB97XD) =  -1654.39865194     A.U. after   17 cycles
 SCF Done:  E(RwB97XD) =  -1654.40844431     A.U. after   16 cycles
 SCF Done:  E(RwB97XD) =  -1654.41083241     A.U. after   15 cycles
 SCF Done:  E(RwB97XD) =  -1654.41149114     A.U. after   14 cycles
 SCF Done:  E(RwB97XD) =  -1654.41164910     A.U. after   14 cycles
 SCF Done:  E(RwB97XD) =  -1654.41182763     A.U. after   14 cycles
 SCF Done:  E(RwB97XD) =  -1654.41184275     A.U. after   13 cycles
 SCF Done:  E(RwB97XD) =  -1654.41185959     A.U. after   12 cycles
 SCF Done:  E(RwB97XD) =  -1654.41186330     A.U. after   12 cycles
 SCF Done:  E(RwB97XD) =  -1654.41186447     A.U. after   11 cycles
 SCF Done:  E(RwB97XD) =  -1654.41186449     A.U. after   10 cycles
 Optimization completed.
    -- Stationary point found.

                         Standard orientation:
 ---------------------------------------------------------------------
 Center     Atomic      Atomic             Coordinates (Angstroms)
 Number     Number       Type             X           Y           Z
 ---------------------------------------------------------------------
      1          6           0       -4.014131    0.373048   -0.092363
      2          6           0       -2.673726    0.853920   -0.132981
      3          6           0       -1.727052   -0.130612   -0.009243
      4          6           0       -4.070149   -0.975031    0.067815
      5          1           0       -4.886902    1.008037   -0.181572
      6         16           0       -2.506927   -1.676224    0.176709
      7          1           0       -4.948415   -1.598914    0.130496
      8          6           0       -0.279041   -0.022360   -0.019163
      9         16           0        0.520954    1.528900    0.182647
     10          6           0        2.075068    0.772327    0.107456
     11          6           0        1.957490   -0.591799   -0.066643
     12          6           0        0.617129   -1.050234   -0.144061
     13          1           0        0.325018   -2.081433   -0.289676
     14         16           0        3.516662   -1.339762   -0.162830
     15          6           0        4.296151    0.201770    0.032757
     16          6           0        3.421649    1.234235    0.162925
     17          1           0        5.374743    0.249694    0.042551
     18          1           0        3.723931    2.263793    0.293565
     19          8           0       -2.324197    2.156436   -0.286560
     20          1           0       -3.106149    2.709126   -0.286304
 ---------------------------------------------------------------------

 The electronic state is 1-A.
 Alpha  occ. eigenvalues --  -89.05390 -89.04494 -89.04341 -19.29575 -10.36270
 Alpha  occ. eigenvalues --  -10.33580 -10.32911 -10.32787 -10.31783 -10.31734
 Alpha  occ. eigenvalues --  -10.31550 -10.30587 -10.29963 -10.29790  -8.09464
 Alpha  occ. eigenvalues --   -8.08539  -8.08355  -6.04309  -6.03925  -6.03538
 Alpha  occ. eigenvalues --   -6.03389  -6.03219  -6.03017  -6.02835  -6.02599
 Alpha  occ. eigenvalues --   -6.02391  -1.18699  -1.01663  -0.99896  -0.94891
 Alpha  occ. eigenvalues --   -0.86997  -0.86014  -0.84224  -0.80462  -0.79859
 Alpha  occ. eigenvalues --   -0.71116  -0.70559  -0.66293  -0.65160  -0.62065
 Alpha  occ. eigenvalues --   -0.61043  -0.58082  -0.57348  -0.53644  -0.52992
 Alpha  occ. eigenvalues --   -0.52058  -0.50147  -0.49110  -0.47383  -0.46920
 Alpha  occ. eigenvalues --   -0.46121  -0.45334  -0.44671  -0.43399  -0.42769
 Alpha  occ. eigenvalues --   -0.41058  -0.36684  -0.34467  -0.32271  -0.30152
 Alpha  occ. eigenvalues --   -0.26662
 Alpha virt. eigenvalues --    0.00813   0.04796   0.05660   0.05862   0.06113
 Alpha virt. eigenvalues --    0.06659   0.07510   0.08347   0.08500   0.09047
 Alpha virt. eigenvalues --    0.09413   0.09682   0.09926   0.10599   0.10806

 Mulliken charges:
               1
     1  C   -0.352946
     2  C    0.334410
     3  C    0.563156
     4  C   -0.160386
     5  H    0.145127
     6  S   -0.550701
     7  H    0.190398
     8  C    0.032314
     9  S   -0.454993
    10  C    0.223691
    11  C    0.342307
    12  C    0.050517
    13  H    0.162256
    14  S   -0.479618
    15  C   -0.147291
    16  C   -0.279428
    17  H    0.191165
    18  H    0.159225
    19  O   -0.246596
    20  H    0.277395
 Sum of Mulliken charges =  -0.00000

 Dipole moment (field-independent basis, Debye):
    X=             -2.5147    Y=              0.9799    Z=             -0.0134  Tot=              2.6989
 Quadrupole moment (field-independent basis, Debye-Ang):
   XX=            -76.2793   YY=            -93.4088   ZZ=           -108.2997
   XY=             -1.6749   XZ=              0.9042   YZ=              0.3871

 Normal termination of Gaussian 16 at Tue Oct 26 00:02:38 2021.
