 Gaussian 16, Revision C.01,
 Gaussian 16:  ES64L-G16RevC.01  3-Jul-2019

 --------------------------------------
 # opt=modredundant wb97xd/6-311+g(d,p)
 --------------------------------------

 --------------
 pBTTT_-130.pdb
 --------------
 Symbolic Z-matrix:
 Charge =  0 Multiplicity = 1

 SCF Done:  E(RwB97XD) =  -1654.29985253     A.U. after   18 cycles
 SCF Done:  E(RwB97XD) =  -1654.35831474     A.U. after   15 cycles
 SCF Done:  E(RwB97XD) =  -1654.39840743     A.U. after   16 cycles
 SCF Done:  E(RwB97XD) =  -1654.40806263     A.U. after   15 cycles
 SCF Done:  E(RwB97XD) =  -1654.41050884     A.U. after   15 cycles
 SCF Done:  E(RwB97XD) =  -1654.41107905     A.U. after   14 cycles
 SCF Done:  E(RwB97XD) =  -1654.41123907     A.U. after   13 cycles
 SCF Done:  E(RwB97XD) =  -1654.41142691     A.U. after   14 cycles
 SCF Done:  E(RwB97XD) =  -1654.41144616     A.U. after   13 cycles
 SCF Done:  E(RwB97XD) =  -1654.41146956     A.U. after   12 cycles
 SCF Done:  E(RwB97XD) =  -1654.41147281     A.U. after   11 cycles
 SCF Done:  E(RwB97XD) =  -1654.41147307     A.U. after   10 cycles
 Optimization completed.
    -- Stationary point found.

                         Standard orientation:
 ---------------------------------------------------------------------
 Center     Atomic      Atomic             Coordinates (Angstroms)
 Number     Number       Type             X           Y           Z
 ---------------------------------------------------------------------
      1          6           0        3.909901    0.829055    0.228080
      2          6           0        2.510438    1.075248    0.340877
      3          6           0        1.734807    0.031982   -0.092595
      4          6           0        4.175162   -0.403224   -0.282691
      5          1           0        4.674629    1.539037    0.518331
      6         16           0        2.742553   -1.271120   -0.651894
      7          1           0        5.141302   -0.845289   -0.472275
      8          6           0        0.282518   -0.056451   -0.078026
      9         16           0       -0.516429   -1.468095    0.595853
     10          6           0       -2.071537   -0.768982    0.301934
     11          6           0       -1.948108    0.488837   -0.255221
     12          6           0       -0.605382    0.899689   -0.476082
     13          1           0       -0.297112    1.843787   -0.901388
     14         16           0       -3.504904    1.189403   -0.544608
     15          6           0       -4.289217   -0.225144    0.089151
     16          6           0       -3.419251   -1.185661    0.499843
     17          1           0       -5.367891   -0.260291    0.121516
     18          1           0       -3.725106   -2.132731    0.921446
     19          8           0        1.963803    2.222138    0.819585
     20          1           0        2.648247    2.763280    1.214467
 ---------------------------------------------------------------------

 The electronic state is 1-A.
 Alpha  occ. eigenvalues --  -89.05257 -89.04649 -89.04540 -19.29196 -10.36114
 Alpha  occ. eigenvalues --  -10.33256 -10.32743 -10.32431 -10.31948 -10.31918
 Alpha  occ. eigenvalues --  -10.31885 -10.30407 -10.30132 -10.29837  -8.09323
 Alpha  occ. eigenvalues --   -8.08694  -8.08587  -6.04160  -6.03777  -6.03542
 Alpha  occ. eigenvalues --   -6.03443  -6.03412  -6.03170  -6.03072  -6.02758
 Alpha  occ. eigenvalues --   -6.02630  -1.18304  -1.01757  -0.99753  -0.94973
 Alpha  occ. eigenvalues --   -0.86944  -0.85989  -0.84025  -0.80592  -0.79825
 Alpha  occ. eigenvalues --   -0.70997  -0.70187  -0.66134  -0.64944  -0.62845
 Alpha  occ. eigenvalues --   -0.60702  -0.58021  -0.57099  -0.53659  -0.52667
 Alpha  occ. eigenvalues --   -0.51879  -0.50095  -0.49236  -0.47631  -0.46947
 Alpha  occ. eigenvalues --   -0.45844  -0.44831  -0.44480  -0.43937  -0.42287
 Alpha  occ. eigenvalues --   -0.41609  -0.36538  -0.33888  -0.31895  -0.30303
 Alpha  occ. eigenvalues --   -0.27594
 Alpha virt. eigenvalues --    0.01565   0.04578   0.05124   0.06090   0.06237
 Alpha virt. eigenvalues --    0.06882   0.07476   0.07583   0.08221   0.09071
 Alpha virt. eigenvalues --    0.09396   0.09571   0.09821   0.10277   0.10748

 Mulliken charges:
               1
     1  C   -0.231641
     2  C   -0.258329
     3  C    0.545194
     4  C   -0.190444
     5  H    0.146610
     6  S   -0.341335
     7  H    0.190088
     8  C    0.577265
     9  S   -0.508917
    10  C    0.403191
    11  C    0.135994
    12  C   -0.046446
    13  H    0.167572
    14  S   -0.448630
    15  C   -0.132932
    16  C   -0.376543
    17  H    0.191859
    18  H    0.161108
    19  O   -0.250373
    20  H    0.266709
 Sum of Mulliken charges =  -0.00000

 Dipole moment (field-independent basis, Debye):
    X=              2.0330    Y=              0.9718    Z=              0.6576  Tot=              2.3474
 Quadrupole moment (field-independent basis, Debye-Ang):
   XX=            -78.0984   YY=            -95.2555   ZZ=           -105.1468
   XY=              8.7168   XZ=              1.2480   YZ=              0.8181

 Normal termination of Gaussian 16 at Mon Oct 25 23:48:33 2021.
