 Gaussian 16, Revision C.01,
 Gaussian 16:  ES64L-G16RevC.01  3-Jul-2019

 --------------------------------------
 # opt=modredundant wb97xd/6-311+g(d,p)
 --------------------------------------

 ------------
 pBTTT_70.pdb
 ------------
 Symbolic Z-matrix:
 Charge =  0 Multiplicity = 1

 SCF Done:  E(RwB97XD) =  -1654.29863640     A.U. after   18 cycles
 SCF Done:  E(RwB97XD) =  -1654.35720883     A.U. after   15 cycles
 SCF Done:  E(RwB97XD) =  -1654.39728801     A.U. after   16 cycles
 SCF Done:  E(RwB97XD) =  -1654.40707171     A.U. after   15 cycles
 SCF Done:  E(RwB97XD) =  -1654.40954064     A.U. after   15 cycles
 SCF Done:  E(RwB97XD) =  -1654.41017559     A.U. after   14 cycles
 SCF Done:  E(RwB97XD) =  -1654.41037423     A.U. after   14 cycles
 SCF Done:  E(RwB97XD) =  -1654.41054288     A.U. after   13 cycles
 SCF Done:  E(RwB97XD) =  -1654.41055714     A.U. after   13 cycles
 SCF Done:  E(RwB97XD) =  -1654.41056739     A.U. after   13 cycles
 SCF Done:  E(RwB97XD) =  -1654.41056985     A.U. after   11 cycles
 SCF Done:  E(RwB97XD) =  -1654.41057073     A.U. after   11 cycles
 SCF Done:  E(RwB97XD) =  -1654.41057088     A.U. after   10 cycles
 Optimization completed.
    -- Stationary point found.

                         Standard orientation:
 ---------------------------------------------------------------------
 Center     Atomic      Atomic             Coordinates (Angstroms)
 Number     Number       Type             X           Y           Z
 ---------------------------------------------------------------------
      1          6           0        3.989155    0.340115    0.449797
      2          6           0        2.631999    0.746470    0.611731
      3          6           0        1.734784   -0.096415    0.012970
      4          6           0        4.098357   -0.809831   -0.269299
      5          1           0        4.835556    0.879309    0.857371
      6         16           0        2.570133   -1.408440   -0.764221
      7          1           0        5.002130   -1.337001   -0.534693
      8          6           0        0.276947   -0.012360    0.002228
      9         16           0       -0.528198    1.254524   -0.904170
     10          6           0       -2.079473    0.628770   -0.467301
     11          6           0       -1.952656   -0.500633    0.318603
     12          6           0       -0.606869   -0.871723    0.586550
     13          1           0       -0.294914   -1.716900    1.184449
     14         16           0       -3.506633   -1.123586    0.761160
     15          6           0       -4.295844    0.149727   -0.118207
     16          6           0       -3.430121    1.008455   -0.718415
     17          1           0       -5.374826    0.185272   -0.139502
     18          1           0       -3.740137    1.860015   -1.307460
     19          8           0        2.227481    1.845808    1.294830
     20          1           0        2.989854    2.307420    1.644959
 ---------------------------------------------------------------------

 The electronic state is 1-A.
 Alpha  occ. eigenvalues --  -89.05181 -89.04684 -89.04396 -19.29025 -10.36057
 Alpha  occ. eigenvalues --  -10.33232 -10.32681 -10.32201 -10.31977 -10.31951
 Alpha  occ. eigenvalues --  -10.31886 -10.30322 -10.30134 -10.30084  -8.09239
 Alpha  occ. eigenvalues --   -8.08731  -8.08436  -6.04074  -6.03692  -6.03579
 Alpha  occ. eigenvalues --   -6.03334  -6.03289  -6.03207  -6.02916  -6.02793
 Alpha  occ. eigenvalues --   -6.02484  -1.18195  -1.01741  -0.99664  -0.94964
 Alpha  occ. eigenvalues --   -0.86866  -0.85930  -0.83912  -0.80602  -0.79877
 Alpha  occ. eigenvalues --   -0.70904  -0.70093  -0.66220  -0.64848  -0.62676
 Alpha  occ. eigenvalues --   -0.60816  -0.58087  -0.57012  -0.53537  -0.52549
 Alpha  occ. eigenvalues --   -0.51927  -0.49958  -0.49533  -0.47360  -0.46971
 Alpha  occ. eigenvalues --   -0.45759  -0.45017  -0.44382  -0.43949  -0.41980
 Alpha  occ. eigenvalues --   -0.41611  -0.36447  -0.33442  -0.31202  -0.30275
 Alpha  occ. eigenvalues --   -0.28515
 Alpha virt. eigenvalues --    0.02184   0.04328   0.05014   0.05980   0.06132
 Alpha virt. eigenvalues --    0.06600   0.07415   0.07466   0.08118   0.09145
 Alpha virt. eigenvalues --    0.09263   0.09565   0.09853   0.10218   0.10833

 Mulliken charges:
               1
     1  C   -0.075496
     2  C   -0.494120
     3  C    0.332689
     4  C   -0.274489
     5  H    0.145768
     6  S   -0.161686
     7  H    0.190283
     8  C    0.513076
     9  S   -0.475514
    10  C    0.317609
    11  C   -0.556741
    12  C    0.490169
    13  H    0.166661
    14  S   -0.433497
    15  C   -0.208427
    16  C    0.153092
    17  H    0.192133
    18  H    0.161517
    19  O   -0.250794
    20  H    0.267766
 Sum of Mulliken charges =  -0.00000

 Dipole moment (field-independent basis, Debye):
    X=              2.0958    Y=              0.6602    Z=              0.5756  Tot=              2.2715
 Quadrupole moment (field-independent basis, Debye-Ang):
   XX=            -76.7477   YY=            -97.9478   ZZ=           -103.3051
   XY=              1.1243   XZ=              5.8558   YZ=              0.0672

 Normal termination of Gaussian 16 at Tue Oct 26 00:26:16 2021.
