 Gaussian 16, Revision C.01,
 Gaussian 16:  ES64L-G16RevC.01  3-Jul-2019

 --------------------------------------
 # opt=modredundant wb97xd/6-311+g(d,p)
 --------------------------------------

 ------------
 pBTTT_20.pdb
 ------------
 Symbolic Z-matrix:
 Charge =  0 Multiplicity = 1

 SCF Done:  E(RwB97XD) =  -1654.30199622     A.U. after   19 cycles
 SCF Done:  E(RwB97XD) =  -1654.35998419     A.U. after   16 cycles
 SCF Done:  E(RwB97XD) =  -1654.39858055     A.U. after   17 cycles
 SCF Done:  E(RwB97XD) =  -1654.40839308     A.U. after   16 cycles
 SCF Done:  E(RwB97XD) =  -1654.41080507     A.U. after   15 cycles
 SCF Done:  E(RwB97XD) =  -1654.41146781     A.U. after   14 cycles
 SCF Done:  E(RwB97XD) =  -1654.41164681     A.U. after   14 cycles
 SCF Done:  E(RwB97XD) =  -1654.41182114     A.U. after   14 cycles
 SCF Done:  E(RwB97XD) =  -1654.41183133     A.U. after   13 cycles
 SCF Done:  E(RwB97XD) =  -1654.41184658     A.U. after   12 cycles
 SCF Done:  E(RwB97XD) =  -1654.41184953     A.U. after   11 cycles
 SCF Done:  E(RwB97XD) =  -1654.41185024     A.U. after   10 cycles
 SCF Done:  E(RwB97XD) =  -1654.41185025     A.U. after   10 cycles
 Optimization completed.
    -- Stationary point found.

                         Standard orientation:
 ---------------------------------------------------------------------
 Center     Atomic      Atomic             Coordinates (Angstroms)
 Number     Number       Type             X           Y           Z
 ---------------------------------------------------------------------
      1          6           0       -4.013789    0.368008   -0.125128
      2          6           0       -2.674109    0.849794   -0.175928
      3          6           0       -1.727226   -0.128023   -0.009024
      4          6           0       -4.068608   -0.973338    0.086123
      5          1           0       -4.887212    0.997233   -0.244153
      6         16           0       -2.505222   -1.666150    0.234474
      7          1           0       -4.946490   -1.595658    0.167261
      8          6           0       -0.278957   -0.019920   -0.021181
      9         16           0        0.521303    1.520709    0.245556
     10          6           0        2.075190    0.767284    0.141390
     11          6           0        1.956881   -0.588657   -0.088505
     12          6           0        0.616142   -1.042612   -0.187056
     13          1           0        0.322216   -2.065923   -0.377575
     14         16           0        3.515650   -1.332354   -0.217431
     15          6           0        4.295852    0.199491    0.040355
     16          6           0        3.422008    1.226212    0.213327
     17          1           0        5.374475    0.246456    0.051680
     18          1           0        3.724848    2.249432    0.385757
     19          8           0       -2.325726    2.146252   -0.376202
     20          1           0       -3.110044    2.693735   -0.421185
 ---------------------------------------------------------------------

 The electronic state is 1-A.
 Alpha  occ. eigenvalues --  -89.05379 -89.04512 -89.04347 -19.29526 -10.36249
 Alpha  occ. eigenvalues --  -10.33561 -10.32885 -10.32745 -10.31797 -10.31755
 Alpha  occ. eigenvalues --  -10.31588 -10.30568 -10.29979 -10.29809  -8.09452
 Alpha  occ. eigenvalues --   -8.08557  -8.08363  -6.04297  -6.03912  -6.03528
 Alpha  occ. eigenvalues --   -6.03407  -6.03227  -6.03035  -6.02844  -6.02617
 Alpha  occ. eigenvalues --   -6.02400  -1.18653  -1.01675  -0.99884  -0.94902
 Alpha  occ. eigenvalues --   -0.86991  -0.86012  -0.84204  -0.80475  -0.79861
 Alpha  occ. eigenvalues --   -0.71104  -0.70525  -0.66286  -0.65141  -0.62104
 Alpha  occ. eigenvalues --   -0.61026  -0.58067  -0.57335  -0.53635  -0.52951
 Alpha  occ. eigenvalues --   -0.52057  -0.50148  -0.49120  -0.47383  -0.46921
 Alpha  occ. eigenvalues --   -0.46077  -0.45320  -0.44671  -0.43456  -0.42705
 Alpha  occ. eigenvalues --   -0.41123  -0.36660  -0.34426  -0.32234  -0.30154
 Alpha  occ. eigenvalues --   -0.26737
 Alpha virt. eigenvalues --    0.00868   0.04821   0.05623   0.05871   0.06109
 Alpha virt. eigenvalues --    0.06663   0.07510   0.08286   0.08456   0.09085
 Alpha virt. eigenvalues --    0.09407   0.09683   0.09934   0.10529   0.10770

 Mulliken charges:
               1
     1  C   -0.314426
     2  C    0.219189
     3  C    0.568074
     4  C   -0.145154
     5  H    0.145078
     6  S   -0.525107
     7  H    0.190248
     8  C    0.095276
     9  S   -0.453891
    10  C    0.293494
    11  C    0.284541
    12  C    0.013996
    13  H    0.163138
    14  S   -0.476600
    15  C   -0.141269
    16  C   -0.295710
    17  H    0.191199
    18  H    0.159547
    19  O   -0.247442
    20  H    0.275818
 Sum of Mulliken charges =  -0.00000

 Dipole moment (field-independent basis, Debye):
    X=             -2.4804    Y=              0.9583    Z=             -0.0904  Tot=              2.6606
 Quadrupole moment (field-independent basis, Debye-Ang):
   XX=            -76.2771   YY=            -93.6070   ZZ=           -108.1018
   XY=             -1.6276   XZ=              1.4533   YZ=              0.2700

 Normal termination of Gaussian 16 at Tue Oct 26 00:02:54 2021.
