 Gaussian 16, Revision C.01,
 Gaussian 16:  ES64L-G16RevC.01  3-Jul-2019

 --------------------------------------
 # opt=modredundant wb97xd/6-311+g(d,p)
 --------------------------------------

 --------------
 pBTTT_-150.pdb
 --------------
 Symbolic Z-matrix:
 Charge =  0 Multiplicity = 1

 SCF Done:  E(RwB97XD) =  -1654.30147597     A.U. after   18 cycles
 SCF Done:  E(RwB97XD) =  -1654.35970207     A.U. after   16 cycles
 SCF Done:  E(RwB97XD) =  -1654.39942323     A.U. after   17 cycles
 SCF Done:  E(RwB97XD) =  -1654.40890284     A.U. after   16 cycles
 SCF Done:  E(RwB97XD) =  -1654.41122659     A.U. after   15 cycles
 SCF Done:  E(RwB97XD) =  -1654.41179512     A.U. after   14 cycles
 SCF Done:  E(RwB97XD) =  -1654.41194596     A.U. after   14 cycles
 SCF Done:  E(RwB97XD) =  -1654.41216048     A.U. after   13 cycles
 SCF Done:  E(RwB97XD) =  -1654.41217194     A.U. after   13 cycles
 SCF Done:  E(RwB97XD) =  -1654.41219895     A.U. after   12 cycles
 SCF Done:  E(RwB97XD) =  -1654.41220102     A.U. after   11 cycles
 SCF Done:  E(RwB97XD) =  -1654.41220149     A.U. after   10 cycles
 Optimization completed.
    -- Stationary point found.

                         Standard orientation:
 ---------------------------------------------------------------------
 Center     Atomic      Atomic             Coordinates (Angstroms)
 Number     Number       Type             X           Y           Z
 ---------------------------------------------------------------------
      1          6           0        3.913322    0.864304    0.135223
      2          6           0        2.515696    1.128277    0.212119
      3          6           0        1.733409    0.031787   -0.048457
      4          6           0        4.175077   -0.431358   -0.183195
      5          1           0        4.679731    1.609245    0.310725
      6         16           0        2.738515   -1.340859   -0.413397
      7          1           0        5.138707   -0.901200   -0.306261
      8          6           0        0.283386   -0.046524   -0.036654
      9         16           0       -0.522890   -1.550688    0.382211
     10          6           0       -2.075896   -0.812189    0.187222
     11          6           0       -1.946637    0.519123   -0.154854
     12          6           0       -0.603050    0.962789   -0.287055
     13          1           0       -0.293611    1.963025   -0.550934
     14         16           0       -3.500876    1.259039   -0.341523
     15          6           0       -4.291209   -0.239254    0.044421
     16          6           0       -3.424388   -1.254497    0.302489
     17          1           0       -5.370099   -0.278574    0.058257
     18          1           0       -3.733456   -2.257536    0.560615
     19          8           0        1.975359    2.339846    0.505930
     20          1           0        2.661633    2.931658    0.815944
 ---------------------------------------------------------------------

 The electronic state is 1-A.
 Alpha  occ. eigenvalues --  -89.05351 -89.04612 -89.04564 -19.29465 -10.36167
 Alpha  occ. eigenvalues --  -10.33402 -10.32787 -10.32665 -10.31918 -10.31865
 Alpha  occ. eigenvalues --  -10.31855 -10.30493 -10.30112 -10.29661  -8.09422
 Alpha  occ. eigenvalues --   -8.08658  -8.08618  -6.04262  -6.03878  -6.03506
 Alpha  occ. eigenvalues --   -6.03505  -6.03477  -6.03134  -6.03107  -6.02721
 Alpha  occ. eigenvalues --   -6.02653  -1.18514  -1.01769  -0.99848  -0.94977
 Alpha  occ. eigenvalues --   -0.86998  -0.86047  -0.84139  -0.80570  -0.79823
 Alpha  occ. eigenvalues --   -0.71098  -0.70357  -0.66097  -0.65130  -0.62763
 Alpha  occ. eigenvalues --   -0.60730  -0.58081  -0.57102  -0.53705  -0.52828
 Alpha  occ. eigenvalues --   -0.51914  -0.50206  -0.49085  -0.47770  -0.46990
 Alpha  occ. eigenvalues --   -0.45826  -0.44988  -0.44649  -0.43739  -0.42582
 Alpha  occ. eigenvalues --   -0.41497  -0.36661  -0.34315  -0.32159  -0.30344
 Alpha  occ. eigenvalues --   -0.26990
 Alpha virt. eigenvalues --    0.01051   0.04667   0.05288   0.06076   0.06286
 Alpha virt. eigenvalues --    0.06949   0.07499   0.07595   0.08323   0.08883
 Alpha virt. eigenvalues --    0.09524   0.09617   0.09772   0.10494   0.10817

 Mulliken charges:
               1
     1  C   -0.252462
     2  C   -0.084873
     3  C    0.518804
     4  C   -0.160830
     5  H    0.146162
     6  S   -0.431115
     7  H    0.189535
     8  C    0.426476
     9  S   -0.575757
    10  C    0.450101
    11  C    0.165249
    12  C    0.026304
    13  H    0.173632
    14  S   -0.453735
    15  C   -0.140394
    16  C   -0.360621
    17  H    0.191856
    18  H    0.160446
    19  O   -0.260089
    20  H    0.271309
 Sum of Mulliken charges =  -0.00000

 Dipole moment (field-independent basis, Debye):
    X=              2.1224    Y=              1.0603    Z=              0.4886  Tot=              2.4223
 Quadrupole moment (field-independent basis, Debye-Ang):
   XX=            -77.9281   YY=            -93.4970   ZZ=           -106.9608
   XY=              9.3738   XZ=              1.0609   YZ=              0.9854

 Normal termination of Gaussian 16 at Mon Oct 25 23:39:36 2021.
