 Gaussian 16, Revision C.01,
 Gaussian 16:  ES64L-G16RevC.01  3-Jul-2019

 --------------------------------------
 # opt=modredundant wb97xd/6-311+g(d,p)
 --------------------------------------

 -------------
 pBTTT_-35.pdb
 -------------
 Symbolic Z-matrix:
 Charge =  0 Multiplicity = 1

 SCF Done:  E(RwB97XD) =  -1654.30182309     A.U. after   18 cycles
 SCF Done:  E(RwB97XD) =  -1654.36006397     A.U. after   16 cycles
 SCF Done:  E(RwB97XD) =  -1654.39907752     A.U. after   16 cycles
 SCF Done:  E(RwB97XD) =  -1654.40872276     A.U. after   17 cycles
 SCF Done:  E(RwB97XD) =  -1654.41092474     A.U. after   15 cycles
 SCF Done:  E(RwB97XD) =  -1654.41138515     A.U. after   14 cycles
 SCF Done:  E(RwB97XD) =  -1654.41152884     A.U. after   14 cycles
 SCF Done:  E(RwB97XD) =  -1654.41168581     A.U. after   14 cycles
 SCF Done:  E(RwB97XD) =  -1654.41169706     A.U. after   13 cycles
 SCF Done:  E(RwB97XD) =  -1654.41171177     A.U. after   12 cycles
 SCF Done:  E(RwB97XD) =  -1654.41171536     A.U. after   11 cycles
 SCF Done:  E(RwB97XD) =  -1654.41171565     A.U. after   10 cycles
 Optimization completed.
    -- Stationary point found.

                         Standard orientation:
 ---------------------------------------------------------------------
 Center     Atomic      Atomic             Coordinates (Angstroms)
 Number     Number       Type             X           Y           Z
 ---------------------------------------------------------------------
      1          6           0       -4.010957    0.352888    0.221469
      2          6           0       -2.671733    0.831498    0.305011
      3          6           0       -1.728500   -0.117763    0.007280
      4          6           0       -4.067207   -0.956050   -0.142722
      5          1           0       -4.883766    0.959685    0.429114
      6         16           0       -2.506260   -1.618855   -0.402671
      7          1           0       -4.946208   -1.567107   -0.279309
      8          6           0       -0.278565   -0.012388    0.021541
      9         16           0        0.523319    1.478395   -0.439669
     10          6           0        2.076339    0.743451   -0.239448
     11          6           0        1.954706   -0.574012    0.155804
     12          6           0        0.612302   -1.009642    0.310525
     13          1           0        0.311912   -1.998612    0.628847
     14         16           0        3.511831   -1.297771    0.380971
     15          6           0        4.295346    0.189312   -0.060729
     16          6           0        3.424280    1.188518   -0.361455
     17          1           0        5.374099    0.232903   -0.074501
     18          1           0        3.729526    2.182294   -0.657402
     19          8           0       -2.322005    2.096260    0.651723
     20          1           0       -3.107834    2.617591    0.817729
 ---------------------------------------------------------------------

 The electronic state is 1-A.
 Alpha  occ. eigenvalues --  -89.05337 -89.04574 -89.04366 -19.29335 -10.36171
 Alpha  occ. eigenvalues --  -10.33481 -10.32800 -10.32589 -10.31847 -10.31830
 Alpha  occ. eigenvalues --  -10.31716 -10.30492 -10.30037 -10.29892  -8.09404
 Alpha  occ. eigenvalues --   -8.08619  -8.08393  -6.04245  -6.03862  -6.03487
 Alpha  occ. eigenvalues --   -6.03468  -6.03254  -6.03096  -6.02874  -6.02680
 Alpha  occ. eigenvalues --   -6.02432  -1.18475  -1.01713  -0.99828  -0.94938
 Alpha  occ. eigenvalues --   -0.86963  -0.85999  -0.84121  -0.80520  -0.79869
 Alpha  occ. eigenvalues --   -0.71052  -0.70382  -0.66263  -0.65063  -0.62263
 Alpha  occ. eigenvalues --   -0.60963  -0.58041  -0.57258  -0.53599  -0.52798
 Alpha  occ. eigenvalues --   -0.52048  -0.50138  -0.49192  -0.47382  -0.46928
 Alpha  occ. eigenvalues --   -0.45930  -0.45229  -0.44638  -0.43646  -0.42478
 Alpha  occ. eigenvalues --   -0.41332  -0.36573  -0.34225  -0.32078  -0.30169
 Alpha  occ. eigenvalues --   -0.27084
 Alpha virt. eigenvalues --    0.01129   0.04896   0.05444   0.05916   0.06085
 Alpha virt. eigenvalues --    0.06662   0.07492   0.07951   0.08386   0.09214
 Alpha virt. eigenvalues --    0.09364   0.09669   0.09962   0.10251   0.10752

 Mulliken charges:
               1
     1  C   -0.244074
     2  C   -0.149492
     3  C    0.610027
     4  C   -0.134783
     5  H    0.145231
     6  S   -0.426729
     7  H    0.190253
     8  C    0.466201
     9  S   -0.431422
    10  C    0.430138
    11  C    0.100832
    12  C   -0.168369
    13  H    0.167080
    14  S   -0.466069
    15  C   -0.138064
    16  C   -0.325803
    17  H    0.191435
    18  H    0.160529
    19  O   -0.247457
    20  H    0.270538
 Sum of Mulliken charges =  -0.00000

 Dipole moment (field-independent basis, Debye):
    X=             -2.3501    Y=              0.8645    Z=              0.2864  Tot=              2.5204
 Quadrupole moment (field-independent basis, Debye-Ang):
   XX=            -76.3520   YY=            -94.5358   ZZ=           -107.1299
   XY=             -1.3948   XZ=             -2.9897   YZ=             -0.0306

 Normal termination of Gaussian 16 at Tue Oct 26 00:03:26 2021.
