 Gaussian 16, Revision C.01,
 Gaussian 16:  ES64L-G16RevC.01  3-Jul-2019

 --------------------------------------
 # opt=modredundant wb97xd/6-311+g(d,p)
 --------------------------------------

 -------------
 pBTTT_165.pdb
 -------------
 Symbolic Z-matrix:
 Charge =  0 Multiplicity = 1

 SCF Done:  E(RwB97XD) =  -1654.30144225     A.U. after   19 cycles
 SCF Done:  E(RwB97XD) =  -1654.35975070     A.U. after   16 cycles
 SCF Done:  E(RwB97XD) =  -1654.39927891     A.U. after   17 cycles
 SCF Done:  E(RwB97XD) =  -1654.40893819     A.U. after   16 cycles
 SCF Done:  E(RwB97XD) =  -1654.41126996     A.U. after   15 cycles
 SCF Done:  E(RwB97XD) =  -1654.41189554     A.U. after   14 cycles
 SCF Done:  E(RwB97XD) =  -1654.41203377     A.U. after   14 cycles
 SCF Done:  E(RwB97XD) =  -1654.41219780     A.U. after   14 cycles
 SCF Done:  E(RwB97XD) =  -1654.41220684     A.U. after   13 cycles
 SCF Done:  E(RwB97XD) =  -1654.41222061     A.U. after   12 cycles
 SCF Done:  E(RwB97XD) =  -1654.41222311     A.U. after   11 cycles
 SCF Done:  E(RwB97XD) =  -1654.41222341     A.U. after   10 cycles
 Optimization completed.
    -- Stationary point found.

                         Standard orientation:
 ---------------------------------------------------------------------
 Center     Atomic      Atomic             Coordinates (Angstroms)
 Number     Number       Type             X           Y           Z
 ---------------------------------------------------------------------
      1          6           0       -3.917521    0.876846    0.062833
      2          6           0       -2.521229    1.151546    0.111113
      3          6           0       -1.732922    0.034567   -0.015973
      4          6           0       -4.175922   -0.446999   -0.105269
      5          1           0       -4.685690    1.635536    0.149193
      6         16           0       -2.736180   -1.373176   -0.220501
      7          1           0       -5.137481   -0.931528   -0.175440
      8          6           0       -0.283165   -0.039295   -0.007618
      9         16           0        0.525286   -1.585567    0.208845
     10          6           0        2.078509   -0.830096    0.098284
     11          6           0        1.948642    0.532447   -0.077854
     12          6           0        0.605609    0.992363   -0.141546
     13          1           0        0.298660    2.017571   -0.280124
     14         16           0        3.502938    1.288479   -0.182121
     15          6           0        4.293572   -0.246126    0.014087
     16          6           0        3.426496   -1.284543    0.152038
     17          1           0        5.372445   -0.287794    0.015877
     18          1           0        3.735438   -2.311809    0.284355
     19          8           0       -1.987928    2.392061    0.264294
     20          1           0       -2.685053    3.021492    0.451663
 ---------------------------------------------------------------------

 The electronic state is 1-A.
 Alpha  occ. eigenvalues --  -89.05396 -89.04587 -89.04554 -19.29673 -10.36233
 Alpha  occ. eigenvalues --  -10.33505 -10.32829 -10.32803 -10.31894 -10.31836
 Alpha  occ. eigenvalues --  -10.31828 -10.30550 -10.30099 -10.29542  -8.09470
 Alpha  occ. eigenvalues --   -8.08633  -8.08614  -6.04314  -6.03928  -6.03549
 Alpha  occ. eigenvalues --   -6.03480  -6.03476  -6.03109  -6.03105  -6.02696
 Alpha  occ. eigenvalues --   -6.02644  -1.18702  -1.01766  -0.99902  -0.94968
 Alpha  occ. eigenvalues --   -0.87019  -0.86074  -0.84205  -0.80545  -0.79833
 Alpha  occ. eigenvalues --   -0.71162  -0.70486  -0.66075  -0.65251  -0.62714
 Alpha  occ. eigenvalues --   -0.60760  -0.58168  -0.57069  -0.53726  -0.52950
 Alpha  occ. eigenvalues --   -0.51926  -0.50250  -0.49048  -0.47803  -0.47027
 Alpha  occ. eigenvalues --   -0.45814  -0.45262  -0.44676  -0.43557  -0.42777
 Alpha  occ. eigenvalues --   -0.41390  -0.36740  -0.34522  -0.32266  -0.30334
 Alpha  occ. eigenvalues --   -0.26716
 Alpha virt. eigenvalues --    0.00788   0.04606   0.05318   0.06101   0.06304
 Alpha virt. eigenvalues --    0.06961   0.07441   0.07653   0.08407   0.08788
 Alpha virt. eigenvalues --    0.09403   0.09614   0.09886   0.10696   0.10890

 Mulliken charges:
               1
     1  C   -0.324846
     2  C    0.262977
     3  C    0.508945
     4  C   -0.131304
     5  H    0.145019
     6  S   -0.526161
     7  H    0.189023
     8  C    0.160666
     9  S   -0.611136
    10  C    0.402147
    11  C    0.269752
    12  C    0.037546
    13  H    0.178745
    14  S   -0.454514
    15  C   -0.153494
    16  C   -0.319372
    17  H    0.191921
    18  H    0.160064
    19  O   -0.260738
    20  H    0.274760
 Sum of Mulliken charges =  -0.00000

 Dipole moment (field-independent basis, Debye):
    X=             -2.2025    Y=              1.1313    Z=              0.2741  Tot=              2.4912
 Quadrupole moment (field-independent basis, Debye-Ang):
   XX=            -77.6714   YY=            -92.4680   ZZ=           -108.0123
   XY=             -9.8143   XZ=             -0.6676   YZ=              0.7359

 Normal termination of Gaussian 16 at Tue Oct 26 00:32:39 2021.
