 Gaussian 16, Revision C.01,
 Gaussian 16:  ES64L-G16RevC.01  3-Jul-2019

 --------------------------------------
 # opt=modredundant wb97xd/6-311+g(d,p)
 --------------------------------------

 -------------
 pBTTT_-20.pdb
 -------------
 Symbolic Z-matrix:
 Charge =  0 Multiplicity = 1

 SCF Done:  E(RwB97XD) =  -1654.30259095     A.U. after   18 cycles
 SCF Done:  E(RwB97XD) =  -1654.36067469     A.U. after   16 cycles
 SCF Done:  E(RwB97XD) =  -1654.39937721     A.U. after   17 cycles
 SCF Done:  E(RwB97XD) =  -1654.40887184     A.U. after   17 cycles
 SCF Done:  E(RwB97XD) =  -1654.41108166     A.U. after   16 cycles
 SCF Done:  E(RwB97XD) =  -1654.41155745     A.U. after   14 cycles
 SCF Done:  E(RwB97XD) =  -1654.41165120     A.U. after   14 cycles
 SCF Done:  E(RwB97XD) =  -1654.41181592     A.U. after   13 cycles
 SCF Done:  E(RwB97XD) =  -1654.41183787     A.U. after   13 cycles
 SCF Done:  E(RwB97XD) =  -1654.41184753     A.U. after   12 cycles
 SCF Done:  E(RwB97XD) =  -1654.41184969     A.U. after   11 cycles
 SCF Done:  E(RwB97XD) =  -1654.41185011     A.U. after   11 cycles
 SCF Done:  E(RwB97XD) =  -1654.41185016     A.U. after   10 cycles
 Optimization completed.
    -- Stationary point found.

                         Standard orientation:
 ---------------------------------------------------------------------
 Center     Atomic      Atomic             Coordinates (Angstroms)
 Number     Number       Type             X           Y           Z
 ---------------------------------------------------------------------
      1          6           0       -4.013742    0.368172    0.125405
      2          6           0       -2.674008    0.849811    0.176271
      3          6           0       -1.727236   -0.128051    0.008895
      4          6           0       -4.068699   -0.973162   -0.085920
      5          1           0       -4.887084    0.997446    0.244765
      6         16           0       -2.505378   -1.666071   -0.234752
      7          1           0       -4.946599   -1.595466   -0.166994
      8          6           0       -0.278960   -0.019971    0.020787
      9         16           0        0.521321    1.520575   -0.246301
     10          6           0        2.075203    0.767217   -0.141579
     11          6           0        1.956866   -0.588699    0.088462
     12          6           0        0.616107   -1.042683    0.186639
     13          1           0        0.322126   -2.065959    0.377268
     14         16           0        3.515626   -1.332297    0.217972
     15          6           0        4.295850    0.199465   -0.040252
     16          6           0        3.422014    1.226183   -0.213266
     17          1           0        5.374474    0.246446   -0.051307
     18          1           0        3.724875    2.249387   -0.385757
     19          8           0       -2.325453    2.146173    0.377084
     20          1           0       -3.109660    2.693768    0.421985
 ---------------------------------------------------------------------

 The electronic state is 1-A.
 Alpha  occ. eigenvalues --  -89.05379 -89.04512 -89.04347 -19.29525 -10.36249
 Alpha  occ. eigenvalues --  -10.33561 -10.32885 -10.32745 -10.31797 -10.31755
 Alpha  occ. eigenvalues --  -10.31588 -10.30568 -10.29979 -10.29810  -8.09452
 Alpha  occ. eigenvalues --   -8.08557  -8.08363  -6.04297  -6.03912  -6.03528
 Alpha  occ. eigenvalues --   -6.03407  -6.03227  -6.03035  -6.02844  -6.02617
 Alpha  occ. eigenvalues --   -6.02400  -1.18651  -1.01675  -0.99883  -0.94902
 Alpha  occ. eigenvalues --   -0.86991  -0.86012  -0.84204  -0.80475  -0.79861
 Alpha  occ. eigenvalues --   -0.71103  -0.70524  -0.66286  -0.65141  -0.62105
 Alpha  occ. eigenvalues --   -0.61026  -0.58067  -0.57335  -0.53634  -0.52950
 Alpha  occ. eigenvalues --   -0.52057  -0.50148  -0.49120  -0.47383  -0.46921
 Alpha  occ. eigenvalues --   -0.46077  -0.45320  -0.44671  -0.43456  -0.42705
 Alpha  occ. eigenvalues --   -0.41123  -0.36660  -0.34426  -0.32234  -0.30154
 Alpha  occ. eigenvalues --   -0.26737
 Alpha virt. eigenvalues --    0.00868   0.04821   0.05623   0.05871   0.06109
 Alpha virt. eigenvalues --    0.06663   0.07510   0.08286   0.08456   0.09085
 Alpha virt. eigenvalues --    0.09407   0.09683   0.09934   0.10529   0.10770

 Mulliken charges:
               1
     1  C   -0.313906
     2  C    0.218119
     3  C    0.568131
     4  C   -0.145275
     5  H    0.145084
     6  S   -0.524908
     7  H    0.190254
     8  C    0.096107
     9  S   -0.453888
    10  C    0.293873
    11  C    0.283984
    12  C    0.013304
    13  H    0.163148
    14  S   -0.476590
    15  C   -0.141151
    16  C   -0.295360
    17  H    0.191199
    18  H    0.159551
    19  O   -0.247487
    20  H    0.275810
 Sum of Mulliken charges =  -0.00000

 Dipole moment (field-independent basis, Debye):
    X=             -2.4799    Y=              0.9584    Z=              0.0909  Tot=              2.6602
 Quadrupole moment (field-independent basis, Debye-Ang):
   XX=            -76.2791   YY=            -93.6064   ZZ=           -108.1015
   XY=             -1.6267   XZ=             -1.4541   YZ=             -0.2705

 Normal termination of Gaussian 16 at Tue Oct 26 00:00:24 2021.
