 Gaussian 16, Revision C.01,
 Gaussian 16:  ES64L-G16RevC.01  3-Jul-2019

 --------------------------------------
 # opt=modredundant wb97xd/6-311+g(d,p)
 --------------------------------------

 -------------
 pBTTT_125.pdb
 -------------
 Symbolic Z-matrix:
 Charge =  0 Multiplicity = 1

 SCF Done:  E(RwB97XD) =  -1654.29925560     A.U. after   18 cycles
 SCF Done:  E(RwB97XD) =  -1654.35795784     A.U. after   16 cycles
 SCF Done:  E(RwB97XD) =  -1654.39803012     A.U. after   16 cycles
 SCF Done:  E(RwB97XD) =  -1654.40783989     A.U. after   16 cycles
 SCF Done:  E(RwB97XD) =  -1654.41029240     A.U. after   15 cycles
 SCF Done:  E(RwB97XD) =  -1654.41095362     A.U. after   14 cycles
 SCF Done:  E(RwB97XD) =  -1654.41106754     A.U. after   14 cycles
 SCF Done:  E(RwB97XD) =  -1654.41123092     A.U. after   14 cycles
 SCF Done:  E(RwB97XD) =  -1654.41124341     A.U. after   13 cycles
 SCF Done:  E(RwB97XD) =  -1654.41125355     A.U. after   12 cycles
 SCF Done:  E(RwB97XD) =  -1654.41125577     A.U. after   12 cycles
 SCF Done:  E(RwB97XD) =  -1654.41125648     A.U. after   11 cycles
 SCF Done:  E(RwB97XD) =  -1654.41125653     A.U. after   10 cycles
 Optimization completed.
    -- Stationary point found.

                         Standard orientation:
 ---------------------------------------------------------------------
 Center     Atomic      Atomic             Coordinates (Angstroms)
 Number     Number       Type             X           Y           Z
 ---------------------------------------------------------------------
      1          6           0       -3.911387    0.814331    0.246936
      2          6           0       -2.512138    1.056610    0.373203
      3          6           0       -1.735212    0.032467   -0.100491
      4          6           0       -4.174375   -0.396902   -0.313110
      5          1           0       -4.677456    1.511686    0.563128
      6         16           0       -2.740444   -1.249260   -0.711521
      7          1           0       -5.139982   -0.831118   -0.522722
      8          6           0       -0.281936   -0.056991   -0.083787
      9         16           0        0.514909   -1.438432    0.651941
     10          6           0        2.070800   -0.753182    0.331763
     11          6           0        1.949303    0.479106   -0.280383
     12          6           0        0.606945    0.880057   -0.521513
     13          1           0        0.299903    1.804712   -0.988602
     14         16           0        3.506994    1.165590   -0.597637
     15          6           0        4.289268   -0.220343    0.098698
     16          6           0        3.418180   -1.161545    0.549490
     17          1           0        5.367880   -0.254699    0.134287
     18          1           0        3.722852   -2.089398    1.012621
     19          8           0       -1.967344    2.182504    0.900507
     20          1           0       -2.654478    2.710763    1.307878
 ---------------------------------------------------------------------

 The electronic state is 1-A.
 Alpha  occ. eigenvalues --  -89.05228 -89.04658 -89.04530 -19.29141 -10.36105
 Alpha  occ. eigenvalues --  -10.33226 -10.32733 -10.32374 -10.31956 -10.31933
 Alpha  occ. eigenvalues --  -10.31892 -10.30383 -10.30136 -10.29881  -8.09293
 Alpha  occ. eigenvalues --   -8.08703  -8.08576  -6.04129  -6.03747  -6.03552
 Alpha  occ. eigenvalues --   -6.03431  -6.03384  -6.03179  -6.03060  -6.02767
 Alpha  occ. eigenvalues --   -6.02620  -1.18263  -1.01753  -0.99726  -0.94969
 Alpha  occ. eigenvalues --   -0.86926  -0.85974  -0.83993  -0.80596  -0.79829
 Alpha  occ. eigenvalues --   -0.70971  -0.70149  -0.66145  -0.64901  -0.62863
 Alpha  occ. eigenvalues --   -0.60698  -0.58024  -0.57082  -0.53646  -0.52630
 Alpha  occ. eigenvalues --   -0.51867  -0.50061  -0.49287  -0.47588  -0.46948
 Alpha  occ. eigenvalues --   -0.45842  -0.44821  -0.44429  -0.43967  -0.42213
 Alpha  occ. eigenvalues --   -0.41627  -0.36512  -0.33764  -0.31793  -0.30284
 Alpha  occ. eigenvalues --   -0.27794
 Alpha virt. eigenvalues --    0.01717   0.04494   0.05040   0.06092   0.06220
 Alpha virt. eigenvalues --    0.06832   0.07452   0.07591   0.08194   0.09099
 Alpha virt. eigenvalues --    0.09357   0.09476   0.09843   0.10253   0.10739

 Mulliken charges:
               1
     1  C   -0.233153
     2  C   -0.213745
     3  C    0.405581
     4  C   -0.187526
     5  H    0.146582
     6  S   -0.304971
     7  H    0.190190
     8  C    0.181224
     9  S   -0.598566
    10  C    0.213431
    11  C   -0.263505
    12  C    0.602804
    13  H    0.166317
    14  S   -0.441474
    15  C   -0.195806
    16  C    0.156746
    17  H    0.191925
    18  H    0.160938
    19  O   -0.241688
    20  H    0.264696
 Sum of Mulliken charges =  -0.00000

 Dipole moment (field-independent basis, Debye):
    X=             -2.0156    Y=              0.9472    Z=              0.6783  Tot=              2.3280
 Quadrupole moment (field-independent basis, Debye-Ang):
   XX=            -78.0848   YY=            -95.7745   ZZ=           -104.6260
   XY=             -8.5458   XZ=             -1.2514   YZ=              0.7364

 Normal termination of Gaussian 16 at Tue Oct 26 00:48:48 2021.
