 Gaussian 16, Revision C.01,
 Gaussian 16:  ES64L-G16RevC.01  3-Jul-2019

 --------------------------------------
 # opt=modredundant wb97xd/6-311+g(d,p)
 --------------------------------------

 --------------
 pBTTT_-100.pdb
 --------------
 Symbolic Z-matrix:
 Charge =  0 Multiplicity = 1

 SCF Done:  E(RwB97XD) =  -1654.29795184     A.U. after   18 cycles
 SCF Done:  E(RwB97XD) =  -1654.35665330     A.U. after   15 cycles
 SCF Done:  E(RwB97XD) =  -1654.39712941     A.U. after   16 cycles
 SCF Done:  E(RwB97XD) =  -1654.40685266     A.U. after   15 cycles
 SCF Done:  E(RwB97XD) =  -1654.40923677     A.U. after   15 cycles
 SCF Done:  E(RwB97XD) =  -1654.40978680     A.U. after   14 cycles
 SCF Done:  E(RwB97XD) =  -1654.41001494     A.U. after   14 cycles
 SCF Done:  E(RwB97XD) =  -1654.41018197     A.U. after   14 cycles
 SCF Done:  E(RwB97XD) =  -1654.41020681     A.U. after   14 cycles
 SCF Done:  E(RwB97XD) =  -1654.41023199     A.U. after   13 cycles
 SCF Done:  E(RwB97XD) =  -1654.41023500     A.U. after   11 cycles
 SCF Done:  E(RwB97XD) =  -1654.41023562     A.U. after   11 cycles
 SCF Done:  E(RwB97XD) =  -1654.41023576     A.U. after   11 cycles
 Optimization completed.
    -- Stationary point found.

                         Standard orientation:
 ---------------------------------------------------------------------
 Center     Atomic      Atomic             Coordinates (Angstroms)
 Number     Number       Type             X           Y           Z
 ---------------------------------------------------------------------
      1          6           0        3.936244    0.704447    0.294694
      2          6           0        2.546193    0.920882    0.530332
      3          6           0        1.737791    0.019561   -0.107448
      4          6           0        4.157699   -0.366114   -0.515059
      5          1           0        4.724810    1.318698    0.711857
      6         16           0        2.697902   -1.117740   -1.007527
      7          1           0        5.108182   -0.750030   -0.853278
      8          6           0        0.278697   -0.050698   -0.066167
      9         16           0       -0.520068   -1.209239    0.982246
     10          6           0       -2.074248   -0.629027    0.496047
     11          6           0       -1.952360    0.405116   -0.412227
     12          6           0       -0.608453    0.736773   -0.736686
     13          1           0       -0.298633    1.513550   -1.421557
     14         16           0       -3.509177    0.987246   -0.898233
     15          6           0       -4.292423   -0.173405    0.129442
     16          6           0       -3.423062   -0.966147    0.809741
     17          1           0       -5.371165   -0.198362    0.169880
     18          1           0       -3.729210   -1.743545    1.495403
     19          8           0        2.035287    1.911238    1.302606
     20          1           0        2.748744    2.397191    1.717066
 ---------------------------------------------------------------------

 The electronic state is 1-A.
 Alpha  occ. eigenvalues --  -89.05113 -89.04701 -89.04451 -19.28995 -10.36055
 Alpha  occ. eigenvalues --  -10.33125 -10.32684 -10.32125 -10.32004 -10.31988
 Alpha  occ. eigenvalues --  -10.31905 -10.30291 -10.30158 -10.30064  -8.09173
 Alpha  occ. eigenvalues --   -8.08747  -8.08493  -6.04007  -6.03626  -6.03596
 Alpha  occ. eigenvalues --   -6.03345  -6.03270  -6.03224  -6.02973  -6.02810
 Alpha  occ. eigenvalues --   -6.02546  -1.18163  -1.01743  -0.99623  -0.94963
 Alpha  occ. eigenvalues --   -0.86858  -0.85912  -0.83870  -0.80616  -0.79856
 Alpha  occ. eigenvalues --   -0.70872  -0.70038  -0.66193  -0.64759  -0.62892
 Alpha  occ. eigenvalues --   -0.60723  -0.58085  -0.56973  -0.53569  -0.52522
 Alpha  occ. eigenvalues --   -0.51834  -0.49891  -0.49572  -0.47409  -0.47000
 Alpha  occ. eigenvalues --   -0.45799  -0.44886  -0.44272  -0.44029  -0.41914
 Alpha  occ. eigenvalues --   -0.41675  -0.36447  -0.33271  -0.30926  -0.30178
 Alpha  occ. eigenvalues --   -0.29032
 Alpha virt. eigenvalues --    0.02565   0.03830   0.04995   0.06030   0.06225
 Alpha virt. eigenvalues --    0.06683   0.07387   0.07528   0.08067   0.09052
 Alpha virt. eigenvalues --    0.09269   0.09448   0.09864   0.10298   0.10812

 Mulliken charges:
               1
     1  C   -0.173303
     2  C   -0.285597
     3  C    0.259589
     4  C   -0.194239
     5  H    0.146374
     6  S   -0.162978
     7  H    0.189824
     8  C    0.173511
     9  S   -0.521159
    10  C    0.249478
    11  C   -0.458857
    12  C    0.644019
    13  H    0.160643
    14  S   -0.429926
    15  C   -0.208383
    16  C    0.218565
    17  H    0.192164
    18  H    0.161481
    19  O   -0.232083
    20  H    0.270877
 Sum of Mulliken charges =  -0.00000

 Dipole moment (field-independent basis, Debye):
    X=              1.9687    Y=              0.8623    Z=              0.6376  Tot=              2.2418
 Quadrupole moment (field-independent basis, Debye-Ang):
   XX=            -77.6507   YY=            -98.8234   ZZ=           -101.7682
   XY=              7.7085   XZ=              0.8708   YZ=              0.3144

 Normal termination of Gaussian 16 at Mon Oct 25 23:48:43 2021.
