 Gaussian 16, Revision C.01,
 Gaussian 16:  ES64L-G16RevC.01  3-Jul-2019

 --------------------------------------
 # opt=modredundant wb97xd/6-311+g(d,p)
 --------------------------------------

 --------------
 pBTTT_-175.pdb
 --------------
 Symbolic Z-matrix:
 Charge =  0 Multiplicity = 1

 SCF Done:  E(RwB97XD) =  -1654.30183863     A.U. after   19 cycles
 SCF Done:  E(RwB97XD) =  -1654.35997394     A.U. after   16 cycles
 SCF Done:  E(RwB97XD) =  -1654.39936730     A.U. after   17 cycles
 SCF Done:  E(RwB97XD) =  -1654.40884736     A.U. after   16 cycles
 SCF Done:  E(RwB97XD) =  -1654.41119011     A.U. after   15 cycles
 SCF Done:  E(RwB97XD) =  -1654.41177931     A.U. after   14 cycles
 SCF Done:  E(RwB97XD) =  -1654.41190118     A.U. after   14 cycles
 SCF Done:  E(RwB97XD) =  -1654.41210158     A.U. after   13 cycles
 SCF Done:  E(RwB97XD) =  -1654.41210627     A.U. after   13 cycles
 SCF Done:  E(RwB97XD) =  -1654.41212384     A.U. after   12 cycles
 SCF Done:  E(RwB97XD) =  -1654.41212618     A.U. after   11 cycles
 SCF Done:  E(RwB97XD) =  -1654.41212651     A.U. after   10 cycles
 Optimization completed.
    -- Stationary point found.

                         Standard orientation:
 ---------------------------------------------------------------------
 Center     Atomic      Atomic             Coordinates (Angstroms)
 Number     Number       Type             X           Y           Z
 ---------------------------------------------------------------------
      1          6           0        3.918119    0.882483    0.020981
      2          6           0        2.521735    1.159690    0.037220
      3          6           0        1.732819    0.036153   -0.004459
      4          6           0        4.177595   -0.450395   -0.035606
      5          1           0        4.685752    1.646111    0.049789
      6         16           0        2.738424   -1.383449   -0.075305
      7          1           0        5.139288   -0.939066   -0.059303
      8          6           0        0.282993   -0.037968   -0.002174
      9         16           0       -0.525702   -1.597938    0.071449
     10          6           0       -2.079471   -0.836276    0.033122
     11          6           0       -1.949899    0.536049   -0.026510
     12          6           0       -0.607294    1.001050   -0.047678
     13          1           0       -0.301431    2.034516   -0.095063
     14         16           0       -3.504706    1.297722   -0.061822
     15          6           0       -4.294674   -0.248273    0.004331
     16          6           0       -3.427049   -1.294378    0.051478
     17          1           0       -5.373532   -0.290336    0.004739
     18          1           0       -3.735456   -2.329308    0.096331
     19          8           0        1.989504    2.409048    0.088056
     20          1           0        2.691845    3.055516    0.165675
 ---------------------------------------------------------------------

 The electronic state is 1-A.
 Alpha  occ. eigenvalues --  -89.05415 -89.04574 -89.04546 -19.29765 -10.36271
 Alpha  occ. eigenvalues --  -10.33543 -10.32858 -10.32853 -10.31884 -10.31822
 Alpha  occ. eigenvalues --  -10.31812 -10.30576 -10.30091 -10.29489  -8.09492
 Alpha  occ. eigenvalues --   -8.08619  -8.08608  -6.04336  -6.03950  -6.03568
 Alpha  occ. eigenvalues --   -6.03471  -6.03467  -6.03100  -6.03095  -6.02683
 Alpha  occ. eigenvalues --   -6.02635  -1.18789  -1.01759  -0.99925  -0.94960
 Alpha  occ. eigenvalues --   -0.87025  -0.86079  -0.84234  -0.80532  -0.79838
 Alpha  occ. eigenvalues --   -0.71186  -0.70543  -0.66064  -0.65298  -0.62693
 Alpha  occ. eigenvalues --   -0.60775  -0.58208  -0.57051  -0.53728  -0.53008
 Alpha  occ. eigenvalues --   -0.51930  -0.50258  -0.49050  -0.47803  -0.47028
 Alpha  occ. eigenvalues --   -0.45809  -0.45409  -0.44675  -0.43467  -0.42868
 Alpha  occ. eigenvalues --   -0.41340  -0.36765  -0.34591  -0.32304  -0.30321
 Alpha  occ. eigenvalues --   -0.26623
 Alpha virt. eigenvalues --    0.00698   0.04565   0.05306   0.06123   0.06299
 Alpha virt. eigenvalues --    0.06959   0.07409   0.07659   0.08460   0.08752
 Alpha virt. eigenvalues --    0.09290   0.09608   0.09957   0.10781   0.10955

 Mulliken charges:
               1
     1  C   -0.425377
     2  C    0.550430
     3  C    0.518698
     4  C   -0.130314
     5  H    0.144536
     6  S   -0.579130
     7  H    0.189469
     8  C    0.025784
     9  S   -0.635676
    10  C    0.321313
    11  C    0.276065
    12  C    0.069174
    13  H    0.182443
    14  S   -0.454242
    15  C   -0.163928
    16  C   -0.258752
    17  H    0.192138
    18  H    0.159933
    19  O   -0.258827
    20  H    0.276266
 Sum of Mulliken charges =  -0.00000

 Dipole moment (field-independent basis, Debye):
    X=              2.2437    Y=              1.1680    Z=              0.1142  Tot=              2.5321
 Quadrupole moment (field-independent basis, Debye-Ang):
   XX=            -77.5620   YY=            -92.0535   ZZ=           -108.4151
   XY=              9.9955   XZ=              0.2921   YZ=              0.3429

 Normal termination of Gaussian 16 at Mon Oct 25 23:33:07 2021.
