 Gaussian 16, Revision C.01,
 Gaussian 16:  ES64L-G16RevC.01  3-Jul-2019

 --------------------------------------
 # opt=modredundant wb97xd/6-311+g(d,p)
 --------------------------------------

 -------------
 pBTTT_-70.pdb
 -------------
 Symbolic Z-matrix:
 Charge =  0 Multiplicity = 1

 SCF Done:  E(RwB97XD) =  -1654.29900412     A.U. after   18 cycles
 SCF Done:  E(RwB97XD) =  -1654.35766171     A.U. after   15 cycles
 SCF Done:  E(RwB97XD) =  -1654.39766553     A.U. after   16 cycles
 SCF Done:  E(RwB97XD) =  -1654.40735803     A.U. after   16 cycles
 SCF Done:  E(RwB97XD) =  -1654.40965749     A.U. after   16 cycles
 SCF Done:  E(RwB97XD) =  -1654.41018669     A.U. after   14 cycles
 SCF Done:  E(RwB97XD) =  -1654.41038307     A.U. after   14 cycles
 SCF Done:  E(RwB97XD) =  -1654.41054526     A.U. after   14 cycles
 SCF Done:  E(RwB97XD) =  -1654.41055021     A.U. after   13 cycles
 SCF Done:  E(RwB97XD) =  -1654.41056618     A.U. after   13 cycles
 SCF Done:  E(RwB97XD) =  -1654.41057062     A.U. after   11 cycles
 SCF Done:  E(RwB97XD) =  -1654.41057099     A.U. after   11 cycles
 SCF Done:  E(RwB97XD) =  -1654.41057100     A.U. after    9 cycles
 Optimization completed.
    -- Stationary point found.

                         Standard orientation:
 ---------------------------------------------------------------------
 Center     Atomic      Atomic             Coordinates (Angstroms)
 Number     Number       Type             X           Y           Z
 ---------------------------------------------------------------------
      1          6           0       -3.989202    0.339889    0.449840
      2          6           0       -2.632111    0.746508    0.611610
      3          6           0       -1.734795   -0.096170    0.012718
      4          6           0       -4.098252   -0.810226   -0.269005
      5          1           0       -4.835673    0.879051    0.857310
      6         16           0       -2.569957   -1.408553   -0.764062
      7          1           0       -5.001947   -1.337570   -0.534315
      8          6           0       -0.276958   -0.012155    0.002066
      9         16           0        0.528344    1.254944   -0.903869
     10          6           0        2.079546    0.628944   -0.467064
     11          6           0        1.952587   -0.500834    0.318288
     12          6           0        0.606755   -0.872034    0.585830
     13          1           0        0.294707   -1.717519    1.183248
     14         16           0        3.506487   -1.123866    0.761019
     15          6           0        4.295857    0.149471   -0.118165
     16          6           0        3.430236    1.008805   -0.717664
     17          1           0        5.374844    0.185026   -0.139228
     18          1           0        3.740356    1.860670   -1.306212
     19          8           0       -2.227761    1.846180    1.294262
     20          1           0       -2.990148    2.307327    1.644969
 ---------------------------------------------------------------------

 The electronic state is 1-A.
 Alpha  occ. eigenvalues --  -89.05181 -89.04684 -89.04396 -19.29025 -10.36057
 Alpha  occ. eigenvalues --  -10.33233 -10.32682 -10.32201 -10.31977 -10.31951
 Alpha  occ. eigenvalues --  -10.31886 -10.30322 -10.30134 -10.30084  -8.09239
 Alpha  occ. eigenvalues --   -8.08731  -8.08436  -6.04074  -6.03692  -6.03579
 Alpha  occ. eigenvalues --   -6.03333  -6.03290  -6.03207  -6.02916  -6.02793
 Alpha  occ. eigenvalues --   -6.02484  -1.18196  -1.01741  -0.99664  -0.94964
 Alpha  occ. eigenvalues --   -0.86866  -0.85930  -0.83912  -0.80602  -0.79877
 Alpha  occ. eigenvalues --   -0.70904  -0.70093  -0.66220  -0.64848  -0.62675
 Alpha  occ. eigenvalues --   -0.60816  -0.58087  -0.57012  -0.53537  -0.52549
 Alpha  occ. eigenvalues --   -0.51927  -0.49959  -0.49533  -0.47360  -0.46971
 Alpha  occ. eigenvalues --   -0.45759  -0.45018  -0.44382  -0.43949  -0.41979
 Alpha  occ. eigenvalues --   -0.41611  -0.36447  -0.33443  -0.31203  -0.30275
 Alpha  occ. eigenvalues --   -0.28513
 Alpha virt. eigenvalues --    0.02182   0.04329   0.05014   0.05981   0.06132
 Alpha virt. eigenvalues --    0.06601   0.07415   0.07466   0.08119   0.09145
 Alpha virt. eigenvalues --    0.09264   0.09565   0.09853   0.10218   0.10832

 Mulliken charges:
               1
     1  C   -0.075563
     2  C   -0.493529
     3  C    0.331781
     4  C   -0.274586
     5  H    0.145767
     6  S   -0.161766
     7  H    0.190285
     8  C    0.513522
     9  S   -0.475247
    10  C    0.317735
    11  C   -0.557489
    12  C    0.490972
    13  H    0.166674
    14  S   -0.433477
    15  C   -0.208349
    16  C    0.152661
    17  H    0.192133
    18  H    0.161518
    19  O   -0.250807
    20  H    0.267766
 Sum of Mulliken charges =  -0.00000

 Dipole moment (field-independent basis, Debye):
    X=             -2.0959    Y=              0.6595    Z=              0.5770  Tot=              2.2717
 Quadrupole moment (field-independent basis, Debye-Ang):
   XX=            -76.7465   YY=            -97.9483   ZZ=           -103.3057
   XY=             -1.1197   XZ=             -5.8558   YZ=              0.0694

 Normal termination of Gaussian 16 at Tue Oct 26 00:05:34 2021.
