 Gaussian 16, Revision C.01,
 Gaussian 16:  ES64L-G16RevC.01  3-Jul-2019

 --------------------------------------
 # opt=modredundant wb97xd/6-311+g(d,p)
 --------------------------------------

 -------------
 pBTTT_145.pdb
 -------------
 Symbolic Z-matrix:
 Charge =  0 Multiplicity = 1

 SCF Done:  E(RwB97XD) =  -1654.30051860     A.U. after   19 cycles
 SCF Done:  E(RwB97XD) =  -1654.35905615     A.U. after   16 cycles
 SCF Done:  E(RwB97XD) =  -1654.39888405     A.U. after   17 cycles
 SCF Done:  E(RwB97XD) =  -1654.40869979     A.U. after   16 cycles
 SCF Done:  E(RwB97XD) =  -1654.41117268     A.U. after   16 cycles
 SCF Done:  E(RwB97XD) =  -1654.41178503     A.U. after   14 cycles
 SCF Done:  E(RwB97XD) =  -1654.41190468     A.U. after   14 cycles
 SCF Done:  E(RwB97XD) =  -1654.41206919     A.U. after   13 cycles
 SCF Done:  E(RwB97XD) =  -1654.41207857     A.U. after   13 cycles
 SCF Done:  E(RwB97XD) =  -1654.41209284     A.U. after   12 cycles
 SCF Done:  E(RwB97XD) =  -1654.41209510     A.U. after   11 cycles
 SCF Done:  E(RwB97XD) =  -1654.41209557     A.U. after   10 cycles
 Optimization completed.
    -- Stationary point found.

                         Standard orientation:
 ---------------------------------------------------------------------
 Center     Atomic      Atomic             Coordinates (Angstroms)
 Number     Number       Type             X           Y           Z
 ---------------------------------------------------------------------
      1          6           0       -3.911511    0.858341    0.160946
      2          6           0       -2.513181    1.117915    0.244103
      3          6           0       -1.733663    0.031509   -0.061097
      4          6           0       -4.175312   -0.424416   -0.204983
      5          1           0       -4.676835    1.596748    0.366252
      6         16           0       -2.740606   -1.326161   -0.473190
      7          1           0       -5.140015   -0.887918   -0.343081
      8          6           0       -0.283343   -0.049642   -0.049217
      9         16           0        0.521313   -1.534781    0.434437
     10          6           0        2.074695   -0.803968    0.215585
     11          6           0        1.946509    0.512840   -0.179641
     12          6           0        0.603049    0.949274   -0.335575
     13          1           0        0.293485    1.938378   -0.639093
     14         16           0        3.501180    1.245207   -0.390840
     15          6           0        4.290467   -0.236514    0.056373
     16          6           0        3.423102   -1.241030    0.351623
     17          1           0        5.369322   -0.274933    0.075114
     18          1           0        3.731658   -2.232947    0.650181
     19          8           0       -1.969868    2.316368    0.581960
     20          1           0       -2.653740    2.895629    0.919726
 ---------------------------------------------------------------------

 The electronic state is 1-A.
 Alpha  occ. eigenvalues --  -89.05332 -89.04620 -89.04562 -19.29393 -10.36150
 Alpha  occ. eigenvalues --  -10.33364 -10.32775 -10.32609 -10.31926 -10.31876
 Alpha  occ. eigenvalues --  -10.31863 -10.30473 -10.30116 -10.29704  -8.09401
 Alpha  occ. eigenvalues --   -8.08666  -8.08614  -6.04241  -6.03857  -6.03513
 Alpha  occ. eigenvalues --   -6.03486  -6.03473  -6.03142  -6.03102  -6.02729
 Alpha  occ. eigenvalues --   -6.02651  -1.18457  -1.01767  -0.99826  -0.94978
 Alpha  occ. eigenvalues --   -0.86987  -0.86034  -0.84113  -0.80577  -0.79821
 Alpha  occ. eigenvalues --   -0.71073  -0.70314  -0.66104  -0.65083  -0.62782
 Alpha  occ. eigenvalues --   -0.60721  -0.58056  -0.57109  -0.53695  -0.52787
 Alpha  occ. eigenvalues --   -0.51908  -0.50181  -0.49113  -0.47744  -0.46975
 Alpha  occ. eigenvalues --   -0.45831  -0.44924  -0.44621  -0.43796  -0.42511
 Alpha  occ. eigenvalues --   -0.41529  -0.36629  -0.34224  -0.32110  -0.30340
 Alpha  occ. eigenvalues --   -0.27112
 Alpha virt. eigenvalues --    0.01163   0.04672   0.05254   0.06076   0.06275
 Alpha virt. eigenvalues --    0.06938   0.07518   0.07569   0.08298   0.08925
 Alpha virt. eigenvalues --    0.09506   0.09641   0.09750   0.10427   0.10795

 Mulliken charges:
               1
     1  C   -0.243411
     2  C   -0.154862
     3  C    0.530927
     4  C   -0.170171
     5  H    0.146403
     6  S   -0.405703
     7  H    0.189736
     8  C    0.485968
     9  S   -0.560944
    10  C    0.448592
    11  C    0.142087
    12  C    0.011937
    13  H    0.172338
    14  S   -0.453291
    15  C   -0.137128
    16  C   -0.366400
    17  H    0.191851
    18  H    0.160614
    19  O   -0.258572
    20  H    0.270029
 Sum of Mulliken charges =  -0.00000

 Dipole moment (field-independent basis, Debye):
    X=             -2.0977    Y=              1.0385    Z=              0.5442  Tot=              2.4032
 Quadrupole moment (field-independent basis, Debye-Ang):
   XX=            -78.0033   YY=            -93.8901   ZZ=           -106.5496
   XY=             -9.2143   XZ=             -1.1406   YZ=              0.9819

 Normal termination of Gaussian 16 at Tue Oct 26 00:42:59 2021.
