 Gaussian 16, Revision C.01,
 Gaussian 16:  ES64L-G16RevC.01  3-Jul-2019

 --------------------------------------
 # opt=modredundant wb97xd/6-311+g(d,p)
 --------------------------------------

 -------------
 pBTTT_130.pdb
 -------------
 Symbolic Z-matrix:
 Charge =  0 Multiplicity = 1

 SCF Done:  E(RwB97XD) =  -1654.29964762     A.U. after   19 cycles
 SCF Done:  E(RwB97XD) =  -1654.35828936     A.U. after   16 cycles
 SCF Done:  E(RwB97XD) =  -1654.39824144     A.U. after   17 cycles
 SCF Done:  E(RwB97XD) =  -1654.40807817     A.U. after   16 cycles
 SCF Done:  E(RwB97XD) =  -1654.41055204     A.U. after   15 cycles
 SCF Done:  E(RwB97XD) =  -1654.41122369     A.U. after   14 cycles
 SCF Done:  E(RwB97XD) =  -1654.41128543     A.U. after   14 cycles
 SCF Done:  E(RwB97XD) =  -1654.41144806     A.U. after   13 cycles
 SCF Done:  E(RwB97XD) =  -1654.41145942     A.U. after   13 cycles
 SCF Done:  E(RwB97XD) =  -1654.41147053     A.U. after   12 cycles
 SCF Done:  E(RwB97XD) =  -1654.41147257     A.U. after   11 cycles
 SCF Done:  E(RwB97XD) =  -1654.41147324     A.U. after   10 cycles
 SCF Done:  E(RwB97XD) =  -1654.41147332     A.U. after    9 cycles
 Optimization completed.
    -- Stationary point found.

                         Standard orientation:
 ---------------------------------------------------------------------
 Center     Atomic      Atomic             Coordinates (Angstroms)
 Number     Number       Type             X           Y           Z
 ---------------------------------------------------------------------
      1          6           0       -3.909874    0.828988    0.228334
      2          6           0       -2.510421    1.075311    0.340809
      3          6           0       -1.734786    0.032064   -0.092663
      4          6           0       -4.175146   -0.403322   -0.282351
      5          1           0       -4.674599    1.539011    0.518489
      6         16           0       -2.742567   -1.271167   -0.651667
      7          1           0       -5.141328   -0.845351   -0.471810
      8          6           0       -0.282529   -0.056469   -0.078229
      9         16           0        0.516391   -1.468234    0.595530
     10          6           0        2.071511   -0.769012    0.301908
     11          6           0        1.948111    0.488888   -0.255032
     12          6           0        0.605411    0.899701   -0.476087
     13          1           0        0.297182    1.843940   -0.901107
     14         16           0        3.504927    1.189513   -0.544228
     15          6           0        4.289198   -0.225220    0.089154
     16          6           0        3.419223   -1.185806    0.499627
     17          1           0        5.367874   -0.260525    0.121312
     18          1           0        3.725041   -2.132993    0.920987
     19          8           0       -1.963775    2.222445    0.818948
     20          1           0       -2.648170    2.763823    1.213550
 ---------------------------------------------------------------------

 The electronic state is 1-A.
 Alpha  occ. eigenvalues --  -89.05257 -89.04648 -89.04540 -19.29196 -10.36114
 Alpha  occ. eigenvalues --  -10.33256 -10.32743 -10.32432 -10.31948 -10.31917
 Alpha  occ. eigenvalues --  -10.31885 -10.30406 -10.30131 -10.29837  -8.09323
 Alpha  occ. eigenvalues --   -8.08694  -8.08587  -6.04160  -6.03777  -6.03542
 Alpha  occ. eigenvalues --   -6.03443  -6.03412  -6.03170  -6.03072  -6.02758
 Alpha  occ. eigenvalues --   -6.02630  -1.18304  -1.01757  -0.99753  -0.94973
 Alpha  occ. eigenvalues --   -0.86944  -0.85989  -0.84026  -0.80592  -0.79825
 Alpha  occ. eigenvalues --   -0.70997  -0.70188  -0.66134  -0.64944  -0.62845
 Alpha  occ. eigenvalues --   -0.60701  -0.58021  -0.57099  -0.53659  -0.52667
 Alpha  occ. eigenvalues --   -0.51880  -0.50095  -0.49236  -0.47631  -0.46947
 Alpha  occ. eigenvalues --   -0.45844  -0.44831  -0.44480  -0.43936  -0.42287
 Alpha  occ. eigenvalues --   -0.41608  -0.36538  -0.33889  -0.31895  -0.30303
 Alpha  occ. eigenvalues --   -0.27594
 Alpha virt. eigenvalues --    0.01564   0.04578   0.05124   0.06090   0.06237
 Alpha virt. eigenvalues --    0.06883   0.07476   0.07582   0.08222   0.09071
 Alpha virt. eigenvalues --    0.09396   0.09571   0.09820   0.10277   0.10748

 Mulliken charges:
               1
     1  C   -0.231591
     2  C   -0.258309
     3  C    0.545290
     4  C   -0.190521
     5  H    0.146608
     6  S   -0.341347
     7  H    0.190084
     8  C    0.577285
     9  S   -0.508912
    10  C    0.403093
    11  C    0.136073
    12  C   -0.046382
    13  H    0.167577
    14  S   -0.448659
    15  C   -0.132923
    16  C   -0.376633
    17  H    0.191857
    18  H    0.161106
    19  O   -0.250417
    20  H    0.266722
 Sum of Mulliken charges =  -0.00000

 Dipole moment (field-independent basis, Debye):
    X=             -2.0332    Y=              0.9723    Z=              0.6570  Tot=              2.3475
 Quadrupole moment (field-independent basis, Debye-Ang):
   XX=            -78.0982   YY=            -95.2510   ZZ=           -105.1505
   XY=             -8.7193   XZ=             -1.2481   YZ=              0.8180

 Normal termination of Gaussian 16 at Tue Oct 26 00:31:20 2021.
