 Gaussian 16, Revision C.01,
 Gaussian 16:  ES64L-G16RevC.01  3-Jul-2019

 --------------------------------------
 # opt=modredundant wb97xd/6-311+g(d,p)
 --------------------------------------

 --------------
 pBTTT_-160.pdb
 --------------
 Symbolic Z-matrix:
 Charge =  0 Multiplicity = 1

 SCF Done:  E(RwB97XD) =  -1654.30193633     A.U. after   18 cycles
 SCF Done:  E(RwB97XD) =  -1654.36003105     A.U. after   16 cycles
 SCF Done:  E(RwB97XD) =  -1654.39950143     A.U. after   17 cycles
 SCF Done:  E(RwB97XD) =  -1654.40898125     A.U. after   16 cycles
 SCF Done:  E(RwB97XD) =  -1654.41129931     A.U. after   15 cycles
 SCF Done:  E(RwB97XD) =  -1654.41187765     A.U. after   14 cycles
 SCF Done:  E(RwB97XD) =  -1654.41201146     A.U. after   14 cycles
 SCF Done:  E(RwB97XD) =  -1654.41222254     A.U. after   13 cycles
 SCF Done:  E(RwB97XD) =  -1654.41223043     A.U. after   13 cycles
 SCF Done:  E(RwB97XD) =  -1654.41225411     A.U. after   12 cycles
 SCF Done:  E(RwB97XD) =  -1654.41225694     A.U. after   11 cycles
 SCF Done:  E(RwB97XD) =  -1654.41225719     A.U. after   10 cycles
 Optimization completed.
    -- Stationary point found.

                         Standard orientation:
 ---------------------------------------------------------------------
 Center     Atomic      Atomic             Coordinates (Angstroms)
 Number     Number       Type             X           Y           Z
 ---------------------------------------------------------------------
      1          6           0        3.916244    0.873689    0.086085
      2          6           0        2.519628    1.145086    0.146181
      3          6           0        1.733058    0.033269   -0.025349
      4          6           0        4.175461   -0.442473   -0.134113
      5          1           0        4.683982    1.628838    0.202093
      6         16           0        2.736465   -1.364371   -0.287848
      7          1           0        5.137557   -0.922767   -0.223723
      8          6           0        0.283324   -0.041380   -0.015220
      9         16           0       -0.524862   -1.576238    0.270222
     10          6           0       -2.077775   -0.825237    0.129019
     11          6           0       -1.947697    0.528943   -0.103962
     12          6           0       -0.604338    0.984309   -0.190190
     13          1           0       -0.296219    2.002599   -0.372169
     14         16           0       -3.501765    1.280708   -0.237822
     15          6           0       -4.292730   -0.244114    0.022631
     16          6           0       -3.426045   -1.276239    0.203118
     17          1           0       -5.371624   -0.285105    0.027502
     18          1           0       -3.735326   -2.296920    0.378601
     19          8           0        1.984024    2.377610    0.348001
     20          1           0        2.677254    2.995784    0.581660
 ---------------------------------------------------------------------

 The electronic state is 1-A.
 Alpha  occ. eigenvalues --  -89.05383 -89.04595 -89.04558 -19.29609 -10.36209
 Alpha  occ. eigenvalues --  -10.33474 -10.32815 -10.32762 -10.31902 -10.31844
 Alpha  occ. eigenvalues --  -10.31837 -10.30533 -10.30103 -10.29579  -8.09456
 Alpha  occ. eigenvalues --   -8.08641  -8.08617  -6.04299  -6.03914  -6.03536
 Alpha  occ. eigenvalues --   -6.03489  -6.03478  -6.03116  -6.03107  -6.02704
 Alpha  occ. eigenvalues --   -6.02648  -1.18642  -1.01767  -0.99885  -0.94971
 Alpha  occ. eigenvalues --   -0.87013  -0.86067  -0.84185  -0.80554  -0.79829
 Alpha  occ. eigenvalues --   -0.71142  -0.70446  -0.66081  -0.65215  -0.62728
 Alpha  occ. eigenvalues --   -0.60750  -0.58140  -0.57079  -0.53721  -0.52911
 Alpha  occ. eigenvalues --   -0.51923  -0.50239  -0.49052  -0.47799  -0.47017
 Alpha  occ. eigenvalues --   -0.45817  -0.45167  -0.44673  -0.43616  -0.42716
 Alpha  occ. eigenvalues --   -0.41426  -0.36717  -0.34465  -0.32237  -0.30341
 Alpha  occ. eigenvalues --   -0.26791
 Alpha virt. eigenvalues --    0.00862   0.04631   0.05319   0.06089   0.06301
 Alpha virt. eigenvalues --    0.06960   0.07459   0.07639   0.08379   0.08815
 Alpha virt. eigenvalues --    0.09462   0.09607   0.09845   0.10633   0.10863

 Mulliken charges:
               1
     1  C   -0.289938
     2  C    0.122751
     3  C    0.506614
     4  C   -0.140495
     5  H    0.145422
     6  S   -0.491775
     7  H    0.189135
     8  C    0.261645
     9  S   -0.599900
    10  C    0.427394
    11  C    0.236139
    12  C    0.035633
    13  H    0.176916
    14  S   -0.454223
    15  C   -0.148306
    16  C   -0.341670
    17  H    0.191874
    18  H    0.160167
    19  O   -0.261095
    20  H    0.273713
 Sum of Mulliken charges =  -0.00000

 Dipole moment (field-independent basis, Debye):
    X=              2.1760    Y=              1.1096    Z=              0.3504  Tot=              2.4676
 Quadrupole moment (field-independent basis, Debye-Ang):
   XX=            -77.7592   YY=            -92.7675   ZZ=           -107.7066
   XY=              9.6844   XZ=              0.8191   YZ=              0.8596

 Normal termination of Gaussian 16 at Mon Oct 25 23:40:04 2021.
