 Gaussian 16, Revision C.01,
 Gaussian 16:  ES64L-G16RevC.01  3-Jul-2019

 --------------------------------------
 # opt=modredundant wb97xd/6-311+g(d,p)
 --------------------------------------

 --------------
 pBTTT_-145.pdb
 --------------
 Symbolic Z-matrix:
 Charge =  0 Multiplicity = 1

 SCF Done:  E(RwB97XD) =  -1654.30117975     A.U. after   18 cycles
 SCF Done:  E(RwB97XD) =  -1654.35945750     A.U. after   16 cycles
 SCF Done:  E(RwB97XD) =  -1654.39923723     A.U. after   17 cycles
 SCF Done:  E(RwB97XD) =  -1654.40876977     A.U. after   15 cycles
 SCF Done:  E(RwB97XD) =  -1654.41111536     A.U. after   15 cycles
 SCF Done:  E(RwB97XD) =  -1654.41170056     A.U. after   14 cycles
 SCF Done:  E(RwB97XD) =  -1654.41186356     A.U. after   14 cycles
 SCF Done:  E(RwB97XD) =  -1654.41205157     A.U. after   13 cycles
 SCF Done:  E(RwB97XD) =  -1654.41207102     A.U. after   13 cycles
 SCF Done:  E(RwB97XD) =  -1654.41209309     A.U. after   12 cycles
 SCF Done:  E(RwB97XD) =  -1654.41209496     A.U. after   11 cycles
 SCF Done:  E(RwB97XD) =  -1654.41209552     A.U. after   11 cycles
 Optimization completed.
    -- Stationary point found.

                         Standard orientation:
 ---------------------------------------------------------------------
 Center     Atomic      Atomic             Coordinates (Angstroms)
 Number     Number       Type             X           Y           Z
 ---------------------------------------------------------------------
      1          6           0        3.911587    0.858316    0.160375
      2          6           0        2.513280    1.117873    0.244077
      3          6           0        1.733668    0.031512   -0.061032
      4          6           0        4.175258   -0.424477   -0.205526
      5          1           0        4.676989    1.596644    0.365683
      6         16           0        2.740455   -1.326192   -0.473378
      7          1           0        5.139912   -0.888038   -0.343762
      8          6           0        0.283332   -0.049536   -0.048909
      9         16           0       -0.521326   -1.534609    0.434885
     10          6           0       -2.074705   -0.803929    0.215575
     11          6           0       -1.946512    0.512838   -0.179792
     12          6           0       -0.603028    0.949405   -0.335226
     13          1           0       -0.293490    1.938441   -0.638999
     14         16           0       -3.501175    1.245107   -0.391319
     15          6           0       -4.290474   -0.236508    0.056225
     16          6           0       -3.423111   -1.240930    0.351803
     17          1           0       -5.369328   -0.274855    0.075151
     18          1           0       -3.731664   -2.232787    0.650563
     19          8           0        1.970081    2.316164    0.582704
     20          1           0        2.653906    2.894994    0.921303
 ---------------------------------------------------------------------

 The electronic state is 1-A.
 Alpha  occ. eigenvalues --  -89.05332 -89.04620 -89.04562 -19.29392 -10.36150
 Alpha  occ. eigenvalues --  -10.33364 -10.32774 -10.32609 -10.31926 -10.31876
 Alpha  occ. eigenvalues --  -10.31863 -10.30473 -10.30116 -10.29704  -8.09401
 Alpha  occ. eigenvalues --   -8.08666  -8.08615  -6.04241  -6.03857  -6.03514
 Alpha  occ. eigenvalues --   -6.03486  -6.03473  -6.03142  -6.03102  -6.02729
 Alpha  occ. eigenvalues --   -6.02651  -1.18455  -1.01767  -0.99826  -0.94978
 Alpha  occ. eigenvalues --   -0.86987  -0.86034  -0.84113  -0.80577  -0.79821
 Alpha  occ. eigenvalues --   -0.71073  -0.70313  -0.66105  -0.65083  -0.62783
 Alpha  occ. eigenvalues --   -0.60721  -0.58056  -0.57109  -0.53695  -0.52787
 Alpha  occ. eigenvalues --   -0.51907  -0.50182  -0.49113  -0.47743  -0.46975
 Alpha  occ. eigenvalues --   -0.45831  -0.44922  -0.44621  -0.43796  -0.42511
 Alpha  occ. eigenvalues --   -0.41529  -0.36629  -0.34223  -0.32110  -0.30340
 Alpha  occ. eigenvalues --   -0.27112
 Alpha virt. eigenvalues --    0.01163   0.04671   0.05254   0.06076   0.06275
 Alpha virt. eigenvalues --    0.06938   0.07519   0.07569   0.08298   0.08925
 Alpha virt. eigenvalues --    0.09506   0.09642   0.09751   0.10428   0.10795

 Mulliken charges:
               1
     1  C   -0.243325
     2  C   -0.155241
     3  C    0.530796
     4  C   -0.170101
     5  H    0.146409
     6  S   -0.405636
     7  H    0.189735
     8  C    0.485833
     9  S   -0.561061
    10  C    0.448836
    11  C    0.141861
    12  C    0.012124
    13  H    0.172335
    14  S   -0.453251
    15  C   -0.137112
    16  C   -0.366103
    17  H    0.191852
    18  H    0.160615
    19  O   -0.258588
    20  H    0.270024
 Sum of Mulliken charges =  -0.00000

 Dipole moment (field-independent basis, Debye):
    X=              2.0973    Y=              1.0376    Z=              0.5456  Tot=              2.4027
 Quadrupole moment (field-independent basis, Debye-Ang):
   XX=            -78.0037   YY=            -93.8963   ZZ=           -106.5447
   XY=              9.2105   XZ=              1.1431   YZ=              0.9846

 Normal termination of Gaussian 16 at Mon Oct 25 23:40:20 2021.
