 Gaussian 16, Revision C.01,
 Gaussian 16:  ES64L-G16RevC.01  3-Jul-2019

 --------------------------------------
 # opt=modredundant wb97xd/6-311+g(d,p)
 --------------------------------------

 -------------
 pBTTT_115.pdb
 -------------
 Symbolic Z-matrix:
 Charge =  0 Multiplicity = 1

 SCF Done:  E(RwB97XD) =  -1654.29856208     A.U. after   18 cycles
 SCF Done:  E(RwB97XD) =  -1654.35734164     A.U. after   16 cycles
 SCF Done:  E(RwB97XD) =  -1654.39754662     A.U. after   16 cycles
 SCF Done:  E(RwB97XD) =  -1654.40737711     A.U. after   16 cycles
 SCF Done:  E(RwB97XD) =  -1654.40978772     A.U. after   15 cycles
 SCF Done:  E(RwB97XD) =  -1654.41042513     A.U. after   14 cycles
 SCF Done:  E(RwB97XD) =  -1654.41054986     A.U. after   15 cycles
 SCF Done:  E(RwB97XD) =  -1654.41070791     A.U. after   14 cycles
 SCF Done:  E(RwB97XD) =  -1654.41071899     A.U. after   13 cycles
 SCF Done:  E(RwB97XD) =  -1654.41073103     A.U. after   12 cycles
 SCF Done:  E(RwB97XD) =  -1654.41073384     A.U. after   11 cycles
 SCF Done:  E(RwB97XD) =  -1654.41073439     A.U. after   11 cycles
 SCF Done:  E(RwB97XD) =  -1654.41073444     A.U. after   10 cycles
 Optimization completed.
    -- Stationary point found.

                         Standard orientation:
 ---------------------------------------------------------------------
 Center     Atomic      Atomic             Coordinates (Angstroms)
 Number     Number       Type             X           Y           Z
 ---------------------------------------------------------------------
      1          6           0       -3.917886    0.778192    0.274887
      2          6           0       -2.520422    1.008133    0.442133
      3          6           0       -1.736478    0.028570   -0.106264
      4          6           0       -4.171009   -0.380678   -0.390845
      5          1           0       -4.689422    1.446002    0.638108
      6         16           0       -2.730936   -1.198070   -0.836302
      7          1           0       -5.133359   -0.794543   -0.650932
      8          6           0       -0.280758   -0.058062   -0.082613
      9         16           0        0.516259   -1.365315    0.777029
     10          6           0        2.071674   -0.713210    0.394448
     11          6           0        1.950605    0.455329   -0.332583
     12          6           0        0.607758    0.831866   -0.608435
     13          1           0        0.299967    1.708226   -1.160839
     14         16           0        3.508151    1.108752   -0.713814
     15          6           0        4.290243   -0.204447    0.111291
     16          6           0        3.419532   -1.098523    0.649851
     17          1           0        5.368882   -0.235285    0.149803
     18          1           0        3.724431   -1.977990    1.199207
     19          8           0       -1.983267    2.081793    1.074004
     20          1           0       -2.679485    2.590354    1.490788
 ---------------------------------------------------------------------

 The electronic state is 1-A.
 Alpha  occ. eigenvalues --  -89.05171 -89.04679 -89.04500 -19.29056 -10.36083
 Alpha  occ. eigenvalues --  -10.33171 -10.32712 -10.32254 -10.31971 -10.31965
 Alpha  occ. eigenvalues --  -10.31900 -10.30338 -10.30147 -10.29965  -8.09234
 Alpha  occ. eigenvalues --   -8.08725  -8.08543  -6.04069  -6.03688  -6.03573
 Alpha  occ. eigenvalues --   -6.03396  -6.03328  -6.03201  -6.03026  -6.02788
 Alpha  occ. eigenvalues --   -6.02592  -1.18204  -1.01746  -0.99673  -0.94965
 Alpha  occ. eigenvalues --   -0.86895  -0.85942  -0.83932  -0.80605  -0.79838
 Alpha  occ. eigenvalues --   -0.70922  -0.70087  -0.66166  -0.64823  -0.62892
 Alpha  occ. eigenvalues --   -0.60701  -0.58047  -0.57036  -0.53614  -0.52569
 Alpha  occ. eigenvalues --   -0.51847  -0.49992  -0.49401  -0.47505  -0.46964
 Alpha  occ. eigenvalues --   -0.45829  -0.44834  -0.44342  -0.44009  -0.42067
 Alpha  occ. eigenvalues --   -0.41656  -0.36475  -0.33518  -0.31506  -0.30238
 Alpha  occ. eigenvalues --   -0.28268
 Alpha virt. eigenvalues --    0.02059   0.04257   0.05003   0.06083   0.06212
 Alpha virt. eigenvalues --    0.06773   0.07414   0.07586   0.08136   0.09132
 Alpha virt. eigenvalues --    0.09322   0.09400   0.09862   0.10250   0.10753

 Mulliken charges:
               1
     1  C   -0.219760
     2  C   -0.220693
     3  C    0.347988
     4  C   -0.189249
     5  H    0.146482
     6  S   -0.257780
     7  H    0.190052
     8  C    0.158331
     9  S   -0.574418
    10  C    0.200011
    11  C   -0.290417
    12  C    0.595235
    13  H    0.162125
    14  S   -0.436293
    15  C   -0.203092
    16  C    0.206469
    17  H    0.192006
    18  H    0.161094
    19  O   -0.234131
    20  H    0.266038
 Sum of Mulliken charges =  -0.00000

 Dipole moment (field-independent basis, Debye):
    X=             -1.9863    Y=              0.9126    Z=              0.6778  Tot=              2.2886
 Quadrupole moment (field-independent basis, Debye-Ang):
   XX=            -77.9631   YY=            -96.9081   ZZ=           -103.5259
   XY=             -8.2373   XZ=             -1.1522   YZ=              0.5463

 Normal termination of Gaussian 16 at Tue Oct 26 00:29:40 2021.
