 Gaussian 16, Revision C.01,
 Gaussian 16:  ES64L-G16RevC.01  3-Jul-2019

 --------------------------------------
 # opt=modredundant wb97xd/6-311+g(d,p)
 --------------------------------------

 -------------
 pBTTT_110.pdb
 -------------
 Symbolic Z-matrix:
 Charge =  0 Multiplicity = 1

 SCF Done:  E(RwB97XD) =  -1654.29851704     A.U. after   18 cycles
 SCF Done:  E(RwB97XD) =  -1654.35725006     A.U. after   16 cycles
 SCF Done:  E(RwB97XD) =  -1654.39738074     A.U. after   16 cycles
 SCF Done:  E(RwB97XD) =  -1654.40716549     A.U. after   16 cycles
 SCF Done:  E(RwB97XD) =  -1654.40959009     A.U. after   15 cycles
 SCF Done:  E(RwB97XD) =  -1654.41021210     A.U. after   15 cycles
 SCF Done:  E(RwB97XD) =  -1654.41033485     A.U. after   15 cycles
 SCF Done:  E(RwB97XD) =  -1654.41049640     A.U. after   14 cycles
 SCF Done:  E(RwB97XD) =  -1654.41050699     A.U. after   13 cycles
 SCF Done:  E(RwB97XD) =  -1654.41052317     A.U. after   13 cycles
 SCF Done:  E(RwB97XD) =  -1654.41052666     A.U. after   11 cycles
 SCF Done:  E(RwB97XD) =  -1654.41052702     A.U. after   11 cycles
 SCF Done:  E(RwB97XD) =  -1654.41052711     A.U. after   11 cycles
 Optimization completed.
    -- Stationary point found.

                         Standard orientation:
 ---------------------------------------------------------------------
 Center     Atomic      Atomic             Coordinates (Angstroms)
 Number     Number       Type             X           Y           Z
 ---------------------------------------------------------------------
      1          6           0       -3.923014    0.755861    0.284933
      2          6           0       -2.527420    0.979480    0.475895
      3          6           0       -1.737075    0.025487   -0.106551
      4          6           0       -4.167704   -0.373028   -0.433506
      5          1           0       -4.699112    1.406486    0.669029
      6         16           0       -2.722406   -1.169903   -0.898037
      7          1           0       -5.127001   -0.775707   -0.721108
      8          6           0       -0.280094   -0.057213   -0.078010
      9         16           0        0.517899   -1.321032    0.842795
     10          6           0        2.072693   -0.688939    0.426812
     11          6           0        1.951028    0.441129   -0.358802
     12          6           0        0.607707    0.803925   -0.650364
     13          1           0        0.298937    1.651425   -1.245763
     14         16           0        3.508075    1.074726   -0.774009
     15          6           0        4.291013   -0.194499    0.116539
     16          6           0        3.421024   -1.060099    0.700715
     17          1           0        5.369698   -0.223266    0.155559
     18          1           0        3.726605   -1.910272    1.294054
     19          8           0       -1.997024    2.023961    1.159522
     20          1           0       -2.698968    2.526368    1.574093
 ---------------------------------------------------------------------

 The electronic state is 1-A.
 Alpha  occ. eigenvalues --  -89.05146 -89.04688 -89.04483 -19.29028 -10.36073
 Alpha  occ. eigenvalues --  -10.33149 -10.32701 -10.32201 -10.31981 -10.31978
 Alpha  occ. eigenvalues --  -10.31902 -10.30319 -10.30152 -10.30002  -8.09208
 Alpha  occ. eigenvalues --   -8.08734  -8.08526  -6.04042  -6.03661  -6.03582
 Alpha  occ. eigenvalues --   -6.03378  -6.03302  -6.03210  -6.03008  -6.02797
 Alpha  occ. eigenvalues --   -6.02576  -1.18185  -1.01744  -0.99652  -0.94963
 Alpha  occ. eigenvalues --   -0.86881  -0.85929  -0.83906  -0.80609  -0.79844
 Alpha  occ. eigenvalues --   -0.70901  -0.70066  -0.66176  -0.64793  -0.62899
 Alpha  occ. eigenvalues --   -0.60707  -0.58061  -0.57011  -0.53598  -0.52547
 Alpha  occ. eigenvalues --   -0.51840  -0.49958  -0.49458  -0.47468  -0.46977
 Alpha  occ. eigenvalues --   -0.45819  -0.44854  -0.44310  -0.44019  -0.42005
 Alpha  occ. eigenvalues --   -0.41666  -0.36462  -0.33414  -0.31323  -0.30213
 Alpha  occ. eigenvalues --   -0.28529
 Alpha virt. eigenvalues --    0.02237   0.04114   0.04995   0.06069   0.06215
 Alpha virt. eigenvalues --    0.06741   0.07402   0.07570   0.08108   0.09109
 Alpha virt. eigenvalues --    0.09313   0.09398   0.09862   0.10266   0.10771

 Mulliken charges:
               1
     1  C   -0.207018
     2  C   -0.229110
     3  C    0.303376
     4  C   -0.187322
     5  H    0.146422
     6  S   -0.226129
     7  H    0.189950
     8  C    0.146742
     9  S   -0.561144
    10  C    0.216387
    11  C   -0.347208
    12  C    0.623992
    13  H    0.160879
    14  S   -0.433694
    15  C   -0.205865
    16  C    0.221335
    17  H    0.192051
    18  H    0.161213
    19  O   -0.232249
    20  H    0.267392
 Sum of Mulliken charges =  -0.00000

 Dipole moment (field-independent basis, Debye):
    X=             -1.9764    Y=              0.9004    Z=              0.6620  Tot=              2.2705
 Quadrupole moment (field-independent basis, Debye-Ang):
   XX=            -77.8681   YY=            -97.5008   ZZ=           -102.9689
   XY=             -8.0915   XZ=             -1.0620   YZ=              0.4504

 Normal termination of Gaussian 16 at Tue Oct 26 00:20:14 2021.
