 Gaussian 16, Revision C.01,
 Gaussian 16:  ES64L-G16RevC.01  3-Jul-2019

 --------------------------------------
 # opt=modredundant wb97xd/6-311+g(d,p)
 --------------------------------------

 --------------
 pBTTT_-125.pdb
 --------------
 Symbolic Z-matrix:
 Charge =  0 Multiplicity = 1

 SCF Done:  E(RwB97XD) =  -1654.29945779     A.U. after   18 cycles
 SCF Done:  E(RwB97XD) =  -1654.35795246     A.U. after   15 cycles
 SCF Done:  E(RwB97XD) =  -1654.39810217     A.U. after   16 cycles
 SCF Done:  E(RwB97XD) =  -1654.40780512     A.U. after   15 cycles
 SCF Done:  E(RwB97XD) =  -1654.41024818     A.U. after   15 cycles
 SCF Done:  E(RwB97XD) =  -1654.41087054     A.U. after   14 cycles
 SCF Done:  E(RwB97XD) =  -1654.41100424     A.U. after   14 cycles
 SCF Done:  E(RwB97XD) =  -1654.41120545     A.U. after   14 cycles
 SCF Done:  E(RwB97XD) =  -1654.41123074     A.U. after   13 cycles
 SCF Done:  E(RwB97XD) =  -1654.41125387     A.U. after   13 cycles
 SCF Done:  E(RwB97XD) =  -1654.41125602     A.U. after   11 cycles
 SCF Done:  E(RwB97XD) =  -1654.41125680     A.U. after   11 cycles
 Optimization completed.
    -- Stationary point found.

                         Standard orientation:
 ---------------------------------------------------------------------
 Center     Atomic      Atomic             Coordinates (Angstroms)
 Number     Number       Type             X           Y           Z
 ---------------------------------------------------------------------
      1          6           0        3.911430    0.814435    0.246533
      2          6           0        2.512187    1.056573    0.373209
      3          6           0        1.735231    0.032386   -0.100380
      4          6           0        4.174369   -0.396829   -0.313483
      5          1           0        4.677529    1.511748    0.562753
      6         16           0        2.740392   -1.249257   -0.711648
      7          1           0        5.139930   -0.831096   -0.523198
      8          6           0        0.281929   -0.056956   -0.083518
      9         16           0       -0.514973   -1.438315    0.652221
     10          6           0       -2.070837   -0.753174    0.331703
     11          6           0       -1.949289    0.479046   -0.280582
     12          6           0       -0.606893    0.880089   -0.521387
     13          1           0       -0.299782    1.804591   -0.988734
     14         16           0       -3.506956    1.165512   -0.597973
     15          6           0       -4.289289   -0.220248    0.098656
     16          6           0       -3.418228   -1.161392    0.549645
     17          1           0       -5.367897   -0.254416    0.134505
     18          1           0       -3.722940   -2.089146    1.012951
     19          8           0        1.967434    2.182192    0.901121
     20          1           0        2.654628    2.710158    1.308795
 ---------------------------------------------------------------------

 The electronic state is 1-A.
 Alpha  occ. eigenvalues --  -89.05229 -89.04658 -89.04530 -19.29141 -10.36104
 Alpha  occ. eigenvalues --  -10.33227 -10.32733 -10.32374 -10.31956 -10.31933
 Alpha  occ. eigenvalues --  -10.31892 -10.30383 -10.30137 -10.29882  -8.09293
 Alpha  occ. eigenvalues --   -8.08703  -8.08576  -6.04129  -6.03748  -6.03552
 Alpha  occ. eigenvalues --   -6.03431  -6.03385  -6.03179  -6.03060  -6.02767
 Alpha  occ. eigenvalues --   -6.02621  -1.18263  -1.01753  -0.99726  -0.94969
 Alpha  occ. eigenvalues --   -0.86926  -0.85974  -0.83993  -0.80596  -0.79829
 Alpha  occ. eigenvalues --   -0.70971  -0.70148  -0.66145  -0.64900  -0.62863
 Alpha  occ. eigenvalues --   -0.60698  -0.58024  -0.57083  -0.53645  -0.52630
 Alpha  occ. eigenvalues --   -0.51867  -0.50062  -0.49287  -0.47587  -0.46948
 Alpha  occ. eigenvalues --   -0.45842  -0.44820  -0.44429  -0.43968  -0.42213
 Alpha  occ. eigenvalues --   -0.41627  -0.36512  -0.33764  -0.31793  -0.30284
 Alpha  occ. eigenvalues --   -0.27794
 Alpha virt. eigenvalues --    0.01718   0.04494   0.05040   0.06092   0.06220
 Alpha virt. eigenvalues --    0.06832   0.07452   0.07591   0.08194   0.09099
 Alpha virt. eigenvalues --    0.09357   0.09476   0.09844   0.10253   0.10739

 Mulliken charges:
               1
     1  C   -0.233329
     2  C   -0.213289
     3  C    0.405501
     4  C   -0.187333
     5  H    0.146585
     6  S   -0.305034
     7  H    0.190192
     8  C    0.180966
     9  S   -0.598559
    10  C    0.213354
    11  C   -0.263848
    12  C    0.602997
    13  H    0.166312
    14  S   -0.441457
    15  C   -0.195907
    16  C    0.156958
    17  H    0.191926
    18  H    0.160941
    19  O   -0.241658
    20  H    0.264682
 Sum of Mulliken charges =  -0.00000

 Dipole moment (field-independent basis, Debye):
    X=              2.0154    Y=              0.9467    Z=              0.6789  Tot=              2.3279
 Quadrupole moment (field-independent basis, Debye-Ang):
   XX=            -78.0847   YY=            -95.7792   ZZ=           -104.6225
   XY=              8.5428   XZ=              1.2511   YZ=              0.7365

 Normal termination of Gaussian 16 at Mon Oct 25 23:57:55 2021.
