 Gaussian 16, Revision C.01,
 Gaussian 16:  ES64L-G16RevC.01  3-Jul-2019

 -------------------------------------
 # opt=modredundant b3lyp/6-311+g(d,p)
 -------------------------------------

 -----------
 NDI_135.pdb
 -----------
 Symbolic Z-matrix:
 Charge = -1 Multiplicity = 2

 SCF Done:  E(UB3LYP) =  -2359.41353319     A.U. after   23 cycles
 SCF Done:  E(UB3LYP) =  -2359.41637212     A.U. after   22 cycles
 SCF Done:  E(UB3LYP) =  -2359.42339524     A.U. after   21 cycles
 SCF Done:  E(UB3LYP) =  -2359.42588179     A.U. after   19 cycles
 SCF Done:  E(UB3LYP) =  -2359.42707081     A.U. after   21 cycles
 SCF Done:  E(UB3LYP) =  -2359.42745268     A.U. after   18 cycles
 SCF Done:  E(UB3LYP) =  -2359.42754625     A.U. after   18 cycles
 SCF Done:  E(UB3LYP) =  -2359.42758303     A.U. after   17 cycles
 SCF Done:  E(UB3LYP) =  -2359.42760764     A.U. after   16 cycles
 SCF Done:  E(UB3LYP) =  -2359.42761803     A.U. after   15 cycles
 SCF Done:  E(UB3LYP) =  -2359.42769834     A.U. after   14 cycles
 SCF Done:  E(UB3LYP) =  -2359.42769895     A.U. after   14 cycles
 SCF Done:  E(UB3LYP) =  -2359.42769911     A.U. after   10 cycles
 SCF Done:  E(UB3LYP) =  -2359.42769920     A.U. after   10 cycles
 SCF Done:  E(UB3LYP) =  -2359.42769928     A.U. after   10 cycles
 SCF Done:  E(UB3LYP) =  -2359.42769937     A.U. after   10 cycles
 SCF Done:  E(UB3LYP) =  -2359.42769945     A.U. after   10 cycles
 SCF Done:  E(UB3LYP) =  -2359.42769951     A.U. after    9 cycles
 SCF Done:  E(UB3LYP) =  -2359.42769958     A.U. after    9 cycles
 SCF Done:  E(UB3LYP) =  -2359.42769961     A.U. after    9 cycles
 Optimization completed.
    -- Stationary point found.

                         Standard orientation:
 ---------------------------------------------------------------------
 Center     Atomic      Atomic             Coordinates (Angstroms)
 Number     Number       Type             X           Y           Z
 ---------------------------------------------------------------------
      1          6           0        3.469985   -2.701052    0.421917
      2          6           0        2.753990   -1.466253    0.121441
      3          6           0        3.434779   -0.225822    0.131217
      4          6           0        4.813022   -0.153195    0.438286
      5          6           0        5.563771   -1.366352    0.754222
      6          6           0        1.377302   -1.505226   -0.131285
      7          6           0        2.705964    0.967885   -0.189093
      8          6           0        1.319051    0.896454   -0.504659
      9          6           0        0.640247   -0.359369   -0.421940
     10          6           0        0.666051    2.094906   -1.030652
     11          6           0        2.723681    3.441489   -0.544932
     12          6           0        3.406912    2.200679   -0.195219
     13          6           0        4.777764    2.243975    0.125264
     14          6           0        5.470724    1.091672    0.436915
     15          1           0        6.525686    1.115320    0.678925
     16          1           0        5.268266    3.209180    0.113427
     17          1           0        0.875475   -2.460310   -0.045562
     18          7           0        1.384706    3.306539   -0.940679
     19          7           0        4.837710   -2.574500    0.722217
     20          8           0        2.951293   -3.819528    0.425478
     21          8           0        6.764147   -1.368460    1.033647
     22          8           0        3.266099    4.549079   -0.525364
     23          8           0       -0.447950    2.115586   -1.552682
     24          6           0        0.677154    4.502924   -1.398788
     25          1           0        0.520155    4.463818   -2.479620
     26          1           0       -0.301246    4.553287   -0.920947
     27          1           0        1.285600    5.365103   -1.141306
     28          6           0        5.546466   -3.818220    1.025470
     29          1           0        5.088575   -4.308239    1.886788
     30          1           0        5.479485   -4.502049    0.177229
     31          1           0        6.582118   -3.566167    1.233982
     32          6           0       -0.819988   -0.537763   -0.527513
     33          6           0       -1.471730   -1.496486   -1.266643
     34         16           0       -1.936264    0.309921    0.507109
     35          6           0       -2.869272   -1.526675   -1.031035
     36          1           0       -0.952838   -2.134062   -1.967434
     37          6           0       -3.312671   -0.611684   -0.089324
     38          8           0       -3.771206   -2.352675   -1.645758
     39          6           0       -4.664920   -0.379915    0.352736
     40          6           0       -3.275230   -3.263318   -2.615132
     41          6           0       -5.116400    0.522653    1.304963
     42         16           0       -6.044426   -1.261493   -0.298070
     43          1           0       -4.140895   -3.815959   -2.979551
     44          1           0       -2.801965   -2.735942   -3.450595
     45          1           0       -2.556885   -3.962987   -2.174053
     46          6           0       -6.526369    0.519352    1.500663
     47          8           0       -4.215005    1.295990    1.982238
     48          6           0       -7.158040   -0.391811    0.701442
     49          1           0       -7.044747    1.158695    2.201456
     50          6           0       -4.703562    2.443013    2.657550
     51          1           0       -8.213933   -0.606525    0.644269
     52          1           0       -5.332028    2.168511    3.513450
     53          1           0       -3.825409    2.977597    3.017907
     54          1           0       -5.272381    3.090517    1.980543
 ---------------------------------------------------------------------

 The electronic state is 2-A.
 Alpha  occ. eigenvalues --  -88.80139 -88.77990 -19.08506 -19.08310 -18.99395
 Alpha  occ. eigenvalues --  -18.99306 -18.99075 -18.98914 -14.26361 -14.26017
 Alpha  occ. eigenvalues --  -10.17892 -10.17660 -10.17538 -10.17503 -10.16252
 Alpha  occ. eigenvalues --  -10.15881 -10.15819 -10.15100 -10.13394 -10.12662
 Alpha  occ. eigenvalues --  -10.11957 -10.11908 -10.11023 -10.10452 -10.10264
 Alpha  occ. eigenvalues --  -10.10161 -10.10118 -10.09910 -10.09107 -10.08674
 Alpha  occ. eigenvalues --  -10.08555 -10.08523 -10.08471 -10.08290 -10.07913
 Alpha  occ. eigenvalues --  -10.07851  -7.88695  -7.86549  -5.85003  -5.84621
 Alpha  occ. eigenvalues --   -5.84264  -5.82877  -5.82484  -5.82086  -1.00095
 Alpha  occ. eigenvalues --   -0.99695  -0.95457  -0.95265  -0.93389  -0.93174
 Alpha  occ. eigenvalues --   -0.83584  -0.83268  -0.81295  -0.79716  -0.78624
 Alpha  occ. eigenvalues --   -0.74060  -0.71594  -0.69848  -0.68288  -0.66746
 Alpha  occ. eigenvalues --   -0.66179  -0.65444  -0.63878  -0.63398  -0.61968
 Alpha  occ. eigenvalues --   -0.60978  -0.60287  -0.58607  -0.54867  -0.53968
 Alpha  occ. eigenvalues --   -0.53383  -0.52347  -0.51531  -0.49828  -0.48045
 Alpha  occ. eigenvalues --   -0.47605  -0.45987  -0.45810  -0.45140  -0.42995
 Alpha  occ. eigenvalues --   -0.41947  -0.40792  -0.40493  -0.40210  -0.39995
 Alpha  occ. eigenvalues --   -0.39236  -0.38202  -0.38033  -0.37827  -0.37501
 Alpha  occ. eigenvalues --   -0.36936  -0.36588  -0.36458  -0.35218  -0.34340
 Alpha  occ. eigenvalues --   -0.34103  -0.33679  -0.33475  -0.32899  -0.32577
 Alpha  occ. eigenvalues --   -0.32430  -0.32207  -0.31605  -0.30467  -0.30363
 Alpha  occ. eigenvalues --   -0.30194  -0.29943  -0.29837  -0.29577  -0.29193
 Alpha  occ. eigenvalues --   -0.28938  -0.28716  -0.27811  -0.27382  -0.26944
 Alpha  occ. eigenvalues --   -0.25993  -0.25539  -0.24917  -0.24323  -0.24233
 Alpha  occ. eigenvalues --   -0.22657  -0.20047  -0.19427  -0.18479  -0.17847
 Alpha  occ. eigenvalues --   -0.17626  -0.17088  -0.16828  -0.16217  -0.16057
 Alpha  occ. eigenvalues --   -0.15688  -0.14718  -0.13835  -0.10285  -0.05074
 Alpha virt. eigenvalues --    0.03235   0.04700   0.05822   0.06491   0.06784
 Alpha virt. eigenvalues --    0.07359   0.07454   0.08585   0.08846   0.09028
 Alpha virt. eigenvalues --    0.09198   0.09397   0.10013   0.10405   0.10618

  Beta  occ. eigenvalues --  -88.80138 -88.77983 -19.08500 -19.08314 -18.99208
  Beta  occ. eigenvalues --  -18.99104 -18.98888 -18.98701 -14.26412 -14.26068
  Beta  occ. eigenvalues --  -10.17844 -10.17614 -10.17493 -10.17460 -10.16252
  Beta  occ. eigenvalues --  -10.15867 -10.15818 -10.15113 -10.13403 -10.12649
  Beta  occ. eigenvalues --  -10.11933 -10.11928 -10.11028 -10.10452 -10.10176
  Beta  occ. eigenvalues --  -10.10160 -10.10157 -10.09965 -10.08916 -10.08643
  Beta  occ. eigenvalues --  -10.08403 -10.08347 -10.08305 -10.08237 -10.07829
  Beta  occ. eigenvalues --  -10.07769  -7.88694  -7.86542  -5.85003  -5.84620
  Beta  occ. eigenvalues --   -5.84261  -5.82868  -5.82476  -5.82072  -1.00082
  Beta  occ. eigenvalues --   -0.99704  -0.95217  -0.95018  -0.93057  -0.92835
  Beta  occ. eigenvalues --   -0.83468  -0.83151  -0.81278  -0.79611  -0.78529
  Beta  occ. eigenvalues --   -0.73745  -0.71286  -0.69760  -0.68258  -0.66677
  Beta  occ. eigenvalues --   -0.66041  -0.65023  -0.63816  -0.63342  -0.61944
  Beta  occ. eigenvalues --   -0.60925  -0.60060  -0.58304  -0.54721  -0.53783
  Beta  occ. eigenvalues --   -0.53267  -0.52226  -0.51467  -0.49768  -0.48028
  Beta  occ. eigenvalues --   -0.47547  -0.45973  -0.45683  -0.45016  -0.42840
  Beta  occ. eigenvalues --   -0.41851  -0.40773  -0.40450  -0.40215  -0.39966
  Beta  occ. eigenvalues --   -0.39083  -0.37995  -0.37955  -0.37639  -0.37475
  Beta  occ. eigenvalues --   -0.36852  -0.36465  -0.36403  -0.35133  -0.34190
  Beta  occ. eigenvalues --   -0.34033  -0.33566  -0.33417  -0.32849  -0.32414
  Beta  occ. eigenvalues --   -0.32190  -0.31951  -0.31476  -0.30253  -0.30135
  Beta  occ. eigenvalues --   -0.30052  -0.29762  -0.29620  -0.29028  -0.28951
  Beta  occ. eigenvalues --   -0.28657  -0.28139  -0.27759  -0.27130  -0.26697
  Beta  occ. eigenvalues --   -0.25930  -0.25515  -0.24798  -0.24234  -0.24167
  Beta  occ. eigenvalues --   -0.21906  -0.19812  -0.18471  -0.18286  -0.17503
  Beta  occ. eigenvalues --   -0.17155  -0.16767  -0.16653  -0.16000  -0.15574
  Beta  occ. eigenvalues --   -0.15438  -0.14600  -0.12351  -0.10074
  Beta virt. eigenvalues --   -0.00605   0.03444   0.05775   0.05824   0.06756
  Beta virt. eigenvalues --    0.06924   0.07382   0.08244   0.08596   0.08911
  Beta virt. eigenvalues --    0.09075   0.09284   0.09404   0.10025   0.10410

 Mulliken charges and spin densities:
               1          2
     1  C    0.319479   0.017930
     2  C   -0.117619   0.129299
     3  C    0.117328  -0.039419
     4  C    0.210461   0.104262
     5  C    0.179999   0.018639
     6  C   -0.322605   0.042480
     7  C    0.189491  -0.036519
     8  C    0.049219   0.145227
     9  C    0.293154   0.069107
    10  C   -0.435859   0.015274
    11  C    0.245534   0.018562
    12  C    0.098122   0.112672
    13  C   -0.463807   0.057308
    14  C   -0.584904   0.068197
    15  H    0.129865  -0.004811
    16  H    0.131305  -0.004097
    17  H    0.140815  -0.002487
    18  N   -0.071231  -0.020198
    19  N   -0.142626  -0.020554
    20  O   -0.358422   0.075749
    21  O   -0.348296   0.069662
    22  O   -0.352619   0.070224
    23  O   -0.271658   0.080816
    24  C   -0.171240   0.001442
    25  H    0.154648  -0.001118
    26  H    0.159652  -0.000686
    27  H    0.169063  -0.000386
    28  C   -0.188657   0.001288
    29  H    0.153753  -0.000940
    30  H    0.151929  -0.000919
    31  H    0.169160  -0.000351
    32  C    0.289893  -0.014545
    33  C   -0.621255   0.023650
    34  S   -0.559283   0.013902
    35  C   -0.041830  -0.007540
    36  H    0.120206  -0.001025
    37  C    0.541150   0.011075
    38  O   -0.137031  -0.000575
    39  C    0.821373  -0.007288
    40  C   -0.223258  -0.000074
    41  C   -0.069343   0.010622
    42  S   -0.281046   0.000790
    43  H    0.148785  -0.000000
    44  H    0.145429  -0.000112
    45  H    0.145917  -0.000071
    46  C   -0.470538  -0.004322
    47  O   -0.128054   0.000457
    48  C   -0.330203   0.009621
    49  H    0.113442   0.000189
    50  C   -0.262609  -0.000093
    51  H    0.141108  -0.000590
    52  H    0.123158   0.000105
    53  H    0.159378   0.000022
    54  H    0.141175   0.000148
 Sum of Mulliken charges =  -1.00000   1.00000

 Dipole moment (field-independent basis, Debye):
    X=            -11.3127    Y=             -0.9969    Z=              0.0363  Tot=             11.3566
 Quadrupole moment (field-independent basis, Debye-Ang):
   XX=           -314.2128   YY=           -263.3403   ZZ=           -223.9816
   XY=             -8.6218   XZ=            -12.3448   YZ=             18.5939

 Normal termination of Gaussian 16 at Wed Oct  6 00:30:00 2021.
