 Gaussian 16, Revision C.01,
 Gaussian 16:  ES64L-G16RevC.01  3-Jul-2019

 -------------------------------------
 # opt=modredundant b3lyp/6-311+g(d,p)
 -------------------------------------

 ----------
 NDI_75.pdb
 ----------
 Symbolic Z-matrix:
 Charge = -1 Multiplicity = 2

 SCF Done:  E(UB3LYP) =  -2359.41951556     A.U. after   24 cycles
 SCF Done:  E(UB3LYP) =  -2359.42599056     A.U. after   17 cycles
 SCF Done:  E(UB3LYP) =  -2359.42739625     A.U. after   20 cycles
 SCF Done:  E(UB3LYP) =  -2359.42765540     A.U. after   17 cycles
 SCF Done:  E(UB3LYP) =  -2359.42780186     A.U. after   17 cycles
 SCF Done:  E(UB3LYP) =  -2359.42787398     A.U. after   13 cycles
 SCF Done:  E(UB3LYP) =  -2359.42791198     A.U. after   15 cycles
 SCF Done:  E(UB3LYP) =  -2359.42793331     A.U. after   14 cycles
 SCF Done:  E(UB3LYP) =  -2359.42794716     A.U. after   14 cycles
 SCF Done:  E(UB3LYP) =  -2359.42796622     A.U. after   13 cycles
 SCF Done:  E(UB3LYP) =  -2359.42798349     A.U. after   13 cycles
 SCF Done:  E(UB3LYP) =  -2359.42805257     A.U. after   14 cycles
 SCF Done:  E(UB3LYP) =  -2359.42806038     A.U. after   16 cycles
 SCF Done:  E(UB3LYP) =  -2359.42806402     A.U. after   16 cycles
 SCF Done:  E(UB3LYP) =  -2359.42806485     A.U. after   13 cycles
 SCF Done:  E(UB3LYP) =  -2359.42806498     A.U. after   10 cycles
 SCF Done:  E(UB3LYP) =  -2359.42806499     A.U. after   11 cycles
 SCF Done:  E(UB3LYP) =  -2359.42806497     A.U. after    9 cycles
 SCF Done:  E(UB3LYP) =  -2359.42806497     A.U. after    9 cycles
 Optimization completed.
    -- Stationary point found.

                         Standard orientation:
 ---------------------------------------------------------------------
 Center     Atomic      Atomic             Coordinates (Angstroms)
 Number     Number       Type             X           Y           Z
 ---------------------------------------------------------------------
      1          6           0       -3.073498   -2.849429    0.556631
      2          6           0       -2.540559   -1.508470    0.342056
      3          6           0       -3.409070   -0.435646    0.034335
      4          6           0       -4.805560   -0.637801   -0.074100
      5          6           0       -5.378533   -1.965328    0.133052
      6          6           0       -1.162377   -1.280389    0.459785
      7          6           0       -2.854736    0.872041   -0.173687
      8          6           0       -1.449388    1.078662   -0.063563
      9          6           0       -0.604326   -0.019189    0.284990
     10          6           0       -0.909779    2.408726   -0.348996
     11          6           0       -3.232848    3.279640   -0.728024
     12          6           0       -3.740046    1.933326   -0.492430
     13          6           0       -5.126366    1.702160   -0.590835
     14          6           0       -5.652028    0.442971   -0.385769
     15          1           0       -6.715762    0.256164   -0.461339
     16          1           0       -5.761940    2.544168   -0.834335
     17          1           0       -0.529106   -2.118800    0.720835
     18          7           0       -1.839727    3.428047   -0.644583
     19          7           0       -4.466773   -2.996526    0.435954
     20          8           0       -2.383839   -3.833039    0.831990
     21          8           0       -6.585502   -2.203845    0.054236
     22          8           0       -3.954271    4.244731   -0.992822
     23          8           0        0.286914    2.697948   -0.354667
     24          6           0       -1.268562    4.749165   -0.910444
     25          1           0       -0.691251    5.086953   -0.047909
     26          1           0       -0.591446    4.699049   -1.765094
     27          1           0       -2.091541    5.428645   -1.111784
     28          6           0       -4.990931   -4.345526    0.651584
     29          1           0       -4.537714   -5.039116   -0.058989
     30          1           0       -4.740792   -4.687270    1.657824
     31          1           0       -6.068000   -4.307033    0.517277
     32          6           0        0.857439    0.103403    0.498323
     33          6           0        1.522072    0.638405    1.568744
     34         16           0        1.967447   -0.609413   -0.635425
     35          6           0        2.930225    0.502769    1.468436
     36          1           0        1.008336    1.132516    2.379973
     37          6           0        3.368559   -0.155015    0.330086
     38          8           0        3.845049    0.942280    2.386724
     39          6           0        4.725734   -0.441780   -0.062888
     40          6           0        3.380691    1.813052    3.408566
     41          6           0        5.171927   -1.108512   -1.195050
     42         16           0        6.118370    0.055294    0.893445
     43          1           0        4.264576    2.120089    3.967425
     44          1           0        2.889290    2.694298    2.983478
     45          1           0        2.687313    1.300192    4.084445
     46          6           0        6.587657   -1.215715   -1.297913
     47          8           0        4.260004   -1.595930   -2.089702
     48          6           0        7.229151   -0.631649   -0.241167
     49          1           0        7.104862   -1.701440   -2.113224
     50          6           0        4.748756   -2.231912   -3.256899
     51          1           0        8.291270   -0.567178   -0.062473
     52          1           0        5.335247   -3.125441   -3.011296
     53          1           0        3.869867   -2.526171   -3.829218
     54          1           0        5.360755   -1.549274   -3.858513
 ---------------------------------------------------------------------

 The electronic state is 2-A.
 Alpha  occ. eigenvalues --  -88.80110 -88.78260 -19.08666 -19.08141 -18.99309
 Alpha  occ. eigenvalues --  -18.99203 -18.99097 -18.98962 -14.26285 -14.26109
 Alpha  occ. eigenvalues --  -10.17807 -10.17596 -10.17568 -10.17564 -10.16420
 Alpha  occ. eigenvalues --  -10.15919 -10.15629 -10.15006 -10.13349 -10.12604
 Alpha  occ. eigenvalues --  -10.11852 -10.11816 -10.11029 -10.10380 -10.10252
 Alpha  occ. eigenvalues --  -10.10212 -10.10161 -10.09941 -10.09283 -10.08516
 Alpha  occ. eigenvalues --  -10.08502 -10.08484 -10.08453 -10.08201 -10.07907
 Alpha  occ. eigenvalues --  -10.07840  -7.88664  -7.86814  -5.84972  -5.84590
 Alpha  occ. eigenvalues --   -5.84234  -5.83137  -5.82744  -5.82362  -1.00252
 Alpha  occ. eigenvalues --   -0.99524  -0.95378  -0.95306  -0.93303  -0.93203
 Alpha  occ. eigenvalues --   -0.83517  -0.83297  -0.81284  -0.79709  -0.78630
 Alpha  occ. eigenvalues --   -0.74030  -0.71595  -0.69799  -0.68340  -0.66772
 Alpha  occ. eigenvalues --   -0.65978  -0.65487  -0.63895  -0.63406  -0.61975
 Alpha  occ. eigenvalues --   -0.60973  -0.60288  -0.58554  -0.54887  -0.53922
 Alpha  occ. eigenvalues --   -0.53398  -0.52230  -0.51594  -0.49841  -0.48149
 Alpha  occ. eigenvalues --   -0.47513  -0.45913  -0.45790  -0.45144  -0.42958
 Alpha  occ. eigenvalues --   -0.41695  -0.40893  -0.40870  -0.40070  -0.39935
 Alpha  occ. eigenvalues --   -0.39256  -0.38151  -0.37976  -0.37828  -0.37502
 Alpha  occ. eigenvalues --   -0.36944  -0.36539  -0.36503  -0.34950  -0.34485
 Alpha  occ. eigenvalues --   -0.34124  -0.33723  -0.33360  -0.32972  -0.32558
 Alpha  occ. eigenvalues --   -0.32362  -0.32253  -0.31578  -0.30462  -0.30228
 Alpha  occ. eigenvalues --   -0.30149  -0.30027  -0.29810  -0.29412  -0.29159
 Alpha  occ. eigenvalues --   -0.29118  -0.28774  -0.27798  -0.27180  -0.27042
 Alpha  occ. eigenvalues --   -0.25996  -0.25644  -0.24868  -0.24248  -0.24098
 Alpha  occ. eigenvalues --   -0.22836  -0.19939  -0.19519  -0.18391  -0.17791
 Alpha  occ. eigenvalues --   -0.17635  -0.17113  -0.16774  -0.16243  -0.16058
 Alpha  occ. eigenvalues --   -0.15598  -0.14776  -0.13860  -0.10242  -0.05101
 Alpha virt. eigenvalues --    0.03564   0.04670   0.05741   0.06602   0.06781
 Alpha virt. eigenvalues --    0.07301   0.07466   0.08500   0.08675   0.08990
 Alpha virt. eigenvalues --    0.09151   0.09467   0.09800   0.10255   0.10671

  Beta  occ. eigenvalues --  -88.80109 -88.78256 -19.08665 -19.08142 -18.99115
  Beta  occ. eigenvalues --  -18.98996 -18.98905 -18.98739 -14.26337 -14.26162
  Beta  occ. eigenvalues --  -10.17758 -10.17551 -10.17522 -10.17516 -10.16420
  Beta  occ. eigenvalues --  -10.15914 -10.15629 -10.15011 -10.13352 -10.12600
  Beta  occ. eigenvalues --  -10.11840 -10.11830 -10.11031 -10.10379 -10.10219
  Beta  occ. eigenvalues --  -10.10211 -10.10145 -10.09998 -10.09095 -10.08436
  Beta  occ. eigenvalues --  -10.08354 -10.08321 -10.08317 -10.08144 -10.07820
  Beta  occ. eigenvalues --  -10.07757  -7.88663  -7.86809  -5.84972  -5.84589
  Beta  occ. eigenvalues --   -5.84232  -5.83131  -5.82738  -5.82357  -1.00248
  Beta  occ. eigenvalues --   -0.99525  -0.95132  -0.95051  -0.92963  -0.92853
  Beta  occ. eigenvalues --   -0.83395  -0.83178  -0.81272  -0.79605  -0.78535
  Beta  occ. eigenvalues --   -0.73708  -0.71282  -0.69724  -0.68309  -0.66692
  Beta  occ. eigenvalues --   -0.65851  -0.65061  -0.63835  -0.63350  -0.61959
  Beta  occ. eigenvalues --   -0.60920  -0.60053  -0.58253  -0.54742  -0.53718
  Beta  occ. eigenvalues --   -0.53307  -0.52046  -0.51576  -0.49793  -0.48137
  Beta  occ. eigenvalues --   -0.47449  -0.45907  -0.45663  -0.45017  -0.42795
  Beta  occ. eigenvalues --   -0.41577  -0.40884  -0.40852  -0.40068  -0.39917
  Beta  occ. eigenvalues --   -0.39091  -0.37931  -0.37909  -0.37636  -0.37483
  Beta  occ. eigenvalues --   -0.36850  -0.36463  -0.36403  -0.34883  -0.34349
  Beta  occ. eigenvalues --   -0.34012  -0.33631  -0.33294  -0.32948  -0.32393
  Beta  occ. eigenvalues --   -0.32134  -0.31947  -0.31473  -0.30097  -0.30056
  Beta  occ. eigenvalues --   -0.30027  -0.29753  -0.29662  -0.29076  -0.28921
  Beta  occ. eigenvalues --   -0.28638  -0.28171  -0.27774  -0.26965  -0.26742
  Beta  occ. eigenvalues --   -0.25984  -0.25620  -0.24800  -0.24147  -0.24088
  Beta  occ. eigenvalues --   -0.21925  -0.19819  -0.18518  -0.18202  -0.17469
  Beta  occ. eigenvalues --   -0.17086  -0.16734  -0.16660  -0.15888  -0.15684
  Beta  occ. eigenvalues --   -0.15396  -0.14670  -0.12285  -0.10172
  Beta virt. eigenvalues --   -0.00511   0.03643   0.05741   0.05818   0.06775
  Beta virt. eigenvalues --    0.07125   0.07318   0.08248   0.08544   0.08757
  Beta virt. eigenvalues --    0.08996   0.09159   0.09470   0.09807   0.10261

 Mulliken charges and spin densities:
               1          2
     1  C    0.361630   0.016198
     2  C   -0.059214   0.133635
     3  C    0.154314  -0.040575
     4  C    0.174974   0.113474
     5  C    0.215130   0.017334
     6  C   -0.721327   0.047901
     7  C    0.196350  -0.036659
     8  C    0.106552   0.140150
     9  C    0.644385   0.072945
    10  C   -0.459871   0.019495
    11  C    0.217725   0.019419
    12  C    0.165684   0.113885
    13  C   -0.538039   0.061604
    14  C   -0.622041   0.065939
    15  H    0.129762  -0.004686
    16  H    0.131084  -0.004396
    17  H    0.142356  -0.003059
    18  N   -0.161958  -0.021016
    19  N   -0.146797  -0.020752
    20  O   -0.353456   0.077412
    21  O   -0.349238   0.072184
    22  O   -0.349574   0.072340
    23  O   -0.174812   0.083395
    24  C   -0.199917   0.001337
    25  H    0.152746  -0.000941
    26  H    0.157067  -0.001012
    27  H    0.170681  -0.000371
    28  C   -0.190475   0.001372
    29  H    0.153222  -0.000922
    30  H    0.152930  -0.000964
    31  H    0.169305  -0.000361
    32  C    0.198739  -0.022227
    33  C   -0.566849   0.008184
    34  S   -0.282757   0.005303
    35  C   -0.419903  -0.001803
    36  H    0.101269  -0.000871
    37  C    0.451687   0.016300
    38  O   -0.130727  -0.000272
    39  C    0.934581  -0.003109
    40  C   -0.245844   0.000445
    41  C    0.031256   0.001624
    42  S   -0.285670   0.000532
    43  H    0.147010  -0.000009
    44  H    0.158107   0.000061
    45  H    0.136508  -0.000042
    46  C   -0.492945  -0.002335
    47  O   -0.129531   0.000840
    48  C   -0.314136   0.003040
    49  H    0.115712   0.000064
    50  C   -0.240610   0.000072
    51  H    0.140447  -0.000188
    52  H    0.129197   0.000028
    53  H    0.161327   0.000014
    54  H    0.133954   0.000044
 Sum of Mulliken charges =  -1.00000   1.00000

 Dipole moment (field-independent basis, Debye):
    X=             11.4142    Y=             -0.3059    Z=              0.3662  Tot=             11.4242
 Quadrupole moment (field-independent basis, Debye-Ang):
   XX=           -318.1798   YY=           -269.6816   ZZ=           -215.1153
   XY=             -2.4696   XZ=            -10.3415   YZ=             19.9804

 Normal termination of Gaussian 16 at Tue Oct  5 16:08:19 2021.
