 Gaussian 16, Revision C.01,
 Gaussian 16:  ES64L-G16RevC.01  3-Jul-2019

 -------------------------------------
 # opt=modredundant b3lyp/6-311+g(d,p)
 -------------------------------------

 -----------
 NDI_110.pdb
 -----------
 Symbolic Z-matrix:
 Charge = -1 Multiplicity = 2

 SCF Done:  E(UB3LYP) =  -2359.41982701     A.U. after   23 cycles
 SCF Done:  E(UB3LYP) =  -2359.42641120     A.U. after   19 cycles
 SCF Done:  E(UB3LYP) =  -2359.42754085     A.U. after   18 cycles
 SCF Done:  E(UB3LYP) =  -2359.42758664     A.U. after   16 cycles
 SCF Done:  E(UB3LYP) =  -2359.42769977     A.U. after   14 cycles
 SCF Done:  E(UB3LYP) =  -2359.42772808     A.U. after   14 cycles
 SCF Done:  E(UB3LYP) =  -2359.42774564     A.U. after   13 cycles
 SCF Done:  E(UB3LYP) =  -2359.42775839     A.U. after   13 cycles
 SCF Done:  E(UB3LYP) =  -2359.42782900     A.U. after   15 cycles
 SCF Done:  E(UB3LYP) =  -2359.42784421     A.U. after   14 cycles
 SCF Done:  E(UB3LYP) =  -2359.42787241     A.U. after   12 cycles
 SCF Done:  E(UB3LYP) =  -2359.42787330     A.U. after   12 cycles
 SCF Done:  E(UB3LYP) =  -2359.42787480     A.U. after   13 cycles
 SCF Done:  E(UB3LYP) =  -2359.42787633     A.U. after   13 cycles
 SCF Done:  E(UB3LYP) =  -2359.42787665     A.U. after   11 cycles
 SCF Done:  E(UB3LYP) =  -2359.42787806     A.U. after   12 cycles
 SCF Done:  E(UB3LYP) =  -2359.42787856     A.U. after   13 cycles
 SCF Done:  E(UB3LYP) =  -2359.42787910     A.U. after   13 cycles
 SCF Done:  E(UB3LYP) =  -2359.42787918     A.U. after   11 cycles
 SCF Done:  E(UB3LYP) =  -2359.42787920     A.U. after   10 cycles
 Optimization completed.
    -- Stationary point found.

                         Standard orientation:
 ---------------------------------------------------------------------
 Center     Atomic      Atomic             Coordinates (Angstroms)
 Number     Number       Type             X           Y           Z
 ---------------------------------------------------------------------
      1          6           0        3.403288   -2.764632    0.282263
      2          6           0        2.719561   -1.493970    0.070106
      3          6           0        3.442309   -0.278996    0.112783
      4          6           0        4.834252   -0.267308    0.367587
      5          6           0        5.553981   -1.517831    0.593626
      6          6           0        1.335700   -1.476568   -0.157247
      7          6           0        2.745294    0.954616   -0.115638
      8          6           0        1.345856    0.945408   -0.377267
      9          6           0        0.637242   -0.293551   -0.367688
     10          6           0        0.685473    2.205598   -0.716862
     11          6           0        2.830749    3.443715   -0.322192
     12          6           0        3.486160    2.163354   -0.081298
     13          6           0        4.870327    2.143916    0.180719
     14          6           0        5.533914    0.954111    0.401265
     15          1           0        6.597883    0.930093    0.600214
     16          1           0        5.393634    3.091573    0.200262
     17          1           0        0.804864   -2.419938   -0.143113
     18          7           0        1.460946    3.380085   -0.622748
     19          7           0        4.784912   -2.697951    0.535198
     20          8           0        2.846846   -3.864332    0.251799
     21          8           0        6.764117   -1.573508    0.822649
     22          8           0        3.416510    4.528625   -0.283110
     23          8           0       -0.485461    2.307676   -1.082079
     24          6           0        0.760839    4.629464   -0.924537
     25          1           0        0.443087    4.642969   -1.969626
     26          1           0       -0.132140    4.710013   -0.303711
     27          1           0        1.447754    5.447605   -0.728507
     28          6           0        5.460455   -3.977772    0.751179
     29          1           0        5.011500   -4.497647    1.599504
     30          1           0        5.346214   -4.613698   -0.128812
     31          1           0        6.509667   -3.769983    0.939820
     32          6           0       -0.829643   -0.410696   -0.544176
     33          6           0       -1.498415   -0.927234   -1.621672
     34         16           0       -1.928432   -0.017694    0.746548
     35          6           0       -2.905080   -0.974440   -1.428657
     36          1           0       -0.989389   -1.231664   -2.524383
     37          6           0       -3.331939   -0.516039   -0.193909
     38          8           0       -3.825222   -1.425748   -2.335931
     39          6           0       -4.683962   -0.425689    0.300043
     40          6           0       -3.355289   -1.784327   -3.626596
     41          6           0       -5.119310    0.017495    1.540159
     42         16           0       -6.083306   -0.880378   -0.667920
     43          1           0       -4.236821   -2.073886   -4.198198
     44          1           0       -2.862463   -0.938833   -4.118501
     45          1           0       -2.661584   -2.630943   -3.577465
     46          6           0       -6.532903    0.005647    1.709140
     47          8           0       -4.201807    0.393079    2.482224
     48          6           0       -7.183173   -0.452896    0.597887
     49          1           0       -7.040981    0.319140    2.610291
     50          6           0       -4.663807    1.141629    3.593750
     51          1           0       -8.245769   -0.568098    0.449952
     52          1           0       -5.313769    0.540677    4.241296
     53          1           0       -3.774654    1.431396    4.152573
     54          1           0       -5.201371    2.041084    3.272168
 ---------------------------------------------------------------------

 The electronic state is 2-A.
 Alpha  occ. eigenvalues --  -88.80126 -88.78063 -19.08543 -19.08276 -18.99285
 Alpha  occ. eigenvalues --  -18.99196 -18.99070 -18.98965 -14.26273 -14.26059
 Alpha  occ. eigenvalues --  -10.17784 -10.17556 -10.17541 -10.17532 -10.16313
 Alpha  occ. eigenvalues --  -10.15869 -10.15797 -10.15078 -10.13377 -10.12635
 Alpha  occ. eigenvalues --  -10.11881 -10.11876 -10.11019 -10.10374 -10.10184
 Alpha  occ. eigenvalues --  -10.10152 -10.10113 -10.09920 -10.09210 -10.08601
 Alpha  occ. eigenvalues --  -10.08489 -10.08483 -10.08461 -10.08200 -10.07893
 Alpha  occ. eigenvalues --  -10.07825  -7.88681  -7.86622  -5.84990  -5.84607
 Alpha  occ. eigenvalues --   -5.84250  -5.82950  -5.82557  -5.82161  -1.00121
 Alpha  occ. eigenvalues --   -0.99660  -0.95354  -0.95275  -0.93279  -0.93182
 Alpha  occ. eigenvalues --   -0.83498  -0.83275  -0.81279  -0.79691  -0.78612
 Alpha  occ. eigenvalues --   -0.74023  -0.71575  -0.69807  -0.68293  -0.66737
 Alpha  occ. eigenvalues --   -0.66097  -0.65431  -0.63870  -0.63376  -0.61959
 Alpha  occ. eigenvalues --   -0.60948  -0.60265  -0.58596  -0.54831  -0.53923
 Alpha  occ. eigenvalues --   -0.53358  -0.52245  -0.51588  -0.49835  -0.48066
 Alpha  occ. eigenvalues --   -0.47574  -0.45956  -0.45780  -0.45118  -0.42926
 Alpha  occ. eigenvalues --   -0.41756  -0.40857  -0.40668  -0.40188  -0.40020
 Alpha  occ. eigenvalues --   -0.39235  -0.38138  -0.38014  -0.37801  -0.37504
 Alpha  occ. eigenvalues --   -0.36917  -0.36549  -0.36449  -0.35071  -0.34439
 Alpha  occ. eigenvalues --   -0.34120  -0.33683  -0.33432  -0.32905  -0.32539
 Alpha  occ. eigenvalues --   -0.32350  -0.32214  -0.31613  -0.30430  -0.30241
 Alpha  occ. eigenvalues --   -0.30118  -0.29990  -0.29834  -0.29456  -0.29144
 Alpha  occ. eigenvalues --   -0.28976  -0.28767  -0.27812  -0.27204  -0.26997
 Alpha  occ. eigenvalues --   -0.25968  -0.25593  -0.24508  -0.24471  -0.24216
 Alpha  occ. eigenvalues --   -0.22680  -0.19889  -0.19510  -0.18383  -0.17782
 Alpha  occ. eigenvalues --   -0.17588  -0.17072  -0.16718  -0.16238  -0.16064
 Alpha  occ. eigenvalues --   -0.15508  -0.14900  -0.13831  -0.10299  -0.05082
 Alpha virt. eigenvalues --    0.03573   0.04643   0.05791   0.06653   0.06805
 Alpha virt. eigenvalues --    0.07273   0.07478   0.08428   0.08647   0.09016
 Alpha virt. eigenvalues --    0.09096   0.09449   0.09882   0.10402   0.10512

  Beta  occ. eigenvalues --  -88.80126 -88.78057 -19.08541 -19.08276 -18.99091
  Beta  occ. eigenvalues --  -18.98989 -18.98878 -18.98741 -14.26326 -14.26112
  Beta  occ. eigenvalues --  -10.17734 -10.17509 -10.17494 -10.17490 -10.16313
  Beta  occ. eigenvalues --  -10.15867 -10.15797 -10.15079 -10.13377 -10.12633
  Beta  occ. eigenvalues --  -10.11891 -10.11871 -10.11020 -10.10373 -10.10171
  Beta  occ. eigenvalues --  -10.10151 -10.10079 -10.09976 -10.09019 -10.08589
  Beta  occ. eigenvalues --  -10.08329 -10.08303 -10.08291 -10.08140 -10.07805
  Beta  occ. eigenvalues --  -10.07743  -7.88681  -7.86616  -5.84989  -5.84607
  Beta  occ. eigenvalues --   -5.84249  -5.82941  -5.82549  -5.82153  -1.00118
  Beta  occ. eigenvalues --   -0.99660  -0.95106  -0.95020  -0.92937  -0.92831
  Beta  occ. eigenvalues --   -0.83376  -0.83155  -0.81270  -0.79586  -0.78518
  Beta  occ. eigenvalues --   -0.73700  -0.71260  -0.69731  -0.68267  -0.66667
  Beta  occ. eigenvalues --   -0.65957  -0.64996  -0.63820  -0.63321  -0.61944
  Beta  occ. eigenvalues --   -0.60895  -0.60038  -0.58285  -0.54684  -0.53726
  Beta  occ. eigenvalues --   -0.53255  -0.52096  -0.51546  -0.49780  -0.48054
  Beta  occ. eigenvalues --   -0.47512  -0.45949  -0.45651  -0.44990  -0.42763
  Beta  occ. eigenvalues --   -0.41650  -0.40842  -0.40641  -0.40188  -0.39999
  Beta  occ. eigenvalues --   -0.39075  -0.37970  -0.37893  -0.37611  -0.37483
  Beta  occ. eigenvalues --   -0.36827  -0.36424  -0.36397  -0.34995  -0.34303
  Beta  occ. eigenvalues --   -0.34017  -0.33592  -0.33361  -0.32879  -0.32375
  Beta  occ. eigenvalues --   -0.32110  -0.31936  -0.31493  -0.30133  -0.30061
  Beta  occ. eigenvalues --   -0.30011  -0.29726  -0.29634  -0.29027  -0.28902
  Beta  occ. eigenvalues --   -0.28619  -0.28119  -0.27785  -0.26969  -0.26717
  Beta  occ. eigenvalues --   -0.25945  -0.25571  -0.24480  -0.24370  -0.24119
  Beta  occ. eigenvalues --   -0.21793  -0.19809  -0.18487  -0.18190  -0.17449
  Beta  occ. eigenvalues --   -0.17050  -0.16701  -0.16647  -0.15874  -0.15615
  Beta  occ. eigenvalues --   -0.15309  -0.14824  -0.12244  -0.10247
  Beta virt. eigenvalues --   -0.00466   0.03620   0.05786   0.05822   0.06739
  Beta virt. eigenvalues --    0.07164   0.07339   0.08309   0.08482   0.08679
  Beta virt. eigenvalues --    0.09024   0.09107   0.09453   0.09892   0.10404

 Mulliken charges and spin densities:
               1          2
     1  C    0.359708   0.017082
     2  C   -0.031104   0.134867
     3  C    0.117641  -0.042301
     4  C    0.245550   0.113239
     5  C    0.199802   0.018346
     6  C   -0.688492   0.044747
     7  C    0.178888  -0.038030
     8  C   -0.076452   0.145681
     9  C    0.399994   0.073788
    10  C   -0.263529   0.016059
    11  C    0.247167   0.019744
    12  C    0.227225   0.118350
    13  C   -0.541204   0.058651
    14  C   -0.654243   0.067222
    15  H    0.130040  -0.004799
    16  H    0.131504  -0.004307
    17  H    0.137097  -0.003100
    18  N   -0.131701  -0.020638
    19  N   -0.144173  -0.020946
    20  O   -0.354398   0.077462
    21  O   -0.350284   0.072525
    22  O   -0.350119   0.072270
    23  O   -0.224435   0.084168
    24  C   -0.193525   0.001309
    25  H    0.153600  -0.001096
    26  H    0.159010  -0.000836
    27  H    0.169873  -0.000378
    28  C   -0.192011   0.001361
    29  H    0.153543  -0.000956
    30  H    0.152041  -0.000954
    31  H    0.169247  -0.000366
    32  C    0.418564  -0.032388
    33  C   -0.672351   0.026207
    34  S   -0.321944   0.013401
    35  C   -0.221119  -0.008114
    36  H    0.105847  -0.000104
    37  C    0.345913  -0.007915
    38  O   -0.122861  -0.000112
    39  C    0.900515   0.004341
    40  C   -0.250942   0.000780
    41  C   -0.032050   0.003885
    42  S   -0.273229   0.000214
    43  H    0.148609  -0.000012
    44  H    0.150846   0.000002
    45  H    0.141479  -0.000002
    46  C   -0.407835   0.000426
    47  O   -0.133641  -0.000256
    48  C   -0.330696   0.001403
    49  H    0.113773   0.000025
    50  C   -0.258968   0.000090
    51  H    0.140703  -0.000077
    52  H    0.123712   0.000024
    53  H    0.158713   0.000006
    54  H    0.140702   0.000015
 Sum of Mulliken charges =  -1.00000   1.00000

 Dipole moment (field-independent basis, Debye):
    X=            -11.4214    Y=             -0.6346    Z=             -0.2154  Tot=             11.4411
 Quadrupole moment (field-independent basis, Debye-Ang):
   XX=           -316.7572   YY=           -273.8331   ZZ=           -212.1704
   XY=             -5.8608   XZ=            -12.4288   YZ=             13.0816

 Normal termination of Gaussian 16 at Tue Oct  5 17:21:28 2021.
