 Gaussian 16, Revision C.01,
 Gaussian 16:  ES64L-G16RevC.01  3-Jul-2019

 -------------------------------------
 # opt=modredundant b3lyp/6-311+g(d,p)
 -------------------------------------

 ------------
 NDI_-125.pdb
 ------------
 Symbolic Z-matrix:
 Charge = -1 Multiplicity = 2

 SCF Done:  E(UB3LYP) =  -2359.41629860     A.U. after   24 cycles
 SCF Done:  E(UB3LYP) =  -2359.42268132     A.U. after   23 cycles
 SCF Done:  E(UB3LYP) =  -2359.42621754     A.U. after   18 cycles
 SCF Done:  E(UB3LYP) =  -2359.42687838     A.U. after   20 cycles
 SCF Done:  E(UB3LYP) =  -2359.42742100     A.U. after   22 cycles
 SCF Done:  E(UB3LYP) =  -2359.42771861     A.U. after   17 cycles
 SCF Done:  E(UB3LYP) =  -2359.42782173     A.U. after   18 cycles
 SCF Done:  E(UB3LYP) =  -2359.42784690     A.U. after   16 cycles
 SCF Done:  E(UB3LYP) =  -2359.42785497     A.U. after   13 cycles
 SCF Done:  E(UB3LYP) =  -2359.42786320     A.U. after   15 cycles
 SCF Done:  E(UB3LYP) =  -2359.42792715     A.U. after   12 cycles
 SCF Done:  E(UB3LYP) =  -2359.42792946     A.U. after   13 cycles
 SCF Done:  E(UB3LYP) =  -2359.42793183     A.U. after   12 cycles
 SCF Done:  E(UB3LYP) =  -2359.42793508     A.U. after   14 cycles
 SCF Done:  E(UB3LYP) =  -2359.42793712     A.U. after   12 cycles
 SCF Done:  E(UB3LYP) =  -2359.42793889     A.U. after   12 cycles
 SCF Done:  E(UB3LYP) =  -2359.42793998     A.U. after   14 cycles
 SCF Done:  E(UB3LYP) =  -2359.42794016     A.U. after   12 cycles
 SCF Done:  E(UB3LYP) =  -2359.42794023     A.U. after   11 cycles
 SCF Done:  E(UB3LYP) =  -2359.42794028     A.U. after   11 cycles
 Optimization completed.
    -- Stationary point found.

                         Standard orientation:
 ---------------------------------------------------------------------
 Center     Atomic      Atomic             Coordinates (Angstroms)
 Number     Number       Type             X           Y           Z
 ---------------------------------------------------------------------
      1          6           0       -3.460167   -2.712876    0.428985
      2          6           0       -2.749068   -1.473667    0.135682
      3          6           0       -3.439537   -0.238845    0.130411
      4          6           0       -4.823536   -0.176132    0.415607
      5          6           0       -5.569507   -1.393707    0.724202
      6          6           0       -1.368759   -1.503437   -0.104893
      7          6           0       -2.716427    0.960610   -0.182090
      8          6           0       -1.324452    0.899492   -0.475332
      9          6           0       -0.640855   -0.351837   -0.388560
     10          6           0       -0.660854    2.108038   -0.963724
     11          6           0       -2.746063    3.433851   -0.538797
     12          6           0       -3.426195    2.188132   -0.201500
     13          6           0       -4.802733    2.220859    0.095686
     14          6           0       -5.490917    1.063509    0.398955
     15          1           0       -6.549856    1.079159    0.623741
     16          1           0       -5.301071    3.181847    0.073586
     17          1           0       -0.859862   -2.455451   -0.024833
     18          7           0       -1.394995    3.311376   -0.897735
     19          7           0       -4.833194   -2.595900    0.708759
     20          8           0       -2.933198   -3.827357    0.443478
     21          8           0       -6.774320   -1.404473    0.984460
     22          8           0       -3.299122    4.536372   -0.536072
     23          8           0        0.475886    2.143269   -1.433587
     24          6           0       -0.683222    4.515844   -1.327387
     25          1           0        0.268968    4.585153   -0.801045
     26          1           0       -0.470877    4.471571   -2.398378
     27          1           0       -1.316899    5.369912   -1.106504
     28          6           0       -5.536498   -3.844142    1.005997
     29          1           0       -5.456688   -4.528426    0.159156
     30          1           0       -5.083603   -4.330179    1.872134
     31          1           0       -6.575908   -3.598943    1.203730
     32          6           0        0.822155   -0.515721   -0.515515
     33          6           0        1.483835   -1.339119   -1.391293
     34         16           0        1.927438    0.197410    0.625539
     35          6           0        2.885846   -1.369434   -1.172590
     36          1           0        0.970885   -1.877029   -2.175109
     37          6           0        3.319006   -0.589869   -0.112751
     38          8           0        3.798189   -2.080619   -1.904210
     39          6           0        4.670455   -0.394761    0.350186
     40          6           0        3.318378   -2.814098   -3.020845
     41          6           0        5.111889    0.373994    1.417093
     42         16           0        6.061743   -1.143524   -0.428849
     43          1           0        4.193007   -3.282887   -3.471253
     44          1           0        2.608992   -3.590213   -2.713189
     45          1           0        2.840178   -2.154814   -3.753370
     46          6           0        6.523716    0.376240    1.599884
     47          8           0        4.201046    1.021926    2.204951
     48          6           0        7.166707   -0.397665    0.675085
     49          1           0        7.035152    0.922369    2.380157
     50          6           0        4.668032    2.089729    3.012789
     51          1           0        8.226461   -0.576777    0.579554
     52          1           0        5.205429    2.834551    2.414857
     53          1           0        3.781374    2.547100    3.450432
     54          1           0        5.319526    1.729678    3.818256
 ---------------------------------------------------------------------

 The electronic state is 2-A.
 Alpha  occ. eigenvalues --  -88.80137 -88.78018 -19.08493 -19.08310 -18.99344
 Alpha  occ. eigenvalues --  -18.99255 -18.99077 -18.98944 -14.26320 -14.26036
 Alpha  occ. eigenvalues --  -10.17842 -10.17612 -10.17544 -10.17519 -10.16254
 Alpha  occ. eigenvalues --  -10.15859 -10.15823 -10.15108 -10.13397 -10.12655
 Alpha  occ. eigenvalues --  -10.11930 -10.11903 -10.11019 -10.10416 -10.10221
 Alpha  occ. eigenvalues --  -10.10160 -10.10115 -10.09917 -10.09150 -10.08659
 Alpha  occ. eigenvalues --  -10.08526 -10.08507 -10.08469 -10.08253 -10.07907
 Alpha  occ. eigenvalues --  -10.07843  -7.88692  -7.86578  -5.85001  -5.84618
 Alpha  occ. eigenvalues --   -5.84261  -5.82906  -5.82514  -5.82115  -1.00073
 Alpha  occ. eigenvalues --   -0.99694  -0.95409  -0.95272  -0.93338  -0.93182
 Alpha  occ. eigenvalues --   -0.83544  -0.83274  -0.81289  -0.79709  -0.78622
 Alpha  occ. eigenvalues --   -0.74047  -0.71587  -0.69831  -0.68278  -0.66745
 Alpha  occ. eigenvalues --   -0.66150  -0.65438  -0.63873  -0.63389  -0.61960
 Alpha  occ. eigenvalues --   -0.60965  -0.60278  -0.58607  -0.54849  -0.53949
 Alpha  occ. eigenvalues --   -0.53375  -0.52304  -0.51560  -0.49834  -0.48035
 Alpha  occ. eigenvalues --   -0.47599  -0.45969  -0.45802  -0.45132  -0.42966
 Alpha  occ. eigenvalues --   -0.41868  -0.40802  -0.40553  -0.40212  -0.40010
 Alpha  occ. eigenvalues --   -0.39238  -0.38172  -0.38031  -0.37816  -0.37505
 Alpha  occ. eigenvalues --   -0.36928  -0.36576  -0.36453  -0.35165  -0.34374
 Alpha  occ. eigenvalues --   -0.34125  -0.33681  -0.33470  -0.32885  -0.32564
 Alpha  occ. eigenvalues --   -0.32401  -0.32202  -0.31615  -0.30449  -0.30321
 Alpha  occ. eigenvalues --   -0.30164  -0.29949  -0.29852  -0.29525  -0.29170
 Alpha  occ. eigenvalues --   -0.28954  -0.28740  -0.27822  -0.27310  -0.26961
 Alpha  occ. eigenvalues --   -0.25977  -0.25569  -0.24751  -0.24326  -0.24249
 Alpha  occ. eigenvalues --   -0.22651  -0.19985  -0.19457  -0.18438  -0.17823
 Alpha  occ. eigenvalues --   -0.17605  -0.17075  -0.16793  -0.16186  -0.16099
 Alpha  occ. eigenvalues --   -0.15617  -0.14807  -0.13835  -0.10312  -0.05080
 Alpha virt. eigenvalues --    0.03383   0.04673   0.05817   0.06580   0.06775
 Alpha virt. eigenvalues --    0.07280   0.07457   0.08551   0.08734   0.09028
 Alpha virt. eigenvalues --    0.09118   0.09409   0.09961   0.10413   0.10562

  Beta  occ. eigenvalues --  -88.80136 -88.78011 -19.08489 -19.08312 -18.99154
  Beta  occ. eigenvalues --  -18.99050 -18.98888 -18.98726 -14.26372 -14.26088
  Beta  occ. eigenvalues --  -10.17793 -10.17565 -10.17498 -10.17476 -10.16254
  Beta  occ. eigenvalues --  -10.15851 -10.15822 -10.15115 -10.13402 -10.12647
  Beta  occ. eigenvalues --  -10.11922 -10.11912 -10.11022 -10.10415 -10.10173
  Beta  occ. eigenvalues --  -10.10159 -10.10116 -10.09973 -10.08958 -10.08637
  Beta  occ. eigenvalues --  -10.08371 -10.08329 -10.08301 -10.08196 -10.07821
  Beta  occ. eigenvalues --  -10.07761  -7.88691  -7.86571  -5.85000  -5.84618
  Beta  occ. eigenvalues --   -5.84259  -5.82897  -5.82506  -5.82103  -1.00066
  Beta  occ. eigenvalues --   -0.99698  -0.95165  -0.95022  -0.93002  -0.92838
  Beta  occ. eigenvalues --   -0.83424  -0.83157  -0.81275  -0.79605  -0.78527
  Beta  occ. eigenvalues --   -0.73729  -0.71276  -0.69748  -0.68251  -0.66676
  Beta  occ. eigenvalues --   -0.66010  -0.65010  -0.63817  -0.63333  -0.61940
  Beta  occ. eigenvalues --   -0.60913  -0.60052  -0.58301  -0.54703  -0.53759
  Beta  occ. eigenvalues --   -0.53264  -0.52173  -0.51504  -0.49776  -0.48020
  Beta  occ. eigenvalues --   -0.47539  -0.45960  -0.45671  -0.45005  -0.42807
  Beta  occ. eigenvalues --   -0.41769  -0.40785  -0.40516  -0.40215  -0.39985
  Beta  occ. eigenvalues --   -0.39083  -0.37988  -0.37928  -0.37628  -0.37481
  Beta  occ. eigenvalues --   -0.36842  -0.36451  -0.36400  -0.35083  -0.34234
  Beta  occ. eigenvalues --   -0.34037  -0.33579  -0.33404  -0.32845  -0.32400
  Beta  occ. eigenvalues --   -0.32159  -0.31939  -0.31490  -0.30212  -0.30105
  Beta  occ. eigenvalues --   -0.30035  -0.29743  -0.29630  -0.29026  -0.28927
  Beta  occ. eigenvalues --   -0.28644  -0.28128  -0.27781  -0.27063  -0.26703
  Beta  occ. eigenvalues --   -0.25931  -0.25547  -0.24655  -0.24259  -0.24151
  Beta  occ. eigenvalues --   -0.21847  -0.19814  -0.18477  -0.18244  -0.17483
  Beta  occ. eigenvalues --   -0.17104  -0.16730  -0.16664  -0.15944  -0.15588
  Beta  occ. eigenvalues --   -0.15395  -0.14710  -0.12303  -0.10172
  Beta virt. eigenvalues --   -0.00545   0.03522   0.05786   0.05821   0.06740
  Beta virt. eigenvalues --    0.07031   0.07314   0.08267   0.08579   0.08830
  Beta virt. eigenvalues --    0.09053   0.09148   0.09413   0.09972   0.10417

 Mulliken charges and spin densities:
               1          2
     1  C    0.350814   0.017700
     2  C   -0.128202   0.131263
     3  C    0.104717  -0.040423
     4  C    0.277012   0.109063
     5  C    0.226940   0.018924
     6  C   -0.494975   0.044444
     7  C    0.155119  -0.037727
     8  C    0.015215   0.146503
     9  C    0.254899   0.067286
    10  C   -0.297682   0.016199
    11  C    0.260738   0.019102
    12  C    0.204407   0.116179
    13  C   -0.478767   0.058971
    14  C   -0.663010   0.066783
    15  H    0.130234  -0.004802
    16  H    0.131583  -0.004194
    17  H    0.141269  -0.002736
    18  N   -0.092103  -0.020317
    19  N   -0.141750  -0.020753
    20  O   -0.356904   0.076641
    21  O   -0.349338   0.071000
    22  O   -0.351890   0.071062
    23  O   -0.256947   0.082113
    24  C   -0.173075   0.001382
    25  H    0.159493  -0.000738
    26  H    0.154556  -0.001117
    27  H    0.169428  -0.000383
    28  C   -0.190874   0.001302
    29  H    0.152175  -0.000939
    30  H    0.153723  -0.000946
    31  H    0.169271  -0.000357
    32  C    0.290758  -0.020838
    33  C   -0.570960   0.023048
    34  S   -0.470536   0.013639
    35  C   -0.204304  -0.009237
    36  H    0.114293  -0.000671
    37  C    0.377680   0.001985
    38  O   -0.119810  -0.000348
    39  C    0.916523  -0.000477
    40  C   -0.249356   0.000302
    41  C   -0.076710   0.007802
    42  S   -0.259727   0.000560
    43  H    0.148947  -0.000007
    44  H    0.144016  -0.000028
    45  H    0.147955  -0.000064
    46  C   -0.380712  -0.001743
    47  O   -0.131431   0.000044
    48  C   -0.325057   0.005634
    49  H    0.113022   0.000110
    50  C   -0.264777  -0.000016
    51  H    0.140926  -0.000342
    52  H    0.141614   0.000082
    53  H    0.158592   0.000018
    54  H    0.122977   0.000065
 Sum of Mulliken charges =  -1.00000   1.00000

 Dipole moment (field-independent basis, Debye):
    X=             11.3559    Y=             -0.8265    Z=             -0.1067  Tot=             11.3864
 Quadrupole moment (field-independent basis, Debye-Ang):
   XX=           -315.2924   YY=           -266.7824   ZZ=           -220.0892
   XY=              7.9785   XZ=             12.0180   YZ=             18.6331

 Normal termination of Gaussian 16 at Tue Oct  5 11:51:17 2021.
