 Gaussian 16, Revision C.01,
 Gaussian 16:  ES64L-G16RevC.01  3-Jul-2019

 -------------------------------------
 # opt=modredundant b3lyp/6-311+g(d,p)
 -------------------------------------

 ------------
 NDI_-145.pdb
 ------------
 Symbolic Z-matrix:
 Charge = -1 Multiplicity = 2

 SCF Done:  E(UB3LYP) =  -2359.40558134     A.U. after   23 cycles
 SCF Done:  E(UB3LYP) =  -2359.41308360     A.U. after   23 cycles
 SCF Done:  E(UB3LYP) =  -2359.42078555     A.U. after   21 cycles
 SCF Done:  E(UB3LYP) =  -2359.42384179     A.U. after   19 cycles
 SCF Done:  E(UB3LYP) =  -2359.42445504     A.U. after   17 cycles
 SCF Done:  E(UB3LYP) =  -2359.42495835     A.U. after   20 cycles
 SCF Done:  E(UB3LYP) =  -2359.42509829     A.U. after   16 cycles
 SCF Done:  E(UB3LYP) =  -2359.42523891     A.U. after   15 cycles
 SCF Done:  E(UB3LYP) =  -2359.42536885     A.U. after   20 cycles
 SCF Done:  E(UB3LYP) =  -2359.42550749     A.U. after   21 cycles
 SCF Done:  E(UB3LYP) =  -2359.42716107     A.U. after   13 cycles
 SCF Done:  E(UB3LYP) =  -2359.42716166     A.U. after   11 cycles
 SCF Done:  E(UB3LYP) =  -2359.42716204     A.U. after   11 cycles
 SCF Done:  E(UB3LYP) =  -2359.42716223     A.U. after   13 cycles
 SCF Done:  E(UB3LYP) =  -2359.42716230     A.U. after   10 cycles
 SCF Done:  E(UB3LYP) =  -2359.42716243     A.U. after   13 cycles
 SCF Done:  E(UB3LYP) =  -2359.42716261     A.U. after    9 cycles
 SCF Done:  E(UB3LYP) =  -2359.42716279     A.U. after   10 cycles
 SCF Done:  E(UB3LYP) =  -2359.42716283     A.U. after    9 cycles
 SCF Done:  E(UB3LYP) =  -2359.42716285     A.U. after   12 cycles
 Optimization completed.
    -- Stationary point found.

                         Standard orientation:
 ---------------------------------------------------------------------
 Center     Atomic      Atomic             Coordinates (Angstroms)
 Number     Number       Type             X           Y           Z
 ---------------------------------------------------------------------
      1          6           0       -3.480372   -2.694637    0.371074
      2          6           0       -2.759716   -1.459425    0.082486
      3          6           0       -3.430600   -0.214199    0.125842
      4          6           0       -4.802971   -0.137132    0.454494
      5          6           0       -5.558752   -1.350982    0.757448
      6          6           0       -1.387194   -1.503677   -0.183179
      7          6           0       -2.695162    0.978487   -0.181798
      8          6           0       -1.313120    0.902157   -0.519144
      9          6           0       -0.639436   -0.360230   -0.464122
     10          6           0       -0.669525    2.101960   -1.053107
     11          6           0       -2.700834    3.458438   -0.493532
     12          6           0       -3.387138    2.216287   -0.154350
     13          6           0       -4.752294    2.264525    0.188150
     14          6           0       -5.450706    1.112358    0.487975
     15          1           0       -6.501685    1.139888    0.746230
     16          1           0       -5.234449    3.233909    0.202054
     17          1           0       -0.894762   -2.464132   -0.107409
     18          7           0       -1.373385    3.319064   -0.922615
     19          7           0       -4.842917   -2.563906    0.691685
     20          8           0       -2.969659   -3.816523    0.347935
     21          8           0       -6.754814   -1.349367    1.053835
     22          8           0       -3.232914    4.569936   -0.440534
     23          8           0        0.424547    2.120616   -1.615922
     24          6           0       -0.668698    4.516229   -1.383003
     25          1           0        0.327808    4.544136   -0.942448
     26          1           0       -0.553973    4.498831   -2.469776
     27          1           0       -1.255713    5.380108   -1.084575
     28          6           0       -5.557155   -3.807830    0.981076
     29          1           0       -5.503248   -4.477399    0.120670
     30          1           0       -5.094256   -4.315561    1.829394
     31          1           0       -6.588872   -3.552424    1.204456
     32          6           0        0.818199   -0.553458   -0.552488
     33          6           0        1.456884   -1.615436   -1.155394
     34         16           0        1.949222    0.391834    0.377694
     35          6           0        2.848470   -1.650234   -0.899666
     36          1           0        0.931134   -2.326577   -1.775538
     37          6           0        3.305556   -0.634733   -0.073294
     38          8           0        3.736050   -2.566598   -1.396130
     39          6           0        4.659033   -0.379292    0.349931
     40          6           0        3.223556   -3.592213   -2.233027
     41          6           0        5.124317    0.625854    1.186233
     42         16           0        6.022544   -1.367619   -0.168480
     43          1           0        4.078230   -4.207887   -2.512407
     44          1           0        2.488824   -4.208681   -1.703706
     45          1           0        2.764221   -3.176030   -3.136367
     46          6           0        6.531877    0.614616    1.397228
     47          8           0        4.236167    1.498894    1.749592
     48          6           0        7.148111   -0.404726    0.726812
     49          1           0        7.059591    1.325164    2.017894
     50          6           0        4.746538    2.707994    2.286244
     51          1           0        8.198855   -0.649551    0.710067
     52          1           0        5.339546    3.253358    1.543229
     53          1           0        3.878410    3.303898    2.565480
     54          1           0        5.357966    2.525528    3.178301
 ---------------------------------------------------------------------

 The electronic state is 2-A.
 Alpha  occ. eigenvalues --  -88.80136 -88.77962 -19.08498 -19.08296 -18.99456
 Alpha  occ. eigenvalues --  -18.99370 -18.99072 -18.98888 -14.26411 -14.26004
 Alpha  occ. eigenvalues --  -10.17953 -10.17721 -10.17530 -10.17491 -10.16230
 Alpha  occ. eigenvalues --  -10.15889 -10.15800 -10.15076 -10.13387 -10.12665
 Alpha  occ. eigenvalues --  -10.11972 -10.11917 -10.11019 -10.10497 -10.10331
 Alpha  occ. eigenvalues --  -10.10169 -10.10127 -10.09901 -10.09075 -10.08679
 Alpha  occ. eigenvalues --  -10.08589 -10.08542 -10.08475 -10.08332 -10.07921
 Alpha  occ. eigenvalues --  -10.07860  -7.88692  -7.86518  -5.85000  -5.84618
 Alpha  occ. eigenvalues --   -5.84261  -5.82845  -5.82450  -5.82057  -1.00095
 Alpha  occ. eigenvalues --   -0.99681  -0.95518  -0.95263  -0.93453  -0.93168
 Alpha  occ. eigenvalues --   -0.83637  -0.83266  -0.81293  -0.79716  -0.78625
 Alpha  occ. eigenvalues --   -0.74072  -0.71604  -0.69856  -0.68283  -0.66743
 Alpha  occ. eigenvalues --   -0.66202  -0.65452  -0.63875  -0.63411  -0.61965
 Alpha  occ. eigenvalues --   -0.60994  -0.60295  -0.58603  -0.54893  -0.53992
 Alpha  occ. eigenvalues --   -0.53391  -0.52394  -0.51496  -0.49818  -0.48040
 Alpha  occ. eigenvalues --   -0.47604  -0.46012  -0.45813  -0.45153  -0.43028
 Alpha  occ. eigenvalues --   -0.42023  -0.40772  -0.40425  -0.40196  -0.39954
 Alpha  occ. eigenvalues --   -0.39228  -0.38241  -0.38031  -0.37846  -0.37493
 Alpha  occ. eigenvalues --   -0.36951  -0.36602  -0.36471  -0.35271  -0.34327
 Alpha  occ. eigenvalues --   -0.34067  -0.33687  -0.33464  -0.32910  -0.32586
 Alpha  occ. eigenvalues --   -0.32460  -0.32224  -0.31588  -0.30500  -0.30404
 Alpha  occ. eigenvalues --   -0.30231  -0.29949  -0.29817  -0.29632  -0.29232
 Alpha  occ. eigenvalues --   -0.28923  -0.28664  -0.27788  -0.27461  -0.26933
 Alpha  occ. eigenvalues --   -0.25994  -0.25518  -0.25041  -0.24384  -0.24126
 Alpha  occ. eigenvalues --   -0.22662  -0.20110  -0.19407  -0.18527  -0.17874
 Alpha  occ. eigenvalues --   -0.17655  -0.17121  -0.16848  -0.16276  -0.15999
 Alpha  occ. eigenvalues --   -0.15759  -0.14630  -0.13836  -0.10254  -0.05069
 Alpha virt. eigenvalues --    0.03077   0.04728   0.05831   0.06379   0.06788
 Alpha virt. eigenvalues --    0.07372   0.07447   0.08596   0.08897   0.09055
 Alpha virt. eigenvalues --    0.09300   0.09429   0.10072   0.10399   0.10636

  Beta  occ. eigenvalues --  -88.80135 -88.77955 -19.08490 -19.08302 -18.99274
  Beta  occ. eigenvalues --  -18.99170 -18.98887 -18.98678 -14.26461 -14.26055
  Beta  occ. eigenvalues --  -10.17905 -10.17674 -10.17486 -10.17446 -10.16230
  Beta  occ. eigenvalues --  -10.15868 -10.15800 -10.15096 -10.13401 -10.12645
  Beta  occ. eigenvalues --  -10.11950 -10.11929 -10.11027 -10.10496 -10.10220
  Beta  occ. eigenvalues --  -10.10184 -10.10168 -10.09956 -10.08884 -10.08636
  Beta  occ. eigenvalues --  -10.08441 -10.08370 -10.08311 -10.08282 -10.07838
  Beta  occ. eigenvalues --  -10.07777  -7.88690  -7.86511  -5.84999  -5.84617
  Beta  occ. eigenvalues --   -5.84256  -5.82838  -5.82444  -5.82041  -1.00077
  Beta  occ. eigenvalues --   -0.99693  -0.95282  -0.95019  -0.93127  -0.92834
  Beta  occ. eigenvalues --   -0.83523  -0.83150  -0.81270  -0.79610  -0.78530
  Beta  occ. eigenvalues --   -0.73760  -0.71300  -0.69763  -0.68251  -0.66673
  Beta  occ. eigenvalues --   -0.66067  -0.65040  -0.63806  -0.63354  -0.61937
  Beta  occ. eigenvalues --   -0.60942  -0.60067  -0.58305  -0.54748  -0.53812
  Beta  occ. eigenvalues --   -0.53271  -0.52280  -0.51426  -0.49755  -0.48019
  Beta  occ. eigenvalues --   -0.47547  -0.45986  -0.45695  -0.45030  -0.42877
  Beta  occ. eigenvalues --   -0.41929  -0.40748  -0.40380  -0.40203  -0.39918
  Beta  occ. eigenvalues --   -0.39079  -0.38020  -0.37971  -0.37659  -0.37465
  Beta  occ. eigenvalues --   -0.36868  -0.36481  -0.36414  -0.35184  -0.34171
  Beta  occ. eigenvalues --   -0.34010  -0.33566  -0.33409  -0.32846  -0.32425
  Beta  occ. eigenvalues --   -0.32223  -0.31975  -0.31456  -0.30298  -0.30170
  Beta  occ. eigenvalues --   -0.30075  -0.29786  -0.29607  -0.29049  -0.28973
  Beta  occ. eigenvalues --   -0.28646  -0.28161  -0.27722  -0.27207  -0.26695
  Beta  occ. eigenvalues --   -0.25914  -0.25493  -0.24909  -0.24290  -0.24059
  Beta  occ. eigenvalues --   -0.21967  -0.19815  -0.18470  -0.18335  -0.17521
  Beta  occ. eigenvalues --   -0.17220  -0.16816  -0.16640  -0.16065  -0.15582
  Beta  occ. eigenvalues --   -0.15456  -0.14485  -0.12407  -0.09969
  Beta virt. eigenvalues --   -0.00669   0.03358   0.05768   0.05832   0.06736
  Beta virt. eigenvalues --    0.06825   0.07388   0.08220   0.08602   0.08915
  Beta virt. eigenvalues --    0.09104   0.09369   0.09526   0.10083   0.10405

 Mulliken charges and spin densities:
               1          2
     1  C    0.310432   0.018446
     2  C   -0.103164   0.126866
     3  C    0.110750  -0.039255
     4  C    0.228291   0.101281
     5  C    0.169712   0.018929
     6  C   -0.210022   0.037046
     7  C    0.171711  -0.036391
     8  C    0.106692   0.145358
     9  C    0.275629   0.073727
    10  C   -0.480288   0.013953
    11  C    0.261340   0.018736
    12  C    0.083663   0.110413
    13  C   -0.475026   0.054837
    14  C   -0.569159   0.068540
    15  H    0.129858  -0.004801
    16  H    0.131483  -0.003978
    17  H    0.141144  -0.002112
    18  N   -0.053018  -0.020039
    19  N   -0.143100  -0.020274
    20  O   -0.359415   0.074606
    21  O   -0.346869   0.068089
    22  O   -0.352846   0.069444
    23  O   -0.279137   0.079855
    24  C   -0.173228   0.001498
    25  H    0.159390  -0.000662
    26  H    0.154963  -0.001119
    27  H    0.168705  -0.000388
    28  C   -0.187118   0.001283
    29  H    0.152008  -0.000901
    30  H    0.153770  -0.000928
    31  H    0.169056  -0.000343
    32  C    0.203563  -0.014821
    33  C   -0.682480   0.031684
    34  S   -0.632872   0.013871
    35  C   -0.035201  -0.014026
    36  H    0.124921  -0.001453
    37  C    0.632297   0.019166
    38  O   -0.139478  -0.000817
    39  C    0.836496  -0.009593
    40  C   -0.222874   0.000099
    41  C   -0.081816   0.015009
    42  S   -0.274448   0.001106
    43  H    0.148971   0.000000
    44  H    0.147301  -0.000105
    45  H    0.143536  -0.000165
    46  C   -0.482599  -0.006469
    47  O   -0.124629   0.000957
    48  C   -0.323878   0.014253
    49  H    0.113563   0.000282
    50  C   -0.262091  -0.000214
    51  H    0.141272  -0.000883
    52  H    0.141062   0.000224
    53  H    0.159915   0.000032
    54  H    0.123261   0.000146
 Sum of Mulliken charges =  -1.00000   1.00000

 Dipole moment (field-independent basis, Debye):
    X=             11.2469    Y=             -1.1280    Z=              0.1241  Tot=             11.3040
 Quadrupole moment (field-independent basis, Debye-Ang):
   XX=           -313.1296   YY=           -260.7900   ZZ=           -227.0902
   XY=              9.2917   XZ=             12.4634   YZ=             17.0508

 Normal termination of Gaussian 16 at Tue Oct  5 11:23:52 2021.
