 Gaussian 16, Revision C.01,
 Gaussian 16:  ES64L-G16RevC.01  3-Jul-2019

 -------------------------------------
 # opt=modredundant b3lyp/6-311+g(d,p)
 -------------------------------------

 -----------
 NDI_-70.pdb
 -----------
 Symbolic Z-matrix:
 Charge = -1 Multiplicity = 2

 SCF Done:  E(UB3LYP) =  -2359.42162960     A.U. after   24 cycles
 SCF Done:  E(UB3LYP) =  -2359.42732990     A.U. after   20 cycles
 SCF Done:  E(UB3LYP) =  -2359.42799784     A.U. after   19 cycles
 SCF Done:  E(UB3LYP) =  -2359.42798926     A.U. after   18 cycles
 SCF Done:  E(UB3LYP) =  -2359.42822948     A.U. after   18 cycles
 SCF Done:  E(UB3LYP) =  -2359.42823558     A.U. after   16 cycles
 SCF Done:  E(UB3LYP) =  -2359.42824092     A.U. after   15 cycles
 SCF Done:  E(UB3LYP) =  -2359.42824328     A.U. after   17 cycles
 SCF Done:  E(UB3LYP) =  -2359.42824460     A.U. after   15 cycles
 SCF Done:  E(UB3LYP) =  -2359.42824603     A.U. after   15 cycles
 SCF Done:  E(UB3LYP) =  -2359.42824774     A.U. after   14 cycles
 SCF Done:  E(UB3LYP) =  -2359.42824881     A.U. after   14 cycles
 SCF Done:  E(UB3LYP) =  -2359.42824921     A.U. after   14 cycles
 SCF Done:  E(UB3LYP) =  -2359.42824970     A.U. after   13 cycles
 SCF Done:  E(UB3LYP) =  -2359.42824989     A.U. after   11 cycles
 Optimization completed.
    -- Stationary point found.

                         Standard orientation:
 ---------------------------------------------------------------------
 Center     Atomic      Atomic             Coordinates (Angstroms)
 Number     Number       Type             X           Y           Z
 ---------------------------------------------------------------------
      1          6           0        3.001615   -2.863708    0.589873
      2          6           0        2.501138   -1.513917    0.352755
      3          6           0        3.397445   -0.462448    0.050822
      4          6           0        4.790929   -0.694970   -0.029384
      5          6           0        5.332014   -2.032083    0.201834
      6          6           0        1.127107   -1.255495    0.446951
      7          6           0        2.873934    0.853847   -0.181670
      8          6           0        1.471020    1.091056   -0.100282
      9          6           0        0.597415    0.015794    0.252099
     10          6           0        0.965108    2.424848   -0.427918
     11          6           0        3.313737    3.245298   -0.760188
     12          6           0        3.787509    1.892044   -0.496819
     13          6           0        5.170285    1.631254   -0.565913
     14          6           0        5.665794    0.364089   -0.336690
     15          1           0        6.726568    0.154306   -0.390237
     16          1           0        5.827534    2.457109   -0.807185
     17          1           0        0.473754   -2.077078    0.711785
     18          7           0        1.922483    3.421719   -0.714026
     19          7           0        4.393561   -3.040914    0.497921
     20          8           0        2.286273   -3.830141    0.860189
     21          8           0        6.534944   -2.296214    0.148096
     22          8           0        4.060781    4.192406   -1.018952
     23          8           0       -0.224990    2.736422   -0.478013
     24          6           0        1.384315    4.748399   -1.018237
     25          1           0        0.732146    4.696556   -1.891976
     26          1           0        0.788061    5.111063   -0.179008
     27          1           0        2.225592    5.409214   -1.205596
     28          6           0        4.885176   -4.398240    0.736820
     29          1           0        4.599709   -4.727793    1.737598
     30          1           0        4.439228   -5.088246    0.018055
     31          1           0        5.966111   -4.381459    0.632467
     32          6           0       -0.861459    0.170838    0.452193
     33          6           0       -1.525022    0.810223    1.465210
     34         16           0       -1.975300   -0.647822   -0.605268
     35          6           0       -2.932596    0.667132    1.380834
     36          1           0       -1.010256    1.381730    2.222986
     37          6           0       -3.374017   -0.099463    0.313383
     38          8           0       -3.845294    1.196569    2.252489
     39          6           0       -4.732044   -0.421683   -0.046835
     40          6           0       -3.379474    2.171190    3.175509
     41          6           0       -5.181144   -1.196974   -1.106585
     42         16           0       -6.122343    0.168286    0.858875
     43          1           0       -4.262711    2.536500    3.699252
     44          1           0       -2.685882    1.732604    3.901578
     45          1           0       -2.887709    3.001459    2.658389
     46          6           0       -6.597002   -1.315010   -1.193664
     47          8           0       -4.271592   -1.763927   -1.955559
     48          6           0       -7.235845   -0.629531   -0.197936
     49          1           0       -7.116292   -1.879263   -1.955314
     50          6           0       -4.760572   -2.580067   -3.004648
     51          1           0       -8.297474   -0.548649   -0.023027
     52          1           0       -5.398348   -2.010831   -3.691574
     53          1           0       -3.882740   -2.936550   -3.542139
     54          1           0       -5.320475   -3.439169   -2.616115
 ---------------------------------------------------------------------

 The electronic state is 2-A.
 Alpha  occ. eigenvalues --  -88.80110 -88.78279 -19.08671 -19.08122 -18.99334
 Alpha  occ. eigenvalues --  -18.99224 -18.99104 -18.98951 -14.26304 -14.26115
 Alpha  occ. eigenvalues --  -10.17832 -10.17609 -10.17588 -10.17569 -10.16418
 Alpha  occ. eigenvalues --  -10.15924 -10.15592 -10.15001 -10.13353 -10.12606
 Alpha  occ. eigenvalues --  -10.11867 -10.11802 -10.11031 -10.10397 -10.10286
 Alpha  occ. eigenvalues --  -10.10226 -10.10177 -10.09944 -10.09287 -10.08534
 Alpha  occ. eigenvalues --  -10.08512 -10.08491 -10.08436 -10.08209 -10.07913
 Alpha  occ. eigenvalues --  -10.07848  -7.88664  -7.86834  -5.84973  -5.84590
 Alpha  occ. eigenvalues --   -5.84234  -5.83155  -5.82763  -5.82382  -1.00257
 Alpha  occ. eigenvalues --   -0.99503  -0.95402  -0.95312  -0.93328  -0.93206
 Alpha  occ. eigenvalues --   -0.83537  -0.83301  -0.81287  -0.79716  -0.78634
 Alpha  occ. eigenvalues --   -0.74038  -0.71603  -0.69802  -0.68341  -0.66785
 Alpha  occ. eigenvalues --   -0.65958  -0.65503  -0.63900  -0.63418  -0.61974
 Alpha  occ. eigenvalues --   -0.60985  -0.60298  -0.58544  -0.54908  -0.53930
 Alpha  occ. eigenvalues --   -0.53415  -0.52244  -0.51586  -0.49844  -0.48150
 Alpha  occ. eigenvalues --   -0.47502  -0.45904  -0.45799  -0.45154  -0.42976
 Alpha  occ. eigenvalues --   -0.41718  -0.40893  -0.40862  -0.40044  -0.39907
 Alpha  occ. eigenvalues --   -0.39264  -0.38163  -0.37972  -0.37838  -0.37502
 Alpha  occ. eigenvalues --   -0.36952  -0.36547  -0.36515  -0.34957  -0.34461
 Alpha  occ. eigenvalues --   -0.34131  -0.33733  -0.33353  -0.32965  -0.32573
 Alpha  occ. eigenvalues --   -0.32390  -0.32252  -0.31565  -0.30475  -0.30273
 Alpha  occ. eigenvalues --   -0.30163  -0.30003  -0.29818  -0.29424  -0.29180
 Alpha  occ. eigenvalues --   -0.29129  -0.28772  -0.27800  -0.27205  -0.27040
 Alpha  occ. eigenvalues --   -0.26017  -0.25631  -0.24894  -0.24261  -0.24095
 Alpha  occ. eigenvalues --   -0.22856  -0.19986  -0.19504  -0.18410  -0.17808
 Alpha  occ. eigenvalues --   -0.17649  -0.17123  -0.16810  -0.16229  -0.16070
 Alpha  occ. eigenvalues --   -0.15650  -0.14720  -0.13869  -0.10236  -0.05105
 Alpha virt. eigenvalues --    0.03494   0.04678   0.05743   0.06561   0.06788
 Alpha virt. eigenvalues --    0.07313   0.07458   0.08548   0.08729   0.08997
 Alpha virt. eigenvalues --    0.09156   0.09463   0.09824   0.10231   0.10683

  Beta  occ. eigenvalues --  -88.80110 -88.78275 -19.08669 -19.08123 -18.99142
  Beta  occ. eigenvalues --  -18.99018 -18.98912 -18.98732 -14.26356 -14.26168
  Beta  occ. eigenvalues --  -10.17783 -10.17563 -10.17543 -10.17521 -10.16418
  Beta  occ. eigenvalues --  -10.15917 -10.15592 -10.15008 -10.13357 -10.12599
  Beta  occ. eigenvalues --  -10.11849 -10.11820 -10.11034 -10.10396 -10.10234
  Beta  occ. eigenvalues --  -10.10226 -10.10178 -10.10000 -10.09101 -10.08415
  Beta  occ. eigenvalues --  -10.08374 -10.08331 -10.08326 -10.08154 -10.07827
  Beta  occ. eigenvalues --  -10.07765  -7.88664  -7.86829  -5.84972  -5.84589
  Beta  occ. eigenvalues --   -5.84232  -5.83150  -5.82758  -5.82377  -1.00251
  Beta  occ. eigenvalues --   -0.99505  -0.95157  -0.95059  -0.92989  -0.92859
  Beta  occ. eigenvalues --   -0.83416  -0.83183  -0.81274  -0.79611  -0.78539
  Beta  occ. eigenvalues --   -0.73717  -0.71292  -0.69725  -0.68309  -0.66703
  Beta  occ. eigenvalues --   -0.65835  -0.65082  -0.63835  -0.63361  -0.61956
  Beta  occ. eigenvalues --   -0.60932  -0.60061  -0.58247  -0.54763  -0.53726
  Beta  occ. eigenvalues --   -0.53325  -0.52059  -0.51566  -0.49796  -0.48137
  Beta  occ. eigenvalues --   -0.47439  -0.45898  -0.45671  -0.45028  -0.42814
  Beta  occ. eigenvalues --   -0.41602  -0.40883  -0.40840  -0.40042  -0.39889
  Beta  occ. eigenvalues --   -0.39099  -0.37927  -0.37923  -0.37647  -0.37482
  Beta  occ. eigenvalues --   -0.36857  -0.36479  -0.36408  -0.34888  -0.34328
  Beta  occ. eigenvalues --   -0.34019  -0.33638  -0.33290  -0.32936  -0.32408
  Beta  occ. eigenvalues --   -0.32160  -0.31949  -0.31463  -0.30115  -0.30088
  Beta  occ. eigenvalues --   -0.30038  -0.29741  -0.29668  -0.29086  -0.28938
  Beta  occ. eigenvalues --   -0.28650  -0.28188  -0.27773  -0.26986  -0.26747
  Beta  occ. eigenvalues --   -0.25997  -0.25606  -0.24824  -0.24156  -0.24084
  Beta  occ. eigenvalues --   -0.21971  -0.19829  -0.18522  -0.18222  -0.17487
  Beta  occ. eigenvalues --   -0.17111  -0.16745  -0.16677  -0.15914  -0.15688
  Beta  occ. eigenvalues --   -0.15434  -0.14606  -0.12315  -0.10131
  Beta virt. eigenvalues --   -0.00548   0.03608   0.05744   0.05803   0.06787
  Beta virt. eigenvalues --    0.07060   0.07329   0.08231   0.08574   0.08853
  Beta virt. eigenvalues --    0.09005   0.09164   0.09467   0.09832   0.10237

 Mulliken charges and spin densities:
               1          2
     1  C    0.362515   0.016162
     2  C   -0.097177   0.133694
     3  C    0.136280  -0.040513
     4  C    0.182416   0.112377
     5  C    0.210817   0.017401
     6  C   -0.740898   0.046690
     7  C    0.196791  -0.035996
     8  C    0.128928   0.138585
     9  C    0.651022   0.072672
    10  C   -0.451734   0.020147
    11  C    0.233561   0.019485
    12  C    0.149219   0.112205
    13  C   -0.534371   0.061963
    14  C   -0.620285   0.065374
    15  H    0.129806  -0.004644
    16  H    0.131185  -0.004388
    17  H    0.146471  -0.002959
    18  N   -0.158348  -0.020952
    19  N   -0.146168  -0.020656
    20  O   -0.353800   0.077215
    21  O   -0.348732   0.071655
    22  O   -0.350368   0.071890
    23  O   -0.184312   0.082484
    24  C   -0.194774   0.001329
    25  H    0.157364  -0.001014
    26  H    0.152357  -0.000923
    27  H    0.170642  -0.000369
    28  C   -0.190374   0.001335
    29  H    0.153212  -0.000950
    30  H    0.152990  -0.000926
    31  H    0.169300  -0.000358
    32  C    0.164154  -0.023011
    33  C   -0.466115   0.010457
    34  S   -0.356259   0.006380
    35  C   -0.411678  -0.002566
    36  H    0.103373  -0.001129
    37  C    0.513681   0.019597
    38  O   -0.129171  -0.000389
    39  C    0.910470  -0.004576
    40  C   -0.247970   0.000373
    41  C    0.009770   0.003371
    42  S   -0.282999   0.000681
    43  H    0.146804  -0.000007
    44  H    0.136151  -0.000054
    45  H    0.158948   0.000042
    46  C   -0.497092  -0.003035
    47  O   -0.126537   0.001008
    48  C   -0.309309   0.004814
    49  H    0.115760   0.000099
    50  C   -0.240411   0.000094
    51  H    0.140473  -0.000298
    52  H    0.131404   0.000065
    53  H    0.161552   0.000016
    54  H    0.131467   0.000054
 Sum of Mulliken charges =  -1.00000   1.00000

 Dipole moment (field-independent basis, Debye):
    X=            -11.3909    Y=             -0.3256    Z=              0.4043  Tot=             11.4027
 Quadrupole moment (field-independent basis, Debye-Ang):
   XX=           -318.1349   YY=           -266.9396   ZZ=           -217.8081
   XY=              3.4074   XZ=              9.2935   YZ=             21.3773

 Normal termination of Gaussian 16 at Tue Oct  5 06:28:46 2021.
