 Gaussian 16, Revision C.01,
 Gaussian 16:  ES64L-G16RevC.01  3-Jul-2019

 -------------------------------------
 # opt=modredundant b3lyp/6-311+g(d,p)
 -------------------------------------

 ----------
 NDI_45.pdb
 ----------
 Symbolic Z-matrix:
 Charge = -1 Multiplicity = 2

 SCF Done:  E(UB3LYP) =  -2359.42085244     A.U. after   22 cycles
 SCF Done:  E(UB3LYP) =  -2359.42535143     A.U. after   21 cycles
 SCF Done:  E(UB3LYP) =  -2359.42755521     A.U. after   19 cycles
 SCF Done:  E(UB3LYP) =  -2359.42813778     A.U. after   18 cycles
 SCF Done:  E(UB3LYP) =  -2359.42840507     A.U. after   20 cycles
 SCF Done:  E(UB3LYP) =  -2359.42861233     A.U. after   18 cycles
 SCF Done:  E(UB3LYP) =  -2359.42876572     A.U. after   17 cycles
 SCF Done:  E(UB3LYP) =  -2359.42888227     A.U. after   17 cycles
 SCF Done:  E(UB3LYP) =  -2359.42892430     A.U. after   17 cycles
 SCF Done:  E(UB3LYP) =  -2359.42894983     A.U. after   16 cycles
 SCF Done:  E(UB3LYP) =  -2359.42900021     A.U. after   14 cycles
 SCF Done:  E(UB3LYP) =  -2359.42900065     A.U. after   10 cycles
 SCF Done:  E(UB3LYP) =  -2359.42900113     A.U. after   11 cycles
 SCF Done:  E(UB3LYP) =  -2359.42900141     A.U. after   11 cycles
 SCF Done:  E(UB3LYP) =  -2359.42900156     A.U. after   10 cycles
 SCF Done:  E(UB3LYP) =  -2359.42900171     A.U. after   10 cycles
 SCF Done:  E(UB3LYP) =  -2359.42900182     A.U. after   10 cycles
 SCF Done:  E(UB3LYP) =  -2359.42900192     A.U. after   10 cycles
 SCF Done:  E(UB3LYP) =  -2359.42900196     A.U. after   10 cycles
 SCF Done:  E(UB3LYP) =  -2359.42900198     A.U. after    9 cycles
 Optimization completed.
    -- Stationary point found.

                         Standard orientation:
 ---------------------------------------------------------------------
 Center     Atomic      Atomic             Coordinates (Angstroms)
 Number     Number       Type             X           Y           Z
 ---------------------------------------------------------------------
      1          6           0       -2.734813   -2.953599    0.467860
      2          6           0       -2.356787   -1.560563    0.249724
      3          6           0       -3.349054   -0.567453    0.076957
      4          6           0       -4.722290   -0.901716    0.112121
      5          6           0       -5.142844   -2.285254    0.328982
      6          6           0       -1.006311   -1.202732    0.254404
      7          6           0       -2.939106    0.790885   -0.142653
      8          6           0       -1.552537    1.131452   -0.178758
      9          6           0       -0.572497    0.110902    0.070413
     10          6           0       -1.190332    2.497049   -0.562670
     11          6           0       -3.611796    3.157331   -0.589252
     12          6           0       -3.954015    1.764384   -0.331203
     13          6           0       -5.314873    1.404428   -0.283084
     14          6           0       -5.697118    0.097156   -0.065056
     15          1           0       -6.740420   -0.189625   -0.030903
     16          1           0       -6.047300    2.188439   -0.428180
     17          1           0       -0.286294   -1.984400    0.459136
     18          7           0       -2.242323    3.430829   -0.698653
     19          7           0       -4.112601   -3.232386    0.489967
     20          8           0       -1.930177   -3.872490    0.628959
     21          8           0       -6.323470   -2.635430    0.372101
     22          8           0       -4.448638    4.053810   -0.724489
     23          8           0       -0.046113    2.896174   -0.785152
     24          6           0       -1.838317    4.795284   -1.041150
     25          1           0       -1.143813    5.177818   -0.291340
     26          1           0       -1.326000    4.805241   -2.005105
     27          1           0       -2.737205    5.403653   -1.079254
     28          6           0       -4.482096   -4.631641    0.706220
     29          1           0       -4.041726   -5.257062   -0.072326
     30          1           0       -4.097892   -4.975501    1.668539
     31          1           0       -5.566084   -4.694828    0.683007
     32          6           0        0.871476    0.349718    0.227907
     33          6           0        1.527976    1.311984    0.954981
     34         16           0        2.013446   -0.766740   -0.485435
     35          6           0        2.932764    1.158264    0.943182
     36          1           0        1.008477    2.110660    1.459114
     37          6           0        3.394028    0.073884    0.209337
     38          8           0        3.831527    1.965785    1.584878
     39          6           0        4.756840   -0.341183    0.000621
     40          6           0        3.342081    3.183528    2.131781
     41          6           0        5.224805   -1.429344   -0.723879
     42         16           0        6.131726    0.529470    0.675560
     43          1           0        4.216647    3.722205    2.496153
     44          1           0        2.829918    3.780270    1.370531
     45          1           0        2.658834    2.996954    2.967762
     46          6           0        6.641262   -1.565558   -0.736241
     47          8           0        4.331802   -2.246448   -1.358994
     48          6           0        7.262761   -0.579570   -0.021229
     49          1           0        7.173035   -2.354071   -1.249839
     50          6           0        4.818588   -3.451805   -1.922751
     51          1           0        8.320981   -0.440459    0.136960
     52          1           0        5.314381   -4.073604   -1.168104
     53          1           0        3.945737   -3.977902   -2.307272
     54          1           0        5.514224   -3.256782   -2.747914
 ---------------------------------------------------------------------

 The electronic state is 2-A.
 Alpha  occ. eigenvalues --  -88.80119 -88.78222 -19.08638 -19.08045 -18.99493
 Alpha  occ. eigenvalues --  -18.99362 -18.99113 -18.98901 -14.26424 -14.26135
 Alpha  occ. eigenvalues --  -10.17989 -10.17721 -10.17668 -10.17566 -10.16344
 Alpha  occ. eigenvalues --  -10.15938 -10.15411 -10.14964 -10.13379 -10.12633
 Alpha  occ. eigenvalues --  -10.11968 -10.11723 -10.11035 -10.10502 -10.10488
 Alpha  occ. eigenvalues --  -10.10295 -10.10265 -10.09945 -10.09310 -10.08641
 Alpha  occ. eigenvalues --  -10.08560 -10.08516 -10.08334 -10.08252 -10.07937
 Alpha  occ. eigenvalues --  -10.07875  -7.88672  -7.86782  -5.84981  -5.84598
 Alpha  occ. eigenvalues --   -5.84242  -5.83102  -5.82714  -5.82333  -1.00227
 Alpha  occ. eigenvalues --   -0.99425  -0.95559  -0.95346  -0.93490  -0.93219
 Alpha  occ. eigenvalues --   -0.83670  -0.83317  -0.81292  -0.79707  -0.78625
 Alpha  occ. eigenvalues --   -0.74070  -0.71640  -0.69807  -0.68328  -0.66847
 Alpha  occ. eigenvalues --   -0.65857  -0.65576  -0.63904  -0.63479  -0.61940
 Alpha  occ. eigenvalues --   -0.61049  -0.60348  -0.58480  -0.55020  -0.53979
 Alpha  occ. eigenvalues --   -0.53498  -0.52335  -0.51526  -0.49856  -0.48122
 Alpha  occ. eigenvalues --   -0.47447  -0.45927  -0.45782  -0.45200  -0.43063
 Alpha  occ. eigenvalues --   -0.41865  -0.40875  -0.40742  -0.39898  -0.39758
 Alpha  occ. eigenvalues --   -0.39299  -0.38251  -0.37964  -0.37881  -0.37490
 Alpha  occ. eigenvalues --   -0.36983  -0.36616  -0.36546  -0.35019  -0.34298
 Alpha  occ. eigenvalues --   -0.34178  -0.33767  -0.33296  -0.32947  -0.32649
 Alpha  occ. eigenvalues --   -0.32530  -0.32250  -0.31435  -0.30560  -0.30473
 Alpha  occ. eigenvalues --   -0.30247  -0.29956  -0.29885  -0.29509  -0.29290
 Alpha  occ. eigenvalues --   -0.29134  -0.28685  -0.27767  -0.27327  -0.27041
 Alpha  occ. eigenvalues --   -0.26055  -0.25569  -0.24998  -0.24499  -0.23958
 Alpha  occ. eigenvalues --   -0.22868  -0.20208  -0.19454  -0.18533  -0.17893
 Alpha  occ. eigenvalues --   -0.17734  -0.17194  -0.16934  -0.16308  -0.16005
 Alpha  occ. eigenvalues --   -0.15844  -0.14535  -0.13886  -0.10215  -0.05119
 Alpha virt. eigenvalues --    0.03058   0.04671   0.05786   0.06387   0.06858
 Alpha virt. eigenvalues --    0.07380   0.07467   0.08614   0.08984   0.09158
 Alpha virt. eigenvalues --    0.09294   0.09525   0.10025   0.10212   0.10644

  Beta  occ. eigenvalues --  -88.80117 -88.78214 -19.08630 -19.08051 -18.99311
  Beta  occ. eigenvalues --  -18.99161 -18.98929 -18.98691 -14.26473 -14.26187
  Beta  occ. eigenvalues --  -10.17943 -10.17678 -10.17617 -10.17520 -10.16344
  Beta  occ. eigenvalues --  -10.15916 -10.15411 -10.14987 -10.13395 -10.12611
  Beta  occ. eigenvalues --  -10.11918 -10.11761 -10.11043 -10.10501 -10.10369
  Beta  occ. eigenvalues --  -10.10318 -10.10295 -10.10002 -10.09131 -10.08489
  Beta  occ. eigenvalues --  -10.08379 -10.08361 -10.08288 -10.08210 -10.07854
  Beta  occ. eigenvalues --  -10.07794  -7.88670  -7.86774  -5.84980  -5.84597
  Beta  occ. eigenvalues --   -5.84237  -5.83097  -5.82708  -5.82310  -1.00208
  Beta  occ. eigenvalues --   -0.99437  -0.95323  -0.95103  -0.93164  -0.92885
  Beta  occ. eigenvalues --   -0.83555  -0.83202  -0.81267  -0.79598  -0.78531
  Beta  occ. eigenvalues --   -0.73757  -0.71339  -0.69719  -0.68286  -0.66758
  Beta  occ. eigenvalues --   -0.65746  -0.65179  -0.63820  -0.63422  -0.61907
  Beta  occ. eigenvalues --   -0.60998  -0.60101  -0.58206  -0.54875  -0.53781
  Beta  occ. eigenvalues --   -0.53408  -0.52157  -0.51491  -0.49810  -0.48102
  Beta  occ. eigenvalues --   -0.47385  -0.45881  -0.45687  -0.45080  -0.42907
  Beta  occ. eigenvalues --   -0.41763  -0.40850  -0.40709  -0.39904  -0.39733
  Beta  occ. eigenvalues --   -0.39138  -0.38025  -0.37905  -0.37704  -0.37463
  Beta  occ. eigenvalues --   -0.36886  -0.36559  -0.36436  -0.34936  -0.34183
  Beta  occ. eigenvalues --   -0.34069  -0.33665  -0.33239  -0.32884  -0.32486
  Beta  occ. eigenvalues --   -0.32295  -0.31968  -0.31335  -0.30282  -0.30189
  Beta  occ. eigenvalues --   -0.30118  -0.29837  -0.29607  -0.29149  -0.28995
  Beta  occ. eigenvalues --   -0.28647  -0.28281  -0.27710  -0.27098  -0.26778
  Beta  occ. eigenvalues --   -0.25994  -0.25535  -0.24905  -0.24383  -0.23902
  Beta  occ. eigenvalues --   -0.22157  -0.19885  -0.18542  -0.18346  -0.17569
  Beta  occ. eigenvalues --   -0.17262  -0.16847  -0.16719  -0.16075  -0.15679
  Beta  occ. eigenvalues --   -0.15537  -0.14357  -0.12479  -0.09908
  Beta virt. eigenvalues --   -0.00743   0.03338   0.05707   0.05789   0.06801
  Beta virt. eigenvalues --    0.06874   0.07445   0.08167   0.08620   0.08991
  Beta virt. eigenvalues --    0.09166   0.09456   0.09584   0.10037   0.10219

 Mulliken charges and spin densities:
               1          2
     1  C    0.314229   0.015850
     2  C   -0.195875   0.131689
     3  C    0.102657  -0.039375
     4  C    0.204156   0.104581
     5  C    0.195594   0.017821
     6  C   -0.517481   0.035523
     7  C    0.201368  -0.033373
     8  C    0.256455   0.134807
     9  C    0.521507   0.082846
    10  C   -0.437490   0.020629
    11  C    0.161214   0.019498
    12  C    0.159774   0.103136
    13  C   -0.478405   0.060222
    14  C   -0.590071   0.063004
    15  H    0.129954  -0.004415
    16  H    0.131702  -0.004272
    17  H    0.158627  -0.002123
    18  N   -0.115463  -0.020571
    19  N   -0.142327  -0.019887
    20  O   -0.356757   0.075467
    21  O   -0.345042   0.068001
    22  O   -0.348892   0.069155
    23  O   -0.258413   0.078783
    24  C   -0.188747   0.001402
    25  H    0.149147  -0.000835
    26  H    0.156438  -0.001042
    27  H    0.169162  -0.000363
    28  C   -0.190939   0.001194
    29  H    0.153362  -0.000883
    30  H    0.153385  -0.000923
    31  H    0.168622  -0.000341
    32  C    0.107969  -0.037755
    33  C   -0.400461   0.032235
    34  S   -0.568415   0.016066
    35  C   -0.191508  -0.010477
    36  H    0.120590  -0.002629
    37  C    0.664060   0.033199
    38  O   -0.133183  -0.000928
    39  C    0.781010  -0.011942
    40  C   -0.242920   0.000352
    41  C   -0.066240   0.015071
    42  S   -0.291514   0.001563
    43  H    0.146007   0.000000
    44  H    0.162299  -0.000092
    45  H    0.136027  -0.000154
    46  C   -0.562428  -0.006572
    47  O   -0.121000   0.001557
    48  C   -0.295502   0.015443
    49  H    0.115280   0.000306
    50  C   -0.246910   0.000078
    51  H    0.140705  -0.000956
    52  H    0.136179   0.000241
    53  H    0.162612   0.000016
    54  H    0.125889   0.000172
 Sum of Mulliken charges =  -1.00000   1.00000

 Dipole moment (field-independent basis, Debye):
    X=             11.2790    Y=             -0.3441    Z=              0.5377  Tot=             11.2971
 Quadrupole moment (field-independent basis, Debye-Ang):
   XX=           -317.4407   YY=           -259.2116   ZZ=           -225.7402
   XY=             -5.1406   XZ=             -3.8893   YZ=             18.4753

 Normal termination of Gaussian 16 at Tue Oct  5 23:08:25 2021.
