 Gaussian 16, Revision C.01,
 Gaussian 16:  ES64L-G16RevC.01  3-Jul-2019

 -------------------------------------
 # opt=modredundant b3lyp/6-311+g(d,p)
 -------------------------------------

 -----------
 NDI_-25.pdb
 -----------
 Symbolic Z-matrix:
 Charge = -1 Multiplicity = 2

 SCF Done:  E(UB3LYP) =  -2359.42113208     A.U. after   24 cycles
 SCF Done:  E(UB3LYP) =  -2359.41888809     A.U. after   23 cycles
 SCF Done:  E(UB3LYP) =  -2359.42562632     A.U. after   19 cycles
 SCF Done:  E(UB3LYP) =  -2359.42666713     A.U. after   18 cycles
 SCF Done:  E(UB3LYP) =  -2359.42751458     A.U. after   21 cycles
 SCF Done:  E(UB3LYP) =  -2359.42773760     A.U. after   17 cycles
 SCF Done:  E(UB3LYP) =  -2359.42778931     A.U. after   19 cycles
 SCF Done:  E(UB3LYP) =  -2359.42785210     A.U. after   17 cycles
 SCF Done:  E(UB3LYP) =  -2359.42786056     A.U. after   15 cycles
 SCF Done:  E(UB3LYP) =  -2359.42786439     A.U. after   12 cycles
 SCF Done:  E(UB3LYP) =  -2359.42788325     A.U. after   14 cycles
 SCF Done:  E(UB3LYP) =  -2359.42788373     A.U. after   13 cycles
 SCF Done:  E(UB3LYP) =  -2359.42788400     A.U. after   12 cycles
 SCF Done:  E(UB3LYP) =  -2359.42788429     A.U. after   12 cycles
 SCF Done:  E(UB3LYP) =  -2359.42788474     A.U. after   13 cycles
 SCF Done:  E(UB3LYP) =  -2359.42788540     A.U. after   11 cycles
 SCF Done:  E(UB3LYP) =  -2359.42788591     A.U. after   10 cycles
 SCF Done:  E(UB3LYP) =  -2359.42788627     A.U. after   13 cycles
 SCF Done:  E(UB3LYP) =  -2359.42788651     A.U. after   13 cycles
 SCF Done:  E(UB3LYP) =  -2359.42788662     A.U. after   12 cycles
 Optimization completed.
    -- Stationary point found.

                         Standard orientation:
 ---------------------------------------------------------------------
 Center     Atomic      Atomic             Coordinates (Angstroms)
 Number     Number       Type             X           Y           Z
 ---------------------------------------------------------------------
      1          6           0        2.633342   -3.005142    0.242667
      2          6           0        2.303766   -1.589922    0.096704
      3          6           0        3.327737   -0.614056    0.068168
      4          6           0        4.685274   -0.986220    0.185034
      5          6           0        5.057909   -2.393165    0.334402
      6          6           0        0.967425   -1.195968    0.050239
      7          6           0        2.960946    0.764529   -0.089767
      8          6           0        1.587912    1.143244   -0.212210
      9          6           0        0.563381    0.136664   -0.079681
     10          6           0        1.304419    2.523254   -0.607663
     11          6           0        3.720801    3.135132   -0.328167
     12          6           0        4.009519    1.720296   -0.132472
     13          6           0        5.354135    1.323562    0.000682
     14          6           0        5.692341   -0.004440    0.156495
     15          1           0        6.723447   -0.319642    0.252453
     16          1           0        6.110746    2.097357   -0.031149
     17          1           0        0.227856   -1.976080    0.177587
     18          7           0        2.376261    3.444215   -0.564456
     19          7           0        3.998910   -3.321866    0.346810
     20          8           0        1.799051   -3.910523    0.278144
     21          8           0        6.223533   -2.776284    0.442965
     22          8           0        4.581995    4.018621   -0.318546
     23          8           0        0.211697    2.949156   -0.988467
     24          6           0        2.037873    4.829727   -0.892988
     25          1           0        1.693409    4.901135   -1.926844
     26          1           0        1.229498    5.176988   -0.248079
     27          1           0        2.932483    5.428564   -0.748878
     28          6           0        4.320982   -4.742241    0.488971
     29          1           0        3.863680   -5.140809    1.396741
     30          1           0        3.921492   -5.300220   -0.359600
     31          1           0        5.402238   -4.833283    0.535080
     32          6           0       -0.871361    0.395323    0.094414
     33          6           0       -1.525294    1.489631    0.613014
     34         16           0       -2.036515   -0.828429   -0.389678
     35          6           0       -2.928724    1.342414    0.649443
     36          1           0       -1.006584    2.372517    0.943262
     37          6           0       -3.403577    0.139128    0.145456
     38          8           0       -3.816595    2.265469    1.129028
     39          6           0       -4.768894   -0.303427    0.044220
     40          6           0       -3.306300    3.546498    1.477037
     41          6           0       -5.250807   -1.507032   -0.454928
     42         16           0       -6.130815    0.681275    0.574152
     43          1           0       -4.172485    4.151758    1.743659
     44          1           0       -2.629991    3.483523    2.336642
     45          1           0       -2.779300    4.004232    0.634167
     46          6           0       -6.666692   -1.639641   -0.410627
     47          8           0       -4.370540   -2.430164   -0.944574
     48          6           0       -7.274324   -0.535944    0.121220
     49          1           0       -7.208234   -2.508672   -0.756727
     50          6           0       -4.869301   -3.713358   -1.279959
     51          1           0       -8.329270   -0.366796    0.271846
     52          1           0       -5.578184   -3.662466   -2.115264
     53          1           0       -4.003922   -4.303011   -1.579630
     54          1           0       -5.353868   -4.190357   -0.419945
 ---------------------------------------------------------------------

 The electronic state is 2-A.
 Alpha  occ. eigenvalues --  -88.80144 -88.78109 -19.08646 -19.08037 -18.99614
 Alpha  occ. eigenvalues --  -18.99473 -18.99119 -18.98928 -14.26514 -14.26144
 Alpha  occ. eigenvalues --  -10.18109 -10.17831 -10.17688 -10.17559 -10.16318
 Alpha  occ. eigenvalues --  -10.15990 -10.15334 -10.14951 -10.13400 -10.12671
 Alpha  occ. eigenvalues --  -10.12046 -10.11769 -10.11056 -10.10606 -10.10579
 Alpha  occ. eigenvalues --  -10.10364 -10.10293 -10.09932 -10.09283 -10.08713
 Alpha  occ. eigenvalues --  -10.08604 -10.08528 -10.08347 -10.08224 -10.07955
 Alpha  occ. eigenvalues --  -10.07892  -7.88697  -7.86676  -5.85006  -5.84623
 Alpha  occ. eigenvalues --   -5.84268  -5.82998  -5.82609  -5.82225  -1.00250
 Alpha  occ. eigenvalues --   -0.99416  -0.95678  -0.95371  -0.93615  -0.93231
 Alpha  occ. eigenvalues --   -0.83769  -0.83342  -0.81307  -0.79685  -0.78613
 Alpha  occ. eigenvalues --   -0.74090  -0.71667  -0.69821  -0.68348  -0.66893
 Alpha  occ. eigenvalues --   -0.65810  -0.65623  -0.63914  -0.63525  -0.61925
 Alpha  occ. eigenvalues --   -0.61100  -0.60382  -0.58456  -0.55097  -0.54017
 Alpha  occ. eigenvalues --   -0.53553  -0.52388  -0.51504  -0.49879  -0.48135
 Alpha  occ. eigenvalues --   -0.47427  -0.46004  -0.45756  -0.45235  -0.43132
 Alpha  occ. eigenvalues --   -0.41968  -0.40863  -0.40722  -0.39832  -0.39692
 Alpha  occ. eigenvalues --   -0.39317  -0.38321  -0.37986  -0.37905  -0.37491
 Alpha  occ. eigenvalues --   -0.37025  -0.36672  -0.36561  -0.35066  -0.34246
 Alpha  occ. eigenvalues --   -0.34205  -0.33786  -0.33224  -0.33029  -0.32690
 Alpha  occ. eigenvalues --   -0.32609  -0.32256  -0.31338  -0.30667  -0.30551
 Alpha  occ. eigenvalues --   -0.30322  -0.30069  -0.29897  -0.29591  -0.29363
 Alpha  occ. eigenvalues --   -0.29050  -0.28584  -0.27717  -0.27433  -0.27019
 Alpha  occ. eigenvalues --   -0.26079  -0.25551  -0.25148  -0.24832  -0.23705
 Alpha  occ. eigenvalues --   -0.22812  -0.20330  -0.19422  -0.18628  -0.17938
 Alpha  occ. eigenvalues --   -0.17795  -0.17244  -0.16980  -0.16413  -0.15979
 Alpha  occ. eigenvalues --   -0.15842  -0.14620  -0.13851  -0.10204  -0.05118
 Alpha virt. eigenvalues --    0.02736   0.04651   0.05793   0.06296   0.06877
 Alpha virt. eigenvalues --    0.07376   0.07496   0.08607   0.08925   0.09138
 Alpha virt. eigenvalues --    0.09541   0.09748   0.10184   0.10254   0.10626

  Beta  occ. eigenvalues --  -88.80142 -88.78096 -19.08633 -19.08045 -18.99441
  Beta  occ. eigenvalues --  -18.99277 -18.98938 -18.98722 -14.26561 -14.26195
  Beta  occ. eigenvalues --  -10.18065 -10.17790 -10.17633 -10.17515 -10.16318
  Beta  occ. eigenvalues --  -10.15957 -10.15334 -10.14982 -10.13423 -10.12639
  Beta  occ. eigenvalues --  -10.11976 -10.11819 -10.11068 -10.10578 -10.10474
  Beta  occ. eigenvalues --  -10.10363 -10.10344 -10.09989 -10.09108 -10.08568
  Beta  occ. eigenvalues --  -10.08428 -10.08377 -10.08315 -10.08165 -10.07877
  Beta  occ. eigenvalues --  -10.07812  -7.88695  -7.86663  -5.85005  -5.84622
  Beta  occ. eigenvalues --   -5.84260  -5.82991  -5.82602  -5.82184  -1.00222
  Beta  occ. eigenvalues --   -0.99433  -0.95451  -0.95132  -0.93301  -0.92902
  Beta  occ. eigenvalues --   -0.83659  -0.83228  -0.81274  -0.79571  -0.78520
  Beta  occ. eigenvalues --   -0.73781  -0.71374  -0.69726  -0.68298  -0.66799
  Beta  occ. eigenvalues --   -0.65702  -0.65243  -0.63821  -0.63465  -0.61881
  Beta  occ. eigenvalues --   -0.61050  -0.60130  -0.58195  -0.54951  -0.53826
  Beta  occ. eigenvalues --   -0.53460  -0.52218  -0.51459  -0.49832  -0.48110
  Beta  occ. eigenvalues --   -0.47365  -0.45938  -0.45676  -0.45118  -0.42981
  Beta  occ. eigenvalues --   -0.41872  -0.40828  -0.40680  -0.39844  -0.39658
  Beta  occ. eigenvalues --   -0.39158  -0.38106  -0.37915  -0.37747  -0.37460
  Beta  occ. eigenvalues --   -0.36922  -0.36613  -0.36459  -0.34976  -0.34140
  Beta  occ. eigenvalues --   -0.34093  -0.33695  -0.33156  -0.32941  -0.32531
  Beta  occ. eigenvalues --   -0.32364  -0.32004  -0.31228  -0.30392  -0.30263
  Beta  occ. eigenvalues --   -0.30174  -0.29977  -0.29629  -0.29209  -0.29040
  Beta  occ. eigenvalues --   -0.28548  -0.28310  -0.27644  -0.27198  -0.26769
  Beta  occ. eigenvalues --   -0.25993  -0.25506  -0.25024  -0.24710  -0.23619
  Beta  occ. eigenvalues --   -0.22206  -0.19925  -0.18543  -0.18441  -0.17623
  Beta  occ. eigenvalues --   -0.17356  -0.16927  -0.16723  -0.16193  -0.15719
  Beta  occ. eigenvalues --   -0.15462  -0.14380  -0.12558  -0.09766
  Beta virt. eigenvalues --   -0.00845   0.03103   0.05642   0.05795   0.06712
  Beta virt. eigenvalues --    0.06884   0.07490   0.08128   0.08613   0.08929
  Beta virt. eigenvalues --    0.09145   0.09561   0.09952   0.10205   0.10274

 Mulliken charges and spin densities:
               1          2
     1  C    0.243765   0.015063
     2  C   -0.144773   0.129888
     3  C    0.154732  -0.038229
     4  C    0.205804   0.098408
     5  C    0.175768   0.017850
     6  C   -0.150068   0.022097
     7  C    0.228101  -0.030890
     8  C    0.490452   0.134293
     9  C    0.285386   0.092510
    10  C   -0.747242   0.014405
    11  C    0.185727   0.018927
    12  C    0.127389   0.099292
    13  C   -0.482859   0.056003
    14  C   -0.580521   0.063015
    15  H    0.129908  -0.004348
    16  H    0.132333  -0.004059
    17  H    0.153316  -0.001081
    18  N   -0.067678  -0.020436
    19  N   -0.140094  -0.019146
    20  O   -0.358139   0.073138
    21  O   -0.342533   0.064671
    22  O   -0.350407   0.067931
    23  O   -0.293595   0.077478
    24  C   -0.162640   0.001669
    25  H    0.157018  -0.001080
    26  H    0.147439  -0.000779
    27  H    0.169312  -0.000370
    28  C   -0.192161   0.001108
    29  H    0.153583  -0.000892
    30  H    0.153587  -0.000839
    31  H    0.168421  -0.000324
    32  C   -0.019813  -0.036745
    33  C   -0.402543   0.045940
    34  S   -0.680159   0.022379
    35  C   -0.228811  -0.017574
    36  H    0.131644  -0.003271
    37  C    0.698457   0.041609
    38  O   -0.130558  -0.001238
    39  C    0.864813  -0.015477
    40  C   -0.242820   0.000111
    41  C   -0.025815   0.022375
    42  S   -0.280481   0.001932
    43  H    0.146621   0.000004
    44  H    0.137292  -0.000236
    45  H    0.164548  -0.000161
    46  C   -0.594475  -0.009279
    47  O   -0.119706   0.001997
    48  C   -0.304651   0.022835
    49  H    0.115725   0.000448
    50  C   -0.245948  -0.000146
    51  H    0.141186  -0.001420
    52  H    0.125242   0.000263
    53  H    0.164784   0.000003
    54  H    0.136135   0.000382
 Sum of Mulliken charges =  -1.00000   1.00000

 Dipole moment (field-independent basis, Debye):
    X=            -11.2542    Y=             -0.3741    Z=              0.6103  Tot=             11.2769
 Quadrupole moment (field-independent basis, Debye-Ang):
   XX=           -316.0822   YY=           -256.6461   ZZ=           -228.8541
   XY=              5.3574   XZ=             -0.4394   YZ=             13.0656

 Normal termination of Gaussian 16 at Tue Oct  5 13:57:47 2021.
