 Gaussian 16, Revision C.01,
 Gaussian 16:  ES64L-G16RevC.01  3-Jul-2019

 -------------------------------------
 # opt=modredundant b3lyp/6-311+g(d,p)
 -------------------------------------

 ----------
 NDI_35.pdb
 ----------
 Symbolic Z-matrix:
 Charge = -1 Multiplicity = 2

 SCF Done:  E(UB3LYP) =  -2359.41846066     A.U. after   23 cycles
 SCF Done:  E(UB3LYP) =  -2359.41310797     A.U. after   23 cycles
 SCF Done:  E(UB3LYP) =  -2359.42296203     A.U. after   19 cycles
 SCF Done:  E(UB3LYP) =  -2359.42592218     A.U. after   20 cycles
 SCF Done:  E(UB3LYP) =  -2359.42665693     A.U. after   20 cycles
 SCF Done:  E(UB3LYP) =  -2359.42730107     A.U. after   19 cycles
 SCF Done:  E(UB3LYP) =  -2359.42791189     A.U. after   22 cycles
 SCF Done:  E(UB3LYP) =  -2359.42818549     A.U. after   19 cycles
 SCF Done:  E(UB3LYP) =  -2359.42832728     A.U. after   17 cycles
 SCF Done:  E(UB3LYP) =  -2359.42857371     A.U. after   19 cycles
 SCF Done:  E(UB3LYP) =  -2359.42870093     A.U. after   14 cycles
 SCF Done:  E(UB3LYP) =  -2359.42870163     A.U. after   14 cycles
 SCF Done:  E(UB3LYP) =  -2359.42870230     A.U. after   11 cycles
 SCF Done:  E(UB3LYP) =  -2359.42870268     A.U. after   12 cycles
 SCF Done:  E(UB3LYP) =  -2359.42870289     A.U. after   12 cycles
 SCF Done:  E(UB3LYP) =  -2359.42870311     A.U. after   12 cycles
 SCF Done:  E(UB3LYP) =  -2359.42870323     A.U. after    9 cycles
 SCF Done:  E(UB3LYP) =  -2359.42870341     A.U. after   11 cycles
 SCF Done:  E(UB3LYP) =  -2359.42870350     A.U. after   11 cycles
 SCF Done:  E(UB3LYP) =  -2359.42870353     A.U. after   11 cycles
 Optimization completed.
    -- Stationary point found.

                         Standard orientation:
 ---------------------------------------------------------------------
 Center     Atomic      Atomic             Coordinates (Angstroms)
 Number     Number       Type             X           Y           Z
 ---------------------------------------------------------------------
      1          6           0       -2.684607   -2.981969    0.361144
      2          6           0       -2.330455   -1.577599    0.176245
      3          6           0       -3.339283   -0.591194    0.073654
      4          6           0       -4.705845   -0.942840    0.150088
      5          6           0       -5.102850   -2.338359    0.335447
      6          6           0       -0.986353   -1.202819    0.154955
      7          6           0       -2.950601    0.777510   -0.117267
      8          6           0       -1.569518    1.135592   -0.197039
      9          6           0       -0.567354    0.120377   -0.004696
     10          6           0       -1.244614    2.507436   -0.590993
     11          6           0       -3.667543    3.147885   -0.464197
     12          6           0       -3.983288    1.743819   -0.234677
     13          6           0       -5.337257    1.367120   -0.143554
     14          6           0       -5.697736    0.049270    0.045464
     15          1           0       -6.735826   -0.250578    0.110841
     16          1           0       -6.082440    2.147388   -0.233399
     17          1           0       -0.256109   -1.983615    0.324044
     18          7           0       -2.308657    3.436865   -0.638687
     19          7           0       -4.057384   -3.278158    0.424395
     20          8           0       -1.864532   -3.895639    0.461525
     21          8           0       -6.276992   -2.703633    0.411354
     22          8           0       -4.517859    4.039617   -0.528019
     23          8           0       -0.122891    2.917724   -0.895088
     24          6           0       -1.936233    4.811046   -0.977972
     25          1           0       -1.183130    5.175973   -0.277874
     26          1           0       -1.505105    4.848986   -1.980390
     27          1           0       -2.836322    5.416733   -0.926916
     28          6           0       -4.403446   -4.688316    0.606043
     29          1           0       -3.983730   -5.281778   -0.208071
     30          1           0       -3.981951   -5.059395    1.542300
     31          1           0       -5.486796   -4.764080    0.618534
     32          6           0        0.871466    0.369779    0.160680
     33          6           0        1.523961    1.406233    0.784873
     34         16           0        2.027245   -0.804114   -0.439108
     35          6           0        2.928331    1.257332    0.797666
     36          1           0        1.002649    2.250566    1.203491
     37          6           0        3.398965    0.107565    0.177864
     38          8           0        3.819724    2.129221    1.360019
     39          6           0        4.764072   -0.321429    0.022802
     40          6           0        3.318592    3.386375    1.796712
     41          6           0        5.241592   -1.472819   -0.589755
     42         16           0        6.130548    0.613532    0.625500
     43          1           0        4.188296    3.963761    2.109770
     44          1           0        2.799576    3.907475    0.986268
     45          1           0        2.637935    3.268359    2.647121
     46          6           0        6.658173   -1.605940   -0.573847
     47          8           0        4.357006   -2.348514   -1.154039
     48          6           0        7.270485   -0.554468    0.050135
     49          1           0        7.196627   -2.438505   -1.004211
     50          6           0        4.849594   -3.604370   -1.587816
     51          1           0        8.326788   -0.397928    0.204819
     52          1           0        5.335490   -4.146865   -0.768372
     53          1           0        3.980991   -4.166628   -1.928184
     54          1           0        5.555513   -3.493019   -2.419758
 ---------------------------------------------------------------------

 The electronic state is 2-A.
 Alpha  occ. eigenvalues --  -88.80130 -88.78170 -19.08636 -19.08035 -18.99555
 Alpha  occ. eigenvalues --  -18.99418 -18.99118 -18.98907 -14.26470 -14.26140
 Alpha  occ. eigenvalues --  -10.18050 -10.17776 -10.17678 -10.17564 -10.16326
 Alpha  occ. eigenvalues --  -10.15959 -10.15366 -10.14957 -10.13390 -10.12651
 Alpha  occ. eigenvalues --  -10.12009 -10.11730 -10.11043 -10.10545 -10.10541
 Alpha  occ. eigenvalues --  -10.10330 -10.10283 -10.09941 -10.09296 -10.08680
 Alpha  occ. eigenvalues --  -10.08583 -10.08524 -10.08295 -10.08289 -10.07947
 Alpha  occ. eigenvalues --  -10.07885  -7.88683  -7.86733  -5.84992  -5.84609
 Alpha  occ. eigenvalues --   -5.84253  -5.83054  -5.82665  -5.82283  -1.00231
 Alpha  occ. eigenvalues --   -0.99414  -0.95620  -0.95358  -0.93553  -0.93225
 Alpha  occ. eigenvalues --   -0.83720  -0.83328  -0.81298  -0.79698  -0.78620
 Alpha  occ. eigenvalues --   -0.74081  -0.71655  -0.69813  -0.68334  -0.66870
 Alpha  occ. eigenvalues --   -0.65832  -0.65601  -0.63908  -0.63502  -0.61931
 Alpha  occ. eigenvalues --   -0.61074  -0.60365  -0.58468  -0.55059  -0.53999
 Alpha  occ. eigenvalues --   -0.53527  -0.52364  -0.51512  -0.49866  -0.48124
 Alpha  occ. eigenvalues --   -0.47435  -0.45964  -0.45766  -0.45218  -0.43097
 Alpha  occ. eigenvalues --   -0.41919  -0.40867  -0.40724  -0.39860  -0.39720
 Alpha  occ. eigenvalues --   -0.39308  -0.38286  -0.37974  -0.37892  -0.37490
 Alpha  occ. eigenvalues --   -0.37004  -0.36645  -0.36554  -0.35044  -0.34254
 Alpha  occ. eigenvalues --   -0.34201  -0.33780  -0.33260  -0.32975  -0.32671
 Alpha  occ. eigenvalues --   -0.32578  -0.32253  -0.31385  -0.30610  -0.30522
 Alpha  occ. eigenvalues --   -0.30285  -0.30002  -0.29895  -0.29547  -0.29326
 Alpha  occ. eigenvalues --   -0.29100  -0.28640  -0.27743  -0.27387  -0.27029
 Alpha  occ. eigenvalues --   -0.26067  -0.25567  -0.25061  -0.24653  -0.23844
 Alpha  occ. eigenvalues --   -0.22840  -0.20274  -0.19436  -0.18581  -0.17919
 Alpha  occ. eigenvalues --   -0.17765  -0.17220  -0.16964  -0.16362  -0.15976
 Alpha  occ. eigenvalues --   -0.15863  -0.14558  -0.13871  -0.10211  -0.05121
 Alpha virt. eigenvalues --    0.02895   0.04660   0.05793   0.06337   0.06870
 Alpha virt. eigenvalues --    0.07378   0.07481   0.08614   0.08953   0.09151
 Alpha virt. eigenvalues --    0.09467   0.09599   0.10108   0.10224   0.10630

  Beta  occ. eigenvalues --  -88.80128 -88.78159 -19.08626 -19.08042 -18.99377
  Beta  occ. eigenvalues --  -18.99219 -18.98936 -18.98699 -14.26518 -14.26191
  Beta  occ. eigenvalues --  -10.18005 -10.17734 -10.17625 -10.17520 -10.16327
  Beta  occ. eigenvalues --  -10.15931 -10.15365 -10.14984 -10.13410 -10.12624
  Beta  occ. eigenvalues --  -10.11949 -10.11774 -10.11054 -10.10541 -10.10420
  Beta  occ. eigenvalues --  -10.10335 -10.10329 -10.09998 -10.09119 -10.08531
  Beta  occ. eigenvalues --  -10.08403 -10.08371 -10.08259 -10.08236 -10.07866
  Beta  occ. eigenvalues --  -10.07805  -7.88681  -7.86723  -5.84990  -5.84608
  Beta  occ. eigenvalues --   -5.84246  -5.83048  -5.82659  -5.82251  -1.00208
  Beta  occ. eigenvalues --   -0.99429  -0.95388  -0.95118  -0.93233  -0.92894
  Beta  occ. eigenvalues --   -0.83608  -0.83213  -0.81270  -0.79586  -0.78526
  Beta  occ. eigenvalues --   -0.73771  -0.71358  -0.69721  -0.68288  -0.66778
  Beta  occ. eigenvalues --   -0.65723  -0.65213  -0.63819  -0.63443  -0.61893
  Beta  occ. eigenvalues --   -0.61024  -0.60115  -0.58200  -0.54914  -0.53804
  Beta  occ. eigenvalues --   -0.53436  -0.52190  -0.51472  -0.49819  -0.48101
  Beta  occ. eigenvalues --   -0.47373  -0.45906  -0.45680  -0.45099  -0.42944
  Beta  occ. eigenvalues --   -0.41821  -0.40837  -0.40686  -0.39869  -0.39691
  Beta  occ. eigenvalues --   -0.39148  -0.38066  -0.37909  -0.37725  -0.37461
  Beta  occ. eigenvalues --   -0.36904  -0.36588  -0.36448  -0.34957  -0.34144
  Beta  occ. eigenvalues --   -0.34093  -0.33682  -0.33199  -0.32899  -0.32511
  Beta  occ. eigenvalues --   -0.32338  -0.31984  -0.31282  -0.30338  -0.30226
  Beta  occ. eigenvalues --   -0.30148  -0.29905  -0.29614  -0.29179  -0.29013
  Beta  occ. eigenvalues --   -0.28608  -0.28302  -0.27677  -0.27155  -0.26774
  Beta  occ. eigenvalues --   -0.25993  -0.25528  -0.24957  -0.24527  -0.23774
  Beta  occ. eigenvalues --   -0.22188  -0.19906  -0.18543  -0.18394  -0.17596
  Beta  occ. eigenvalues --   -0.17312  -0.16888  -0.16728  -0.16135  -0.15698
  Beta  occ. eigenvalues --   -0.15507  -0.14348  -0.12523  -0.09836
  Beta virt. eigenvalues --   -0.00801   0.03222   0.05672   0.05795   0.06750
  Beta virt. eigenvalues --    0.06880   0.07469   0.08146   0.08620   0.08959
  Beta virt. eigenvalues --    0.09158   0.09526   0.09770   0.10124   0.10234

 Mulliken charges and spin densities:
               1          2
     1  C    0.278105   0.015362
     2  C   -0.183088   0.130983
     3  C    0.117784  -0.038817
     4  C    0.204891   0.101306
     5  C    0.186152   0.017755
     6  C   -0.369692   0.029137
     7  C    0.207467  -0.032338
     8  C    0.379057   0.134782
     9  C    0.431787   0.088391
    10  C   -0.554909   0.018155
    11  C    0.179349   0.019249
    12  C    0.136951   0.100958
    13  C   -0.480044   0.058221
    14  C   -0.581296   0.063017
    15  H    0.129954  -0.004371
    16  H    0.132012  -0.004178
    17  H    0.157186  -0.001618
    18  N   -0.089725  -0.020485
    19  N   -0.140948  -0.019517
    20  O   -0.357600   0.074407
    21  O   -0.343737   0.066362
    22  O   -0.349265   0.068435
    23  O   -0.277223   0.077890
    24  C   -0.174978   0.001523
    25  H    0.148268  -0.000805
    26  H    0.156703  -0.001061
    27  H    0.169166  -0.000365
    28  C   -0.191477   0.001147
    29  H    0.153480  -0.000863
    30  H    0.153489  -0.000907
    31  H    0.168559  -0.000333
    32  C    0.090215  -0.038093
    33  C   -0.434902   0.037457
    34  S   -0.627282   0.019818
    35  C   -0.228512  -0.013890
    36  H    0.125110  -0.003013
    37  C    0.678801   0.038009
    38  O   -0.130591  -0.001093
    39  C    0.820728  -0.014031
    40  C   -0.243145   0.000243
    41  C   -0.052662   0.018926
    42  S   -0.286564   0.001798
    43  H    0.146201   0.000003
    44  H    0.163705  -0.000128
    45  H    0.136558  -0.000195
    46  C   -0.571408  -0.007962
    47  O   -0.120124   0.001760
    48  C   -0.296662   0.019248
    49  H    0.115361   0.000380
    50  C   -0.247455  -0.000004
    51  H    0.140909  -0.001194
    52  H    0.136587   0.000316
    53  H    0.163493   0.000012
    54  H    0.125263   0.000213
 Sum of Mulliken charges =  -1.00000   1.00000

 Dipole moment (field-independent basis, Debye):
    X=             11.2609    Y=             -0.3566    Z=              0.5839  Tot=             11.2816
 Quadrupole moment (field-independent basis, Debye-Ang):
   XX=           -316.8419   YY=           -257.7568   ZZ=           -227.4440
   XY=             -5.2772   XZ=             -1.7174   YZ=             15.8539

 Normal termination of Gaussian 16 at Wed Oct  6 03:30:40 2021.
