 Gaussian 16, Revision C.01,
 Gaussian 16:  ES64L-G16RevC.01  3-Jul-2019

 -------------------------------------
 # opt=modredundant b3lyp/6-311+g(d,p)
 -------------------------------------

 ------------
 NDI_-120.pdb
 ------------
 Symbolic Z-matrix:
 Charge = -1 Multiplicity = 2

 SCF Done:  E(UB3LYP) =  -2359.41741663     A.U. after   23 cycles
 SCF Done:  E(UB3LYP) =  -2359.42468774     A.U. after   20 cycles
 SCF Done:  E(UB3LYP) =  -2359.42670570     A.U. after   19 cycles
 SCF Done:  E(UB3LYP) =  -2359.42735641     A.U. after   19 cycles
 SCF Done:  E(UB3LYP) =  -2359.42765851     A.U. after   18 cycles
 SCF Done:  E(UB3LYP) =  -2359.42781500     A.U. after   17 cycles
 SCF Done:  E(UB3LYP) =  -2359.42785089     A.U. after   17 cycles
 SCF Done:  E(UB3LYP) =  -2359.42786826     A.U. after   15 cycles
 SCF Done:  E(UB3LYP) =  -2359.42787505     A.U. after   12 cycles
 SCF Done:  E(UB3LYP) =  -2359.42788112     A.U. after   13 cycles
 SCF Done:  E(UB3LYP) =  -2359.42794005     A.U. after   13 cycles
 SCF Done:  E(UB3LYP) =  -2359.42794266     A.U. after   14 cycles
 SCF Done:  E(UB3LYP) =  -2359.42794518     A.U. after   14 cycles
 SCF Done:  E(UB3LYP) =  -2359.42794682     A.U. after   12 cycles
 SCF Done:  E(UB3LYP) =  -2359.42794820     A.U. after   13 cycles
 SCF Done:  E(UB3LYP) =  -2359.42794856     A.U. after   12 cycles
 SCF Done:  E(UB3LYP) =  -2359.42794874     A.U. after   12 cycles
 SCF Done:  E(UB3LYP) =  -2359.42794880     A.U. after   10 cycles
 SCF Done:  E(UB3LYP) =  -2359.42794881     A.U. after   10 cycles
 SCF Done:  E(UB3LYP) =  -2359.42794883     A.U. after    8 cycles
 Optimization completed.
    -- Stationary point found.

                         Standard orientation:
 ---------------------------------------------------------------------
 Center     Atomic      Atomic             Coordinates (Angstroms)
 Number     Number       Type             X           Y           Z
 ---------------------------------------------------------------------
      1          6           0       -3.447510   -2.725293    0.406426
      2          6           0       -2.742612   -1.479191    0.128033
      3          6           0       -3.441189   -0.249078    0.127358
      4          6           0       -4.827907   -0.197914    0.402694
      5          6           0       -5.567937   -1.422648    0.696023
      6          6           0       -1.360885   -1.498372   -0.108164
      7          6           0       -2.724133    0.958082   -0.169375
      8          6           0       -1.329662    0.908770   -0.452370
      9          6           0       -0.640396   -0.339666   -0.378238
     10          6           0       -0.664096    2.129700   -0.905941
     11          6           0       -2.766713    3.434662   -0.500838
     12          6           0       -3.441565    2.181227   -0.182636
     13          6           0       -4.820762    2.202036    0.103541
     14          6           0       -5.503357    1.037448    0.391106
     15          1           0       -6.564079    1.044083    0.607823
     16          1           0       -5.325403    3.159819    0.086215
     17          1           0       -0.846468   -2.448460   -0.040962
     18          7           0       -1.409504    3.325900   -0.841410
     19          7           0       -4.823279   -2.619630    0.677240
     20          8           0       -2.913229   -3.836340    0.416055
     21          8           0       -6.774704   -1.443594    0.946872
     22          8           0       -3.328224    4.532932   -0.495969
     23          8           0        0.484510    2.181078   -1.344689
     24          6           0       -0.698755    4.540782   -1.242595
     25          1           0        0.235322    4.619628   -0.685738
     26          1           0       -0.451569    4.503267   -2.306221
     27          1           0       -1.349360    5.386112   -1.038030
     28          6           0       -5.520202   -3.874812    0.959874
     29          1           0       -5.431311   -4.551418    0.107761
     30          1           0       -5.068955   -4.365260    1.824364
     31          1           0       -6.562275   -3.637932    1.153705
     32          6           0        0.824041   -0.492296   -0.519825
     33          6           0        1.489369   -1.229507   -1.465097
     34         16           0        1.925635    0.132378    0.674792
     35          6           0        2.893171   -1.262876   -1.254434
     36          1           0        0.978679   -1.702559   -2.291070
     37          6           0        3.322746   -0.572109   -0.133666
     38          8           0        3.809393   -1.900810   -2.046270
     39          6           0        4.674078   -0.404156    0.340704
     40          6           0        3.334602   -2.527961   -3.227954
     41          6           0        5.112147    0.275943    1.467405
     42         16           0        6.069385   -1.070312   -0.503174
     43          1           0        4.212420   -2.945736   -3.720423
     44          1           0        2.630789   -3.334881   -2.996000
     45          1           0        2.851687   -1.805218   -3.894504
     46          6           0        6.524628    0.276765    1.645433
     47          8           0        4.198115    0.846757    2.309473
     48          6           0        7.171434   -0.409597    0.656399
     49          1           0        7.033880    0.759990    2.467499
     50          6           0        4.659688    1.840895    3.209060
     51          1           0        8.232498   -0.569294    0.542722
     52          1           0        5.191884    2.639491    2.679783
     53          1           0        3.770819    2.251936    3.686395
     54          1           0        5.314357    1.414293    3.978659
 ---------------------------------------------------------------------

 The electronic state is 2-A.
 Alpha  occ. eigenvalues --  -88.80133 -88.78032 -19.08501 -19.08302 -18.99322
 Alpha  occ. eigenvalues --  -18.99232 -18.99076 -18.98953 -14.26302 -14.26045
 Alpha  occ. eigenvalues --  -10.17820 -10.17590 -10.17544 -10.17524 -10.16267
 Alpha  occ. eigenvalues --  -10.15857 -10.15818 -10.15102 -10.13393 -10.12649
 Alpha  occ. eigenvalues --  -10.11912 -10.11898 -10.11018 -10.10400 -10.10205
 Alpha  occ. eigenvalues --  -10.10157 -10.10114 -10.09919 -10.09171 -10.08644
 Alpha  occ. eigenvalues --  -10.08513 -10.08499 -10.08467 -10.08234 -10.07902
 Alpha  occ. eigenvalues --  -10.07838  -7.88689  -7.86592  -5.84997  -5.84615
 Alpha  occ. eigenvalues --   -5.84257  -5.82920  -5.82527  -5.82129  -1.00079
 Alpha  occ. eigenvalues --   -0.99686  -0.95387  -0.95274  -0.93315  -0.93183
 Alpha  occ. eigenvalues --   -0.83526  -0.83275  -0.81285  -0.79704  -0.78619
 Alpha  occ. eigenvalues --   -0.74039  -0.71583  -0.69822  -0.68279  -0.66742
 Alpha  occ. eigenvalues --   -0.66133  -0.65436  -0.63871  -0.63384  -0.61958
 Alpha  occ. eigenvalues --   -0.60959  -0.60273  -0.58605  -0.54842  -0.53940
 Alpha  occ. eigenvalues --   -0.53370  -0.52283  -0.51571  -0.49835  -0.48039
 Alpha  occ. eigenvalues --   -0.47592  -0.45963  -0.45795  -0.45127  -0.42951
 Alpha  occ. eigenvalues --   -0.41829  -0.40817  -0.40589  -0.40207  -0.40014
 Alpha  occ. eigenvalues --   -0.39238  -0.38159  -0.38027  -0.37810  -0.37505
 Alpha  occ. eigenvalues --   -0.36924  -0.36567  -0.36451  -0.35134  -0.34396
 Alpha  occ. eigenvalues --   -0.34127  -0.33682  -0.33459  -0.32886  -0.32555
 Alpha  occ. eigenvalues --   -0.32384  -0.32203  -0.31617  -0.30441  -0.30294
 Alpha  occ. eigenvalues --   -0.30147  -0.29959  -0.29850  -0.29500  -0.29158
 Alpha  occ. eigenvalues --   -0.28962  -0.28751  -0.27821  -0.27273  -0.26972
 Alpha  occ. eigenvalues --   -0.25972  -0.25579  -0.24667  -0.24360  -0.24237
 Alpha  occ. eigenvalues --   -0.22656  -0.19952  -0.19475  -0.18418  -0.17809
 Alpha  occ. eigenvalues --   -0.17597  -0.17073  -0.16769  -0.16195  -0.16095
 Alpha  occ. eigenvalues --   -0.15579  -0.14845  -0.13834  -0.10314  -0.05082
 Alpha virt. eigenvalues --    0.03453   0.04661   0.05812   0.06613   0.06783
 Alpha virt. eigenvalues --    0.07277   0.07464   0.08516   0.08691   0.09033
 Alpha virt. eigenvalues --    0.09097   0.09421   0.09934   0.10419   0.10533

  Beta  occ. eigenvalues --  -88.80133 -88.78025 -19.08498 -19.08303 -18.99130
  Beta  occ. eigenvalues --  -18.99027 -18.98885 -18.98733 -14.26354 -14.26097
  Beta  occ. eigenvalues --  -10.17770 -10.17543 -10.17498 -10.17481 -10.16267
  Beta  occ. eigenvalues --  -10.15851 -10.15818 -10.15107 -10.13396 -10.12644
  Beta  occ. eigenvalues --  -10.11913 -10.11900 -10.11020 -10.10399 -10.10172
  Beta  occ. eigenvalues --  -10.10156 -10.10101 -10.09975 -10.08979 -10.08626
  Beta  occ. eigenvalues --  -10.08355 -10.08320 -10.08299 -10.08176 -10.07815
  Beta  occ. eigenvalues --  -10.07755  -7.88688  -7.86585  -5.84997  -5.84615
  Beta  occ. eigenvalues --   -5.84256  -5.82910  -5.82519  -5.82118  -1.00073
  Beta  occ. eigenvalues --   -0.99689  -0.95142  -0.95022  -0.92976  -0.92836
  Beta  occ. eigenvalues --   -0.83405  -0.83157  -0.81274  -0.79599  -0.78524
  Beta  occ. eigenvalues --   -0.73719  -0.71270  -0.69742  -0.68253  -0.66673
  Beta  occ. eigenvalues --   -0.65992  -0.65005  -0.63818  -0.63328  -0.61940
  Beta  occ. eigenvalues --   -0.60906  -0.60047  -0.58297  -0.54695  -0.53747
  Beta  occ. eigenvalues --   -0.53261  -0.52146  -0.51520  -0.49778  -0.48025
  Beta  occ. eigenvalues --   -0.47532  -0.45955  -0.45665  -0.45000  -0.42791
  Beta  occ. eigenvalues --   -0.41727  -0.40801  -0.40555  -0.40209  -0.39991
  Beta  occ. eigenvalues --   -0.39081  -0.37984  -0.37915  -0.37622  -0.37482
  Beta  occ. eigenvalues --   -0.36837  -0.36442  -0.36398  -0.35055  -0.34259
  Beta  occ. eigenvalues --   -0.34033  -0.33585  -0.33391  -0.32851  -0.32391
  Beta  occ. eigenvalues --   -0.32143  -0.31936  -0.31493  -0.30186  -0.30090
  Beta  occ. eigenvalues --   -0.30026  -0.29735  -0.29633  -0.29025  -0.28918
  Beta  occ. eigenvalues --   -0.28636  -0.28124  -0.27786  -0.27029  -0.26707
  Beta  occ. eigenvalues --   -0.25934  -0.25556  -0.24587  -0.24291  -0.24138
  Beta  occ. eigenvalues --   -0.21824  -0.19813  -0.18481  -0.18224  -0.17471
  Beta  occ. eigenvalues --   -0.17082  -0.16716  -0.16663  -0.15918  -0.15597
  Beta  occ. eigenvalues --   -0.15366  -0.14757  -0.12280  -0.10207
  Beta virt. eigenvalues --   -0.00516   0.03558   0.05792   0.05819   0.06739
  Beta virt. eigenvalues --    0.07083   0.07320   0.08280   0.08560   0.08768
  Beta virt. eigenvalues --    0.09050   0.09114   0.09425   0.09945   0.10422

 Mulliken charges and spin densities:
               1          2
     1  C    0.355664   0.017522
     2  C   -0.098746   0.132482
     3  C    0.104500  -0.041104
     4  C    0.264926   0.110606
     5  C    0.214121   0.018661
     6  C   -0.558452   0.045185
     7  C    0.163870  -0.037942
     8  C   -0.018138   0.146459
     9  C    0.296681   0.068664
    10  C   -0.279749   0.016166
    11  C    0.264763   0.019344
    12  C    0.205559   0.117067
    13  C   -0.495239   0.059134
    14  C   -0.667599   0.066763
    15  H    0.130179  -0.004801
    16  H    0.131554  -0.004237
    17  H    0.139998  -0.002873
    18  N   -0.104850  -0.020406
    19  N   -0.142190  -0.020843
    20  O   -0.356157   0.076988
    21  O   -0.349854   0.071593
    22  O   -0.351513   0.071491
    23  O   -0.247269   0.082830
    24  C   -0.177867   0.001352
    25  H    0.159374  -0.000773
    26  H    0.154371  -0.001111
    27  H    0.169604  -0.000381
    28  C   -0.191364   0.001313
    29  H    0.152131  -0.000945
    30  H    0.153670  -0.000950
    31  H    0.169306  -0.000361
    32  C    0.352894  -0.024407
    33  C   -0.605228   0.023489
    34  S   -0.428102   0.013514
    35  C   -0.200001  -0.008730
    36  H    0.111205  -0.000456
    37  C    0.372648  -0.001716
    38  O   -0.120142  -0.000250
    39  C    0.902501   0.001629
    40  C   -0.250582   0.000439
    41  C   -0.072076   0.006195
    42  S   -0.263601   0.000435
    43  H    0.148841  -0.000009
    44  H    0.143091  -0.000016
    45  H    0.148981  -0.000041
    46  C   -0.384231  -0.000818
    47  O   -0.132349  -0.000098
    48  C   -0.328226   0.003967
    49  H    0.113117   0.000076
    50  C   -0.263956   0.000028
    51  H    0.140868  -0.000238
    52  H    0.141478   0.000054
    53  H    0.158478   0.000013
    54  H    0.123111   0.000050
 Sum of Mulliken charges =  -1.00000   1.00000

 Dipole moment (field-independent basis, Debye):
    X=             11.3777    Y=             -0.7527    Z=             -0.1546  Tot=             11.4036
 Quadrupole moment (field-independent basis, Debye-Ang):
   XX=           -315.8122   YY=           -268.9369   ZZ=           -217.6637
   XY=              7.4650   XZ=             12.0620   YZ=             17.7627

 Normal termination of Gaussian 16 at Tue Oct  5 16:16:10 2021.
