 Gaussian 16, Revision C.01,
 Gaussian 16:  ES64L-G16RevC.01  3-Jul-2019

 -------------------------------------
 # opt=modredundant b3lyp/6-311+g(d,p)
 -------------------------------------

 -----------
 NDI_140.pdb
 -----------
 Symbolic Z-matrix:
 Charge = -1 Multiplicity = 2

 SCF Done:  E(UB3LYP) =  -2359.41005552     A.U. after   23 cycles
 SCF Done:  E(UB3LYP) =  -2359.41329951     A.U. after   23 cycles
 SCF Done:  E(UB3LYP) =  -2359.42006045     A.U. after   18 cycles
 SCF Done:  E(UB3LYP) =  -2359.42586917     A.U. after   20 cycles
 SCF Done:  E(UB3LYP) =  -2359.42703448     A.U. after   20 cycles
 SCF Done:  E(UB3LYP) =  -2359.42710569     A.U. after   18 cycles
 SCF Done:  E(UB3LYP) =  -2359.42732456     A.U. after   16 cycles
 SCF Done:  E(UB3LYP) =  -2359.42737069     A.U. after   17 cycles
 SCF Done:  E(UB3LYP) =  -2359.42739237     A.U. after   14 cycles
 SCF Done:  E(UB3LYP) =  -2359.42740235     A.U. after   13 cycles
 SCF Done:  E(UB3LYP) =  -2359.42748240     A.U. after   14 cycles
 SCF Done:  E(UB3LYP) =  -2359.42748347     A.U. after   12 cycles
 SCF Done:  E(UB3LYP) =  -2359.42748379     A.U. after   10 cycles
 SCF Done:  E(UB3LYP) =  -2359.42748389     A.U. after   10 cycles
 SCF Done:  E(UB3LYP) =  -2359.42748397     A.U. after    9 cycles
 SCF Done:  E(UB3LYP) =  -2359.42748408     A.U. after    9 cycles
 SCF Done:  E(UB3LYP) =  -2359.42748424     A.U. after   11 cycles
 SCF Done:  E(UB3LYP) =  -2359.42748434     A.U. after    9 cycles
 SCF Done:  E(UB3LYP) =  -2359.42748441     A.U. after   10 cycles
 SCF Done:  E(UB3LYP) =  -2359.42748443     A.U. after   10 cycles
 Optimization completed.
    -- Stationary point found.

                         Standard orientation:
 ---------------------------------------------------------------------
 Center     Atomic      Atomic             Coordinates (Angstroms)
 Number     Number       Type             X           Y           Z
 ---------------------------------------------------------------------
      1          6           0        3.474542   -2.697761    0.400858
      2          6           0        2.756412   -1.463122    0.104324
      3          6           0        3.432437   -0.220219    0.129158
      4          6           0        4.807746   -0.144961    0.447189
      5          6           0        5.560757   -1.358081    0.758793
      6          6           0        1.381763   -1.504965   -0.154978
      7          6           0        2.700639    0.972666   -0.186907
      8          6           0        1.316182    0.898414   -0.513451
      9          6           0        0.639775   -0.360453   -0.442383
     10          6           0        0.668159    2.096428   -1.046370
     11          6           0        2.712802    3.448910   -0.525212
     12          6           0        3.397332    2.207955   -0.178299
     13          6           0        4.765320    2.254130    0.153405
     14          6           0        5.460702    1.102254    0.461285
     15          1           0        6.513658    1.128153    0.711591
     16          1           0        5.251898    3.221395    0.152853
     17          1           0        0.884140   -2.462407   -0.072804
     18          7           0        1.379613    3.311047   -0.937954
     19          7           0        4.839630   -2.568703    0.711574
     20          8           0        2.959707   -3.817981    0.392609
     21          8           0        6.758919   -1.357951    1.047099
     22          8           0        3.250210    4.558565   -0.490692
     23          8           0       -0.435613    2.114880   -1.589789
     24          6           0        0.673889    4.506993   -1.399976
     25          1           0        0.539028    4.476767   -2.484119
     26          1           0       -0.314197    4.546834   -0.941604
     27          1           0        1.271550    5.370666   -1.122909
     28          6           0        5.550878   -3.812173    1.010073
     29          1           0        5.090271   -4.309565    1.865718
     30          1           0        5.490425   -4.490328    0.156834
     31          1           0        6.584592   -3.558207    1.225738
     32          6           0       -0.819164   -0.545883   -0.538927
     33          6           0       -1.464954   -1.558917   -1.210627
     34         16           0       -1.941989    0.353412    0.444482
     35          6           0       -2.859666   -1.591114   -0.965081
     36          1           0       -0.942845   -2.235358   -1.871425
     37          6           0       -3.309208   -0.623084   -0.080427
     38          8           0       -3.755067   -2.464394   -1.521348
     39          6           0       -4.661907   -0.378352    0.352402
     40          6           0       -3.251702   -3.435628   -2.425934
     41          6           0       -5.119456    0.578112    1.247652
     42         16           0       -6.034258   -1.315356   -0.233212
     43          1           0       -4.112387   -4.021051   -2.748549
     44          1           0       -2.785469   -2.963347   -3.297559
     45          1           0       -2.525300   -4.095358   -1.938937
     46          6           0       -6.528263    0.571237    1.450935
     47          8           0       -4.223914    1.403114    1.869132
     48          6           0       -7.153077   -0.396351    0.715085
     49          1           0       -7.050711    1.248100    2.112366
     50          6           0       -4.722379    2.584747    2.473881
     51          1           0       -8.206632   -0.626377    0.677777
     52          1           0       -5.342888    2.357526    3.349225
     53          1           0       -3.848651    3.151019    2.794335
     54          1           0       -5.302511    3.181662    1.760939
 ---------------------------------------------------------------------

 The electronic state is 2-A.
 Alpha  occ. eigenvalues --  -88.80139 -88.77977 -19.08502 -19.08305 -18.99424
 Alpha  occ. eigenvalues --  -18.99336 -18.99074 -18.98901 -14.26385 -14.26010
 Alpha  occ. eigenvalues --  -10.17921 -10.17689 -10.17535 -10.17497 -10.16241
 Alpha  occ. eigenvalues --  -10.15885 -10.15811 -10.15091 -10.13392 -10.12665
 Alpha  occ. eigenvalues --  -10.11967 -10.11912 -10.11022 -10.10474 -10.10294
 Alpha  occ. eigenvalues --  -10.10165 -10.10123 -10.09907 -10.09090 -10.08678
 Alpha  occ. eigenvalues --  -10.08572 -10.08532 -10.08474 -10.08311 -10.07917
 Alpha  occ. eigenvalues --  -10.07856  -7.88694  -7.86535  -5.85003  -5.84621
 Alpha  occ. eigenvalues --   -5.84264  -5.82862  -5.82468  -5.82072  -1.00095
 Alpha  occ. eigenvalues --   -0.99690  -0.95486  -0.95263  -0.93419  -0.93171
 Alpha  occ. eigenvalues --   -0.83609  -0.83266  -0.81295  -0.79717  -0.78625
 Alpha  occ. eigenvalues --   -0.74067  -0.71599  -0.69853  -0.68286  -0.66745
 Alpha  occ. eigenvalues --   -0.66191  -0.65448  -0.63877  -0.63404  -0.61967
 Alpha  occ. eigenvalues --   -0.60985  -0.60291  -0.58605  -0.54880  -0.53980
 Alpha  occ. eigenvalues --   -0.53387  -0.52370  -0.51514  -0.49824  -0.48043
 Alpha  occ. eigenvalues --   -0.47606  -0.45998  -0.45813  -0.45147  -0.43011
 Alpha  occ. eigenvalues --   -0.41985  -0.40782  -0.40458  -0.40204  -0.39977
 Alpha  occ. eigenvalues --   -0.39233  -0.38220  -0.38033  -0.37836  -0.37498
 Alpha  occ. eigenvalues --   -0.36943  -0.36595  -0.36464  -0.35244  -0.34331
 Alpha  occ. eigenvalues --   -0.34087  -0.33682  -0.33473  -0.32904  -0.32582
 Alpha  occ. eigenvalues --   -0.32445  -0.32214  -0.31598  -0.30482  -0.30385
 Alpha  occ. eigenvalues --   -0.30212  -0.29945  -0.29827  -0.29604  -0.29211
 Alpha  occ. eigenvalues --   -0.28932  -0.28692  -0.27802  -0.27420  -0.26939
 Alpha  occ. eigenvalues --   -0.25994  -0.25529  -0.24982  -0.24353  -0.24183
 Alpha  occ. eigenvalues --   -0.22658  -0.20079  -0.19416  -0.18502  -0.17860
 Alpha  occ. eigenvalues --   -0.17640  -0.17103  -0.16840  -0.16245  -0.16029
 Alpha  occ. eigenvalues --   -0.15723  -0.14675  -0.13837  -0.10272  -0.05072
 Alpha virt. eigenvalues --    0.03158   0.04713   0.05826   0.06437   0.06785
 Alpha virt. eigenvalues --    0.07365   0.07450   0.08592   0.08882   0.09037
 Alpha virt. eigenvalues --    0.09251   0.09400   0.10042   0.10401   0.10633

  Beta  occ. eigenvalues --  -88.80138 -88.77970 -19.08495 -19.08310 -18.99240
  Beta  occ. eigenvalues --  -18.99135 -18.98888 -18.98689 -14.26435 -14.26061
  Beta  occ. eigenvalues --  -10.17873 -10.17643 -10.17491 -10.17453 -10.16241
  Beta  occ. eigenvalues --  -10.15868 -10.15811 -10.15108 -10.13403 -10.12648
  Beta  occ. eigenvalues --  -10.11941 -10.11931 -10.11028 -10.10473 -10.10185
  Beta  occ. eigenvalues --  -10.10179 -10.10164 -10.09961 -10.08899 -10.08641
  Beta  occ. eigenvalues --  -10.08422 -10.08359 -10.08308 -10.08259 -10.07834
  Beta  occ. eigenvalues --  -10.07773  -7.88693  -7.86528  -5.85002  -5.84620
  Beta  occ. eigenvalues --   -5.84260  -5.82854  -5.82461  -5.82057  -1.00079
  Beta  occ. eigenvalues --   -0.99700  -0.95248  -0.95018  -0.93091  -0.92835
  Beta  occ. eigenvalues --   -0.83494  -0.83151  -0.81275  -0.79612  -0.78530
  Beta  occ. eigenvalues --   -0.73753  -0.71293  -0.69763  -0.68255  -0.66676
  Beta  occ. eigenvalues --   -0.66054  -0.65031  -0.63811  -0.63348  -0.61942
  Beta  occ. eigenvalues --   -0.60933  -0.60064  -0.58305  -0.54734  -0.53797
  Beta  occ. eigenvalues --   -0.53269  -0.52253  -0.51448  -0.49762  -0.48023
  Beta  occ. eigenvalues --   -0.47548  -0.45978  -0.45689  -0.45023  -0.42858
  Beta  occ. eigenvalues --   -0.41890  -0.40761  -0.40414  -0.40210  -0.39945
  Beta  occ. eigenvalues --   -0.39082  -0.38004  -0.37966  -0.37648  -0.37471
  Beta  occ. eigenvalues --   -0.36859  -0.36473  -0.36408  -0.35159  -0.34177
  Beta  occ. eigenvalues --   -0.34025  -0.33564  -0.33417  -0.32847  -0.32420
  Beta  occ. eigenvalues --   -0.32206  -0.31962  -0.31467  -0.30276  -0.30152
  Beta  occ. eigenvalues --   -0.30063  -0.29773  -0.29614  -0.29037  -0.28960
  Beta  occ. eigenvalues --   -0.28655  -0.28149  -0.27743  -0.27167  -0.26696
  Beta  occ. eigenvalues --   -0.25923  -0.25506  -0.24856  -0.24260  -0.24118
  Beta  occ. eigenvalues --   -0.21936  -0.19813  -0.18470  -0.18310  -0.17512
  Beta  occ. eigenvalues --   -0.17186  -0.16791  -0.16648  -0.16032  -0.15574
  Beta  occ. eigenvalues --   -0.15452  -0.14544  -0.12379  -0.10024
  Beta virt. eigenvalues --   -0.00637   0.03402   0.05771   0.05828   0.06752
  Beta virt. eigenvalues --    0.06869   0.07384   0.08231   0.08600   0.08919
  Beta virt. eigenvalues --    0.09090   0.09353   0.09429   0.10053   0.10406

 Mulliken charges and spin densities:
               1          2
     1  C    0.314856   0.018200
     2  C   -0.113875   0.128079
     3  C    0.112847  -0.039324
     4  C    0.219229   0.102753
     5  C    0.174827   0.018797
     6  C   -0.271323   0.040069
     7  C    0.181450  -0.036468
     8  C    0.076075   0.145480
     9  C    0.288140   0.071116
    10  C   -0.455579   0.014566
    11  C    0.252297   0.018635
    12  C    0.090137   0.111530
    13  C   -0.468989   0.056154
    14  C   -0.575359   0.068381
    15  H    0.129864  -0.004807
    16  H    0.131383  -0.004041
    17  H    0.141221  -0.002312
    18  N   -0.062126  -0.020118
    19  N   -0.142874  -0.020423
    20  O   -0.358910   0.075217
    21  O   -0.347600   0.068908
    22  O   -0.352770   0.069823
    23  O   -0.276068   0.080298
    24  C   -0.171831   0.001469
    25  H    0.154810  -0.001119
    26  H    0.159542  -0.000671
    27  H    0.168881  -0.000387
    28  C   -0.187898   0.001286
    29  H    0.153770  -0.000935
    30  H    0.151958  -0.000910
    31  H    0.169107  -0.000347
    32  C    0.247931  -0.014493
    33  C   -0.652887   0.027537
    34  S   -0.598084   0.014017
    35  C   -0.032385  -0.010803
    36  H    0.122882  -0.001240
    37  C    0.586681   0.014825
    38  O   -0.138409  -0.000695
    39  C    0.828865  -0.008381
    40  C   -0.223060   0.000018
    41  C   -0.074687   0.012752
    42  S   -0.277776   0.000944
    43  H    0.148871   0.000000
    44  H    0.144493  -0.000138
    45  H    0.146652  -0.000087
    46  C   -0.476900  -0.005355
    47  O   -0.126445   0.000690
    48  C   -0.327077   0.011820
    49  H    0.113484   0.000233
    50  C   -0.262504  -0.000155
    51  H    0.141200  -0.000729
    52  H    0.123181   0.000125
    53  H    0.159626   0.000027
    54  H    0.141157   0.000184
 Sum of Mulliken charges =  -1.00000   1.00000

 Dipole moment (field-independent basis, Debye):
    X=            -11.2814    Y=             -1.0606    Z=              0.0803  Tot=             11.3314
 Quadrupole moment (field-independent basis, Debye-Ang):
   XX=           -313.6688   YY=           -261.9917   ZZ=           -225.6092
   XY=             -8.9611   XZ=            -12.4044   YZ=             17.9768

 Normal termination of Gaussian 16 at Tue Oct  5 22:48:10 2021.
