 Gaussian 16, Revision C.01,
 Gaussian 16:  ES64L-G16RevC.01  3-Jul-2019

 -------------------------------------
 # opt=modredundant b3lyp/6-311+g(d,p)
 -------------------------------------

 ----------
 NDI_70.pdb
 ----------
 Symbolic Z-matrix:
 Charge = -1 Multiplicity = 2

 SCF Done:  E(UB3LYP) =  -2359.41971360     A.U. after   22 cycles
 SCF Done:  E(UB3LYP) =  -2359.42611697     A.U. after   17 cycles
 SCF Done:  E(UB3LYP) =  -2359.42745982     A.U. after   19 cycles
 SCF Done:  E(UB3LYP) =  -2359.42774990     A.U. after   17 cycles
 SCF Done:  E(UB3LYP) =  -2359.42792697     A.U. after   17 cycles
 SCF Done:  E(UB3LYP) =  -2359.42802422     A.U. after   14 cycles
 SCF Done:  E(UB3LYP) =  -2359.42807813     A.U. after   16 cycles
 SCF Done:  E(UB3LYP) =  -2359.42811384     A.U. after   15 cycles
 SCF Done:  E(UB3LYP) =  -2359.42812911     A.U. after   14 cycles
 SCF Done:  E(UB3LYP) =  -2359.42814311     A.U. after   14 cycles
 SCF Done:  E(UB3LYP) =  -2359.42825066     A.U. after   11 cycles
 SCF Done:  E(UB3LYP) =  -2359.42825071     A.U. after   11 cycles
 SCF Done:  E(UB3LYP) =  -2359.42825075     A.U. after   11 cycles
 SCF Done:  E(UB3LYP) =  -2359.42825079     A.U. after   11 cycles
 SCF Done:  E(UB3LYP) =  -2359.42825085     A.U. after   11 cycles
 SCF Done:  E(UB3LYP) =  -2359.42825089     A.U. after    9 cycles
 SCF Done:  E(UB3LYP) =  -2359.42825094     A.U. after    9 cycles
 SCF Done:  E(UB3LYP) =  -2359.42825096     A.U. after   10 cycles
 SCF Done:  E(UB3LYP) =  -2359.42825096     A.U. after    9 cycles
 SCF Done:  E(UB3LYP) =  -2359.42825096     A.U. after    8 cycles
 Optimization completed.
    -- Stationary point found.

                         Standard orientation:
 ---------------------------------------------------------------------
 Center     Atomic      Atomic             Coordinates (Angstroms)
 Number     Number       Type             X           Y           Z
 ---------------------------------------------------------------------
      1          6           0       -3.000551   -2.863936    0.590047
      2          6           0       -2.500533   -1.514038    0.352585
      3          6           0       -3.397245   -0.462862    0.050847
      4          6           0       -4.790708   -0.695736   -0.028863
      5          6           0       -5.331321   -2.032983    0.202798
      6          6           0       -1.126534   -1.255201    0.446411
      7          6           0       -2.874195    0.853578   -0.181854
      8          6           0       -1.471324    1.091189   -0.100877
      9          6           0       -0.597305    0.016216    0.251275
     10          6           0       -0.965916    2.425109   -0.428808
     11          6           0       -3.314885    3.244843   -0.760493
     12          6           0       -3.788198    1.891449   -0.496813
     13          6           0       -5.170915    1.630296   -0.565485
     14          6           0       -5.666004    0.363022   -0.335911
     15          1           0       -6.726735    0.152930   -0.389000
     16          1           0       -5.828424    2.455968   -0.806664
     17          1           0       -0.472866   -2.076572    0.711122
     18          7           0       -1.923702    3.421767   -0.714265
     19          7           0       -4.392417   -3.041638    0.498013
     20          8           0       -2.284925   -3.829999    0.860919
     21          8           0       -6.534216   -2.297409    0.149835
     22          8           0       -4.062242    4.191612   -1.019494
     23          8           0        0.224059    2.737000   -0.479598
     24          6           0       -1.386008    4.748638   -1.018468
     25          1           0       -0.787502    5.110123   -0.180371
     26          1           0       -0.736109    4.697738   -1.893984
     27          1           0       -2.227587    5.409845   -1.203082
     28          6           0       -4.883564   -4.399124    0.736891
     29          1           0       -4.431138   -5.089914    0.023063
     30          1           0       -4.605030   -4.726018    1.740576
     31          1           0       -5.963791   -4.384294    0.625149
     32          6           0        0.861569    0.171662    0.451171
     33          6           0        1.524895    0.811542    1.464037
     34         16           0        1.975596   -0.646634   -0.606209
     35          6           0        2.932516    0.668932    1.379660
     36          1           0        1.009926    1.383060    2.221664
     37          6           0        3.374189   -0.097811    0.312417
     38          8           0        3.845095    1.198939    2.251092
     39          6           0        4.732226   -0.420343   -0.047412
     40          6           0        3.378564    2.171871    3.175494
     41          6           0        5.181489   -1.196391   -1.106520
     42         16           0        6.122441    0.170377    0.858012
     43          1           0        4.261524    2.537022    3.699806
     44          1           0        2.886270    3.002575    2.659568
     45          1           0        2.685226    1.731761    3.900880
     46          6           0        6.597359   -1.314721   -1.193155
     47          8           0        4.272133   -1.762928   -1.956004
     48          6           0        7.236074   -0.628595   -0.197809
     49          1           0        7.116708   -1.879660   -1.954256
     50          6           0        4.760597   -2.588982   -2.997540
     51          1           0        8.297659   -0.547939   -0.022547
     52          1           0        5.316740   -3.446830   -2.600950
     53          1           0        3.882734   -2.946658   -3.534190
     54          1           0        5.401787   -2.027413   -3.687607
 ---------------------------------------------------------------------

 The electronic state is 2-A.
 Alpha  occ. eigenvalues --  -88.80110 -88.78280 -19.08670 -19.08123 -18.99334
 Alpha  occ. eigenvalues --  -18.99224 -18.99104 -18.98951 -14.26304 -14.26114
 Alpha  occ. eigenvalues --  -10.17832 -10.17609 -10.17588 -10.17569 -10.16417
 Alpha  occ. eigenvalues --  -10.15923 -10.15593 -10.15002 -10.13353 -10.12606
 Alpha  occ. eigenvalues --  -10.11867 -10.11802 -10.11031 -10.10397 -10.10286
 Alpha  occ. eigenvalues --  -10.10226 -10.10177 -10.09944 -10.09287 -10.08534
 Alpha  occ. eigenvalues --  -10.08512 -10.08491 -10.08436 -10.08209 -10.07914
 Alpha  occ. eigenvalues --  -10.07848  -7.88664  -7.86834  -5.84973  -5.84590
 Alpha  occ. eigenvalues --   -5.84234  -5.83156  -5.82764  -5.82383  -1.00256
 Alpha  occ. eigenvalues --   -0.99505  -0.95403  -0.95312  -0.93328  -0.93207
 Alpha  occ. eigenvalues --   -0.83538  -0.83301  -0.81287  -0.79716  -0.78635
 Alpha  occ. eigenvalues --   -0.74039  -0.71603  -0.69802  -0.68341  -0.66785
 Alpha  occ. eigenvalues --   -0.65959  -0.65503  -0.63900  -0.63418  -0.61975
 Alpha  occ. eigenvalues --   -0.60985  -0.60298  -0.58544  -0.54908  -0.53930
 Alpha  occ. eigenvalues --   -0.53415  -0.52245  -0.51586  -0.49844  -0.48150
 Alpha  occ. eigenvalues --   -0.47503  -0.45905  -0.45799  -0.45154  -0.42977
 Alpha  occ. eigenvalues --   -0.41718  -0.40895  -0.40860  -0.40044  -0.39908
 Alpha  occ. eigenvalues --   -0.39264  -0.38164  -0.37972  -0.37838  -0.37502
 Alpha  occ. eigenvalues --   -0.36952  -0.36546  -0.36515  -0.34958  -0.34462
 Alpha  occ. eigenvalues --   -0.34131  -0.33734  -0.33353  -0.32962  -0.32574
 Alpha  occ. eigenvalues --   -0.32392  -0.32250  -0.31566  -0.30475  -0.30273
 Alpha  occ. eigenvalues --   -0.30164  -0.30003  -0.29819  -0.29424  -0.29180
 Alpha  occ. eigenvalues --   -0.29132  -0.28772  -0.27801  -0.27205  -0.27040
 Alpha  occ. eigenvalues --   -0.26018  -0.25627  -0.24890  -0.24262  -0.24102
 Alpha  occ. eigenvalues --   -0.22856  -0.19986  -0.19504  -0.18411  -0.17808
 Alpha  occ. eigenvalues --   -0.17650  -0.17123  -0.16809  -0.16229  -0.16070
 Alpha  occ. eigenvalues --   -0.15650  -0.14721  -0.13869  -0.10236  -0.05105
 Alpha virt. eigenvalues --    0.03494   0.04679   0.05744   0.06561   0.06788
 Alpha virt. eigenvalues --    0.07312   0.07458   0.08549   0.08728   0.08998
 Alpha virt. eigenvalues --    0.09156   0.09463   0.09824   0.10229   0.10682

  Beta  occ. eigenvalues --  -88.80109 -88.78275 -19.08668 -19.08124 -18.99142
  Beta  occ. eigenvalues --  -18.99018 -18.98912 -18.98731 -14.26356 -14.26167
  Beta  occ. eigenvalues --  -10.17783 -10.17563 -10.17543 -10.17521 -10.16417
  Beta  occ. eigenvalues --  -10.15916 -10.15593 -10.15010 -10.13358 -10.12599
  Beta  occ. eigenvalues --  -10.11849 -10.11820 -10.11034 -10.10396 -10.10234
  Beta  occ. eigenvalues --  -10.10225 -10.10178 -10.10000 -10.09100 -10.08415
  Beta  occ. eigenvalues --  -10.08374 -10.08331 -10.08326 -10.08154 -10.07827
  Beta  occ. eigenvalues --  -10.07765  -7.88663  -7.86830  -5.84972  -5.84589
  Beta  occ. eigenvalues --   -5.84232  -5.83151  -5.82759  -5.82377  -1.00250
  Beta  occ. eigenvalues --   -0.99507  -0.95157  -0.95060  -0.92990  -0.92859
  Beta  occ. eigenvalues --   -0.83417  -0.83183  -0.81274  -0.79612  -0.78539
  Beta  occ. eigenvalues --   -0.73718  -0.71292  -0.69726  -0.68309  -0.66704
  Beta  occ. eigenvalues --   -0.65835  -0.65082  -0.63835  -0.63361  -0.61956
  Beta  occ. eigenvalues --   -0.60932  -0.60061  -0.58247  -0.54763  -0.53726
  Beta  occ. eigenvalues --   -0.53325  -0.52060  -0.51566  -0.49797  -0.48137
  Beta  occ. eigenvalues --   -0.47439  -0.45898  -0.45671  -0.45028  -0.42815
  Beta  occ. eigenvalues --   -0.41603  -0.40885  -0.40838  -0.40043  -0.39890
  Beta  occ. eigenvalues --   -0.39099  -0.37927  -0.37923  -0.37647  -0.37482
  Beta  occ. eigenvalues --   -0.36857  -0.36478  -0.36408  -0.34889  -0.34329
  Beta  occ. eigenvalues --   -0.34019  -0.33638  -0.33291  -0.32934  -0.32408
  Beta  occ. eigenvalues --   -0.32161  -0.31948  -0.31463  -0.30115  -0.30089
  Beta  occ. eigenvalues --   -0.30039  -0.29741  -0.29669  -0.29087  -0.28937
  Beta  occ. eigenvalues --   -0.28651  -0.28189  -0.27773  -0.26986  -0.26748
  Beta  occ. eigenvalues --   -0.25998  -0.25602  -0.24819  -0.24157  -0.24091
  Beta  occ. eigenvalues --   -0.21972  -0.19829  -0.18522  -0.18222  -0.17486
  Beta  occ. eigenvalues --   -0.17111  -0.16745  -0.16677  -0.15914  -0.15689
  Beta  occ. eigenvalues --   -0.15434  -0.14606  -0.12316  -0.10132
  Beta virt. eigenvalues --   -0.00548   0.03609   0.05744   0.05804   0.06787
  Beta virt. eigenvalues --    0.07060   0.07329   0.08231   0.08574   0.08852
  Beta virt. eigenvalues --    0.09005   0.09164   0.09467   0.09832   0.10235

 Mulliken charges and spin densities:
               1          2
     1  C    0.362716   0.016156
     2  C   -0.097021   0.133720
     3  C    0.135798  -0.040514
     4  C    0.182140   0.112362
     5  C    0.210853   0.017400
     6  C   -0.742053   0.046708
     7  C    0.196842  -0.035998
     8  C    0.127900   0.138623
     9  C    0.651774   0.072635
    10  C   -0.450999   0.020122
    11  C    0.234218   0.019481
    12  C    0.148566   0.112204
    13  C   -0.534149   0.061953
    14  C   -0.620141   0.065386
    15  H    0.129807  -0.004644
    16  H    0.131189  -0.004388
    17  H    0.146485  -0.002959
    18  N   -0.158277  -0.020947
    19  N   -0.146150  -0.020656
    20  O   -0.353811   0.077218
    21  O   -0.348731   0.071649
    22  O   -0.350347   0.071874
    23  O   -0.184336   0.082481
    24  C   -0.194706   0.001328
    25  H    0.152414  -0.000920
    26  H    0.157333  -0.001017
    27  H    0.170634  -0.000369
    28  C   -0.190430   0.001336
    29  H    0.153112  -0.000918
    30  H    0.153092  -0.000957
    31  H    0.169301  -0.000358
    32  C    0.165415  -0.023005
    33  C   -0.467680   0.010411
    34  S   -0.356052   0.006409
    35  C   -0.411702  -0.002539
    36  H    0.103414  -0.001128
    37  C    0.513924   0.019611
    38  O   -0.129194  -0.000388
    39  C    0.911342  -0.004574
    40  C   -0.247724   0.000373
    41  C    0.008855   0.003373
    42  S   -0.282795   0.000680
    43  H    0.146822  -0.000007
    44  H    0.158885   0.000042
    45  H    0.136182  -0.000054
    46  C   -0.496808  -0.003049
    47  O   -0.126368   0.001007
    48  C   -0.309610   0.004814
    49  H    0.115744   0.000099
    50  C   -0.240500   0.000099
    51  H    0.140481  -0.000299
    52  H    0.131740   0.000055
    53  H    0.161520   0.000016
    54  H    0.131083   0.000065
 Sum of Mulliken charges =  -1.00000   1.00000

 Dipole moment (field-independent basis, Debye):
    X=             11.3897    Y=             -0.3365    Z=              0.4136  Tot=             11.4022
 Quadrupole moment (field-independent basis, Debye-Ang):
   XX=           -318.1453   YY=           -266.8760   ZZ=           -217.8621
   XY=             -3.4705   XZ=             -9.2270   YZ=             21.4107

 Normal termination of Gaussian 16 at Tue Oct  5 22:23:50 2021.
