 Gaussian 16, Revision C.01,
 Gaussian 16:  ES64L-G16RevC.01  3-Jul-2019

 -------------------------------------
 # opt=modredundant b3lyp/6-311+g(d,p)
 -------------------------------------

 ----------
 NDI_95.pdb
 ----------
 Symbolic Z-matrix:
 Charge = -1 Multiplicity = 2

 SCF Done:  E(UB3LYP) =  -2359.41949124     A.U. after   23 cycles
 SCF Done:  E(UB3LYP) =  -2359.42610451     A.U. after   19 cycles
 SCF Done:  E(UB3LYP) =  -2359.42727293     A.U. after   19 cycles
 SCF Done:  E(UB3LYP) =  -2359.42733938     A.U. after   16 cycles
 SCF Done:  E(UB3LYP) =  -2359.42754789     A.U. after   14 cycles
 SCF Done:  E(UB3LYP) =  -2359.42758064     A.U. after   16 cycles
 SCF Done:  E(UB3LYP) =  -2359.42761073     A.U. after   14 cycles
 SCF Done:  E(UB3LYP) =  -2359.42762728     A.U. after   13 cycles
 SCF Done:  E(UB3LYP) =  -2359.42763939     A.U. after   12 cycles
 SCF Done:  E(UB3LYP) =  -2359.42765362     A.U. after   12 cycles
 SCF Done:  E(UB3LYP) =  -2359.42774302     A.U. after   10 cycles
 SCF Done:  E(UB3LYP) =  -2359.42774335     A.U. after   11 cycles
 SCF Done:  E(UB3LYP) =  -2359.42774374     A.U. after   11 cycles
 SCF Done:  E(UB3LYP) =  -2359.42774423     A.U. after   11 cycles
 SCF Done:  E(UB3LYP) =  -2359.42774483     A.U. after   11 cycles
 SCF Done:  E(UB3LYP) =  -2359.42774605     A.U. after   12 cycles
 SCF Done:  E(UB3LYP) =  -2359.42774706     A.U. after   12 cycles
 SCF Done:  E(UB3LYP) =  -2359.42774762     A.U. after   12 cycles
 SCF Done:  E(UB3LYP) =  -2359.42774776     A.U. after   11 cycles
 SCF Done:  E(UB3LYP) =  -2359.42774778     A.U. after    9 cycles
 Optimization completed.
    -- Stationary point found.

                         Standard orientation:
 ---------------------------------------------------------------------
 Center     Atomic      Atomic             Coordinates (Angstroms)
 Number     Number       Type             X           Y           Z
 ---------------------------------------------------------------------
      1          6           0        3.298136   -2.822438   -0.128433
      2          6           0        2.663271   -1.509347   -0.138228
      3          6           0        3.436444   -0.341406    0.056110
      4          6           0        4.833709   -0.419379    0.268368
      5          6           0        5.506119   -1.715453    0.290890
      6          6           0        1.278625   -1.405948   -0.338282
      7          6           0        2.785448    0.937628    0.033068
      8          6           0        1.380428    1.019186   -0.183089
      9          6           0        0.627333   -0.179324   -0.364696
     10          6           0        0.749451    2.337967   -0.234218
     11          6           0        2.967189    3.424035    0.209592
     12          6           0        3.575808    2.099189    0.226885
     13          6           0        4.964594    1.989739    0.437953
     14          6           0        5.583924    0.756752    0.458796
     15          1           0        6.650568    0.663895    0.619568
     16          1           0        5.526615    2.903845    0.582134
     17          1           0        0.713104   -2.319421   -0.471931
     18          7           0        1.582268    3.455592   -0.018820
     19          7           0        4.687112   -2.845055    0.089640
     20          8           0        2.695611   -3.884507   -0.297450
     21          8           0        6.718369   -1.849022    0.471991
     22          8           0        3.601067    4.468867    0.378084
     23          8           0       -0.445759    2.536398   -0.452344
     24          6           0        0.917503    4.758928   -0.059828
     25          1           0        0.476493    4.925183   -1.044793
     26          1           0        0.111450    4.787780    0.674956
     27          1           0        1.665241    5.516500    0.155837
     28          6           0        5.313470   -4.167352    0.101670
     29          1           0        4.863007   -4.785859    0.880126
     30          1           0        5.152281   -4.665953   -0.856074
     31          1           0        6.374577   -4.028769    0.287305
     32          6           0       -0.840892   -0.204409   -0.584649
     33          6           0       -1.511636   -0.250648   -1.776109
     34         16           0       -1.939195   -0.312834    0.759312
     35          6           0       -2.920137   -0.338018   -1.613740
     36          1           0       -1.003506   -0.193542   -2.727491
     37          6           0       -3.346915   -0.381659   -0.297278
     38          8           0       -3.842189   -0.392146   -2.623967
     39          6           0       -4.700138   -0.462964    0.195264
     40          6           0       -3.380046   -0.167644   -3.947636
     41          6           0       -5.135146   -0.524780    1.510955
     42         16           0       -6.101206   -0.480354   -0.871363
     43          1           0       -4.265433   -0.185489   -4.582878
     44          1           0       -2.885954    0.805808   -4.034829
     45          1           0       -2.689818   -0.955912   -4.268200
     46          6           0       -6.549740   -0.574950    1.663759
     47          8           0       -4.215900   -0.550778    2.523114
     48          6           0       -7.201092   -0.556040    0.462113
     49          1           0       -7.058445   -0.624369    2.616176
     50          6           0       -4.684964   -0.379195    3.848968
     51          1           0       -8.264623   -0.585689    0.282518
     52          1           0       -5.321154   -1.216034    4.161842
     53          1           0       -3.797905   -0.350093    4.480650
     54          1           0       -5.239811    0.560063    3.957512
 ---------------------------------------------------------------------

 The electronic state is 2-A.
 Alpha  occ. eigenvalues --  -88.80116 -88.78142 -19.08602 -19.08218 -18.99265
 Alpha  occ. eigenvalues --  -18.99173 -18.99073 -18.98973 -14.26256 -14.26082
 Alpha  occ. eigenvalues --  -10.17764 -10.17553 -10.17544 -10.17535 -10.16372
 Alpha  occ. eigenvalues --  -10.15889 -10.15739 -10.15038 -10.13357 -10.12617
 Alpha  occ. eigenvalues --  -10.11857 -10.11842 -10.11023 -10.10356 -10.10185
 Alpha  occ. eigenvalues --  -10.10162 -10.10124 -10.09928 -10.09258 -10.08531
 Alpha  occ. eigenvalues --  -10.08479 -10.08477 -10.08463 -10.08182 -10.07890
 Alpha  occ. eigenvalues --  -10.07820  -7.88671  -7.86699  -5.84979  -5.84597
 Alpha  occ. eigenvalues --   -5.84240  -5.83025  -5.82631  -5.82240  -1.00183
 Alpha  occ. eigenvalues --   -0.99601  -0.95337  -0.95284  -0.93259  -0.93187
 Alpha  occ. eigenvalues --   -0.83483  -0.83280  -0.81276  -0.79686  -0.78613
 Alpha  occ. eigenvalues --   -0.74013  -0.71574  -0.69793  -0.68312  -0.66740
 Alpha  occ. eigenvalues --   -0.66044  -0.65442  -0.63875  -0.63378  -0.61963
 Alpha  occ. eigenvalues --   -0.60946  -0.60264  -0.58582  -0.54838  -0.53911
 Alpha  occ. eigenvalues --   -0.53358  -0.52214  -0.51603  -0.49834  -0.48105
 Alpha  occ. eigenvalues --   -0.47545  -0.45940  -0.45772  -0.45119  -0.42916
 Alpha  occ. eigenvalues --   -0.41682  -0.40903  -0.40769  -0.40142  -0.40004
 Alpha  occ. eigenvalues --   -0.39238  -0.38128  -0.37995  -0.37802  -0.37503
 Alpha  occ. eigenvalues --   -0.36920  -0.36533  -0.36462  -0.34990  -0.34497
 Alpha  occ. eigenvalues --   -0.34112  -0.33694  -0.33395  -0.32937  -0.32530
 Alpha  occ. eigenvalues --   -0.32303  -0.32256  -0.31604  -0.30432  -0.30181
 Alpha  occ. eigenvalues --   -0.30094  -0.30052  -0.29810  -0.29414  -0.29134
 Alpha  occ. eigenvalues --   -0.29029  -0.28769  -0.27800  -0.27130  -0.27046
 Alpha  occ. eigenvalues --   -0.25966  -0.25633  -0.24654  -0.24261  -0.24209
 Alpha  occ. eigenvalues --   -0.22737  -0.19840  -0.19553  -0.18359  -0.17760
 Alpha  occ. eigenvalues --   -0.17597  -0.17088  -0.16681  -0.16288  -0.16036
 Alpha  occ. eigenvalues --   -0.15468  -0.14920  -0.13838  -0.10276  -0.05089
 Alpha virt. eigenvalues --    0.03669   0.04633   0.05763   0.06666   0.06813
 Alpha virt. eigenvalues --    0.07278   0.07487   0.08355   0.08631   0.08981
 Alpha virt. eigenvalues --    0.09121   0.09476   0.09812   0.10333   0.10564

  Beta  occ. eigenvalues --  -88.80116 -88.78137 -19.08602 -19.08218 -18.99069
  Beta  occ. eigenvalues --  -18.98965 -18.98879 -18.98746 -14.26308 -14.26136
  Beta  occ. eigenvalues --  -10.17713 -10.17510 -10.17496 -10.17489 -10.16372
  Beta  occ. eigenvalues --  -10.15890 -10.15739 -10.15037 -10.13356 -10.12617
  Beta  occ. eigenvalues --  -10.11864 -10.11841 -10.11023 -10.10356 -10.10182
  Beta  occ. eigenvalues --  -10.10162 -10.10080 -10.09985 -10.09068 -10.08523
  Beta  occ. eigenvalues --  -10.08316 -10.08298 -10.08293 -10.08121 -10.07802
  Beta  occ. eigenvalues --  -10.07737  -7.88671  -7.86694  -5.84979  -5.84596
  Beta  occ. eigenvalues --   -5.84240  -5.83017  -5.82624  -5.82236  -1.00182
  Beta  occ. eigenvalues --   -0.99599  -0.95088  -0.95026  -0.92916  -0.92832
  Beta  occ. eigenvalues --   -0.83360  -0.83160  -0.81268  -0.79581  -0.78519
  Beta  occ. eigenvalues --   -0.73688  -0.71259  -0.69720  -0.68286  -0.66666
  Beta  occ. eigenvalues --   -0.65908  -0.65006  -0.63825  -0.63322  -0.61950
  Beta  occ. eigenvalues --   -0.60893  -0.60035  -0.58272  -0.54691  -0.53709
  Beta  occ. eigenvalues --   -0.53261  -0.52046  -0.51576  -0.49783  -0.48095
  Beta  occ. eigenvalues --   -0.47482  -0.45933  -0.45645  -0.44990  -0.42751
  Beta  occ. eigenvalues --   -0.41567  -0.40890  -0.40752  -0.40140  -0.39985
  Beta  occ. eigenvalues --   -0.39074  -0.37952  -0.37883  -0.37610  -0.37484
  Beta  occ. eigenvalues --   -0.36827  -0.36419  -0.36399  -0.34921  -0.34357
  Beta  occ. eigenvalues --   -0.34003  -0.33606  -0.33324  -0.32918  -0.32366
  Beta  occ. eigenvalues --   -0.32082  -0.31949  -0.31490  -0.30083  -0.30029
  Beta  occ. eigenvalues --   -0.30007  -0.29744  -0.29635  -0.29043  -0.28889
  Beta  occ. eigenvalues --   -0.28609  -0.28129  -0.27778  -0.26922  -0.26734
  Beta  occ. eigenvalues --   -0.25959  -0.25611  -0.24598  -0.24219  -0.24113
  Beta  occ. eigenvalues --   -0.21800  -0.19808  -0.18502  -0.18167  -0.17433
  Beta  occ. eigenvalues --   -0.17039  -0.16708  -0.16629  -0.15845  -0.15650
  Beta  occ. eigenvalues --   -0.15282  -0.14842  -0.12228  -0.10264
  Beta virt. eigenvalues --   -0.00438   0.03674   0.05762   0.05836   0.06748
  Beta virt. eigenvalues --    0.07223   0.07348   0.08330   0.08371   0.08650
  Beta virt. eigenvalues --    0.08984   0.09130   0.09479   0.09819   0.10337

 Mulliken charges and spin densities:
               1          2
     1  C    0.359228   0.016256
     2  C    0.035843   0.136581
     3  C    0.170055  -0.042190
     4  C    0.197152   0.115142
     5  C    0.208367   0.017774
     6  C   -0.773802   0.043851
     7  C    0.197399  -0.037221
     8  C   -0.066347   0.142720
     9  C    0.591441   0.079973
    10  C   -0.362178   0.017126
    11  C    0.185183   0.019701
    12  C    0.227917   0.117961
    13  C   -0.569184   0.058729
    14  C   -0.626327   0.067632
    15  H    0.129790  -0.004783
    16  H    0.131252  -0.004376
    17  H    0.134941  -0.003227
    18  N   -0.162710  -0.021047
    19  N   -0.147809  -0.020918
    20  O   -0.352541   0.077690
    21  O   -0.349996   0.073111
    22  O   -0.346973   0.072984
    23  O   -0.185009   0.085210
    24  C   -0.211984   0.001319
    25  H    0.152692  -0.001032
    26  H    0.157323  -0.000933
    27  H    0.170422  -0.000375
    28  C   -0.191589   0.001441
    29  H    0.153452  -0.000950
    30  H    0.152276  -0.000962
    31  H    0.169138  -0.000369
    32  C    0.339789  -0.033501
    33  C   -0.736958   0.021249
    34  S   -0.119738   0.009551
    35  C   -0.378556  -0.004495
    36  H    0.100770  -0.000113
    37  C    0.274497  -0.005303
    38  O   -0.129913  -0.000064
    39  C    0.967588   0.002792
    40  C   -0.246178   0.001016
    41  C    0.073974   0.001749
    42  S   -0.286030   0.000117
    43  H    0.147970  -0.000013
    44  H    0.154504   0.000062
    45  H    0.138904  -0.000011
    46  C   -0.439478   0.000219
    47  O   -0.135961  -0.000026
    48  C   -0.331306  -0.000195
    49  H    0.114726  -0.000004
    50  C   -0.250256   0.000133
    51  H    0.140516   0.000019
    52  H    0.125025  -0.000000
    53  H    0.159560   0.000005
    54  H    0.139131  -0.000003
 Sum of Mulliken charges =  -1.00000   1.00000

 Dipole moment (field-independent basis, Debye):
    X=            -11.4477    Y=             -0.4356    Z=             -0.3069  Tot=             11.4600
 Quadrupole moment (field-independent basis, Debye-Ang):
   XX=           -317.7456   YY=           -277.9090   ZZ=           -207.4282
   XY=             -2.2203   XZ=            -12.6061   YZ=             -2.8396

 Normal termination of Gaussian 16 at Tue Oct  5 19:42:51 2021.
