 Gaussian 16, Revision C.01,
 Gaussian 16:  ES64L-G16RevC.01  3-Jul-2019

 -------------------------------------
 # opt=modredundant b3lyp/6-311+g(d,p)
 -------------------------------------

 -----------
 NDI_-50.pdb
 -----------
 Symbolic Z-matrix:
 Charge = -1 Multiplicity = 2

 SCF Done:  E(UB3LYP) =  -2359.42399557     A.U. after   22 cycles
 SCF Done:  E(UB3LYP) =  -2359.42796053     A.U. after   19 cycles
 SCF Done:  E(UB3LYP) =  -2359.42829784     A.U. after   18 cycles
 SCF Done:  E(UB3LYP) =  -2359.42875447     A.U. after   16 cycles
 SCF Done:  E(UB3LYP) =  -2359.42890364     A.U. after   16 cycles
 SCF Done:  E(UB3LYP) =  -2359.42893722     A.U. after   14 cycles
 SCF Done:  E(UB3LYP) =  -2359.42894520     A.U. after   15 cycles
 SCF Done:  E(UB3LYP) =  -2359.42895272     A.U. after   15 cycles
 SCF Done:  E(UB3LYP) =  -2359.42895613     A.U. after   15 cycles
 SCF Done:  E(UB3LYP) =  -2359.42895791     A.U. after   12 cycles
 SCF Done:  E(UB3LYP) =  -2359.42896615     A.U. after   10 cycles
 SCF Done:  E(UB3LYP) =  -2359.42896667     A.U. after   11 cycles
 SCF Done:  E(UB3LYP) =  -2359.42896691     A.U. after   11 cycles
 SCF Done:  E(UB3LYP) =  -2359.42896703     A.U. after   11 cycles
 SCF Done:  E(UB3LYP) =  -2359.42896705     A.U. after    9 cycles
 SCF Done:  E(UB3LYP) =  -2359.42896706     A.U. after   10 cycles
 SCF Done:  E(UB3LYP) =  -2359.42896709     A.U. after   10 cycles
 SCF Done:  E(UB3LYP) =  -2359.42896710     A.U. after    9 cycles
 SCF Done:  E(UB3LYP) =  -2359.42896712     A.U. after    9 cycles
 SCF Done:  E(UB3LYP) =  -2359.42896712     A.U. after    9 cycles
 Optimization completed.
    -- Stationary point found.

                         Standard orientation:
 ---------------------------------------------------------------------
 Center     Atomic      Atomic             Coordinates (Angstroms)
 Number     Number       Type             X           Y           Z
 ---------------------------------------------------------------------
      1          6           0        2.766796   -2.937400    0.514797
      2          6           0        2.373735   -1.550927    0.282831
      3          6           0        3.354934   -0.553220    0.077089
      4          6           0        4.731484   -0.876441    0.091302
      5          6           0        5.166841   -2.252983    0.321384
      6          6           0        1.019723   -1.203884    0.301691
      7          6           0        2.931447    0.798989   -0.154581
      8          6           0        1.542306    1.128395   -0.168687
      9          6           0        0.575745    0.104058    0.107849
     10          6           0        1.159608    2.490075   -0.546705
     11          6           0        3.575529    3.164319   -0.646119
     12          6           0        3.934372    1.777699   -0.376493
     13          6           0        5.298651    1.428361   -0.350019
     14          6           0        5.694688    0.127214   -0.119879
     15          1           0        6.740654   -0.151239   -0.101507
     16          1           0        6.022399    2.215230   -0.520872
     17          1           0        0.306816   -1.987629    0.522723
     18          7           0        2.201515    3.427860   -0.723568
     19          7           0        4.146996   -3.205162    0.516035
     20          8           0        1.972559   -3.859980    0.704412
     21          8           0        6.350827   -2.593712    0.347991
     22          8           0        4.402323    4.064405   -0.814834
     23          8           0        0.005909    2.881023   -0.730304
     24          6           0        1.779357    4.786804   -1.066171
     25          1           0        1.230479    4.783035   -2.009747
     26          1           0        1.112495    5.176086   -0.294932
     27          1           0        2.673651    5.397937   -1.145518
     28          6           0        4.531345   -4.598051    0.746972
     29          1           0        4.167966   -4.929702    1.721603
     30          1           0        4.081294   -5.238891   -0.013276
     31          1           0        5.615168   -4.653482    0.704312
     32          6           0       -0.871018    0.335133    0.265209
     33          6           0       -1.530204    1.252444    1.044686
     34         16           0       -2.005633   -0.745898   -0.507295
     35          6           0       -2.935169    1.096539    1.020120
     36          1           0       -1.012294    2.023064    1.593091
     37          6           0       -3.391130    0.052537    0.227154
     38          8           0       -3.837936    1.865182    1.702870
     39          6           0       -4.752487   -0.353319   -0.009229
     40          6           0       -3.354606    3.055148    2.312298
     41          6           0       -5.215218   -1.401859   -0.792804
     42         16           0       -6.131803    0.477972    0.704894
     43          1           0       -4.231663    3.569535    2.704720
     44          1           0       -2.669776    2.828979    3.137150
     45          1           0       -2.846356    3.693676    1.582922
     46          6           0       -6.631466   -1.538933   -0.819500
     47          8           0       -4.317653   -2.183823   -1.464854
     48          6           0       -7.257872   -0.593295   -0.055951
     49          1           0       -7.159663   -2.299579   -1.376910
     50          6           0       -4.803303   -3.347155   -2.111421
     51          1           0       -8.317032   -0.464266    0.104433
     52          1           0       -5.490098   -3.095097   -2.928496
     53          1           0       -3.928656   -3.850563   -2.521403
     54          1           0       -5.308748   -4.015417   -1.404340
 ---------------------------------------------------------------------

 The electronic state is 2-A.
 Alpha  occ. eigenvalues --  -88.80115 -88.78246 -19.08645 -19.08056 -18.99461
 Alpha  occ. eigenvalues --  -18.99334 -18.99111 -18.98904 -14.26400 -14.26132
 Alpha  occ. eigenvalues --  -10.17957 -10.17693 -10.17660 -10.17567 -10.16359
 Alpha  occ. eigenvalues --  -10.15933 -10.15441 -10.14971 -10.13373 -10.12625
 Alpha  occ. eigenvalues --  -10.11947 -10.11730 -10.11033 -10.10481 -10.10454
 Alpha  occ. eigenvalues --  -10.10280 -10.10252 -10.09945 -10.09312 -10.08621
 Alpha  occ. eigenvalues --  -10.08550 -10.08512 -10.08355 -10.08237 -10.07932
 Alpha  occ. eigenvalues --  -10.07870  -7.88668  -7.86805  -5.84977  -5.84594
 Alpha  occ. eigenvalues --   -5.84238  -5.83125  -5.82735  -5.82355  -1.00233
 Alpha  occ. eigenvalues --   -0.99436  -0.95528  -0.95339  -0.93457  -0.93216
 Alpha  occ. eigenvalues --   -0.83643  -0.83312  -0.81291  -0.79711  -0.78628
 Alpha  occ. eigenvalues --   -0.74064  -0.71633  -0.69806  -0.68331  -0.66836
 Alpha  occ. eigenvalues --   -0.65874  -0.65563  -0.63904  -0.63467  -0.61947
 Alpha  occ. eigenvalues --   -0.61035  -0.60340  -0.58489  -0.54999  -0.53969
 Alpha  occ. eigenvalues --   -0.53482  -0.52318  -0.51536  -0.49854  -0.48127
 Alpha  occ. eigenvalues --   -0.47456  -0.45911  -0.45792  -0.45191  -0.43046
 Alpha  occ. eigenvalues --   -0.41837  -0.40881  -0.40760  -0.39923  -0.39782
 Alpha  occ. eigenvalues --   -0.39294  -0.38232  -0.37961  -0.37874  -0.37492
 Alpha  occ. eigenvalues --   -0.36974  -0.36600  -0.36542  -0.35006  -0.34325
 Alpha  occ. eigenvalues --   -0.34166  -0.33760  -0.33312  -0.32945  -0.32635
 Alpha  occ. eigenvalues --   -0.32503  -0.32250  -0.31462  -0.30540  -0.30441
 Alpha  occ. eigenvalues --   -0.30229  -0.29949  -0.29873  -0.29490  -0.29271
 Alpha  occ. eigenvalues --   -0.29143  -0.28706  -0.27776  -0.27297  -0.27045
 Alpha  occ. eigenvalues --   -0.26049  -0.25572  -0.24977  -0.24433  -0.24008
 Alpha  occ. eigenvalues --   -0.22878  -0.20170  -0.19462  -0.18508  -0.17878
 Alpha  occ. eigenvalues --   -0.17719  -0.17180  -0.16916  -0.16281  -0.16026
 Alpha  occ. eigenvalues --   -0.15821  -0.14542  -0.13889  -0.10215  -0.05117
 Alpha virt. eigenvalues --    0.03143   0.04676   0.05779   0.06415   0.06849
 Alpha virt. eigenvalues --    0.07379   0.07460   0.08610   0.08996   0.09154
 Alpha virt. eigenvalues --    0.09191   0.09503   0.09981   0.10212   0.10654

  Beta  occ. eigenvalues --  -88.80113 -88.78238 -19.08638 -19.08060 -18.99277
  Beta  occ. eigenvalues --  -18.99131 -18.98926 -18.98692 -14.26449 -14.26184
  Beta  occ. eigenvalues --  -10.17911 -10.17649 -10.17610 -10.17521 -10.16359
  Beta  occ. eigenvalues --  -10.15913 -10.15440 -10.14990 -10.13387 -10.12606
  Beta  occ. eigenvalues --  -10.11904 -10.11764 -10.11040 -10.10480 -10.10338
  Beta  occ. eigenvalues --  -10.10306 -10.10279 -10.10003 -10.09131 -10.08467
  Beta  occ. eigenvalues --  -10.08368 -10.08355 -10.08313 -10.08192 -10.07849
  Beta  occ. eigenvalues --  -10.07788  -7.88667  -7.86798  -5.84976  -5.84593
  Beta  occ. eigenvalues --   -5.84233  -5.83120  -5.82730  -5.82337  -1.00217
  Beta  occ. eigenvalues --   -0.99446  -0.95290  -0.95095  -0.93128  -0.92880
  Beta  occ. eigenvalues --   -0.83527  -0.83197  -0.81268  -0.79604  -0.78533
  Beta  occ. eigenvalues --   -0.73750  -0.71329  -0.69720  -0.68290  -0.66748
  Beta  occ. eigenvalues --   -0.65761  -0.65161  -0.63823  -0.63410  -0.61917
  Beta  occ. eigenvalues --   -0.60984  -0.60094  -0.58211  -0.54854  -0.53769
  Beta  occ. eigenvalues --   -0.53393  -0.52138  -0.51504  -0.49807  -0.48108
  Beta  occ. eigenvalues --   -0.47393  -0.45875  -0.45688  -0.45070  -0.42889
  Beta  occ. eigenvalues --   -0.41733  -0.40859  -0.40730  -0.39927  -0.39760
  Beta  occ. eigenvalues --   -0.39132  -0.38004  -0.37906  -0.37693  -0.37466
  Beta  occ. eigenvalues --   -0.36878  -0.36543  -0.36430  -0.34925  -0.34208
  Beta  occ. eigenvalues --   -0.34057  -0.33657  -0.33256  -0.32889  -0.32471
  Beta  occ. eigenvalues --   -0.32271  -0.31961  -0.31362  -0.30251  -0.30171
  Beta  occ. eigenvalues --   -0.30102  -0.29807  -0.29612  -0.29135  -0.28987
  Beta  occ. eigenvalues --   -0.28659  -0.28267  -0.27726  -0.27069  -0.26778
  Beta  occ. eigenvalues --   -0.25996  -0.25541  -0.24889  -0.24324  -0.23959
  Beta  occ. eigenvalues --   -0.22134  -0.19875  -0.18540  -0.18321  -0.17555
  Beta  occ. eigenvalues --   -0.17235  -0.16826  -0.16712  -0.16043  -0.15676
  Beta  occ. eigenvalues --   -0.15538  -0.14380  -0.12452  -0.09946
  Beta virt. eigenvalues --   -0.00709   0.03395   0.05726   0.05782   0.06825
  Beta virt. eigenvalues --    0.06875   0.07431   0.08178   0.08617   0.09004
  Beta virt. eigenvalues --    0.09168   0.09373   0.09527   0.09992   0.10218

 Mulliken charges and spin densities:
               1          2
     1  C    0.332732   0.016102
     2  C   -0.191382   0.131872
     3  C    0.102588  -0.039590
     4  C    0.203969   0.106136
     5  C    0.198543   0.017971
     6  C   -0.558849   0.038517
     7  C    0.201364  -0.033844
     8  C    0.202175   0.134935
     9  C    0.540505   0.080205
    10  C   -0.407142   0.021298
    11  C    0.149960   0.019557
    12  C    0.169472   0.104370
    13  C   -0.476638   0.061114
    14  C   -0.596377   0.063186
    15  H    0.129946  -0.004448
    16  H    0.131531  -0.004309
    17  H    0.158201  -0.002344
    18  N   -0.127356  -0.020624
    19  N   -0.143044  -0.020066
    20  O   -0.356278   0.075907
    21  O   -0.345700   0.068777
    22  O   -0.348983   0.069615
    23  O   -0.247184   0.079342
    24  C   -0.194594   0.001351
    25  H    0.156356  -0.001034
    26  H    0.149513  -0.000852
    27  H    0.169195  -0.000363
    28  C   -0.190893   0.001219
    29  H    0.153314  -0.000931
    30  H    0.153313  -0.000891
    31  H    0.168580  -0.000345
    32  C    0.096629  -0.036605
    33  C   -0.375273   0.029914
    34  S   -0.540556   0.013972
    35  C   -0.164066  -0.009083
    36  H    0.118297  -0.002384
    37  C    0.654629   0.030285
    38  O   -0.135126  -0.000837
    39  C    0.763829  -0.010623
    40  C   -0.242713   0.000398
    41  C   -0.064617   0.012978
    42  S   -0.294286   0.001406
    43  H    0.146009  -0.000001
    44  H    0.135834  -0.000133
    45  H    0.161539  -0.000068
    46  C   -0.563499  -0.005849
    47  O   -0.121660   0.001464
    48  C   -0.296570   0.013431
    49  H    0.115371   0.000267
    50  C   -0.245675   0.000094
    51  H    0.140618  -0.000831
    52  H    0.126546   0.000153
    53  H    0.162329   0.000016
    54  H    0.135578   0.000202
 Sum of Mulliken charges =  -1.00000   1.00000

 Dipole moment (field-independent basis, Debye):
    X=            -11.2943    Y=             -0.3369    Z=              0.5045  Tot=             11.3106
 Quadrupole moment (field-independent basis, Debye-Ang):
   XX=           -317.6533   YY=           -260.1724   ZZ=           -224.6888
   XY=              5.0086   XZ=              4.9971   YZ=             19.6785

 Normal termination of Gaussian 16 at Tue Oct  5 11:52:43 2021.
