 Gaussian 16, Revision C.01,
 Gaussian 16:  ES64L-G16RevC.01  3-Jul-2019

 -------------------------------------
 # opt=modredundant b3lyp/6-311+g(d,p)
 -------------------------------------

 -----------
 NDI_120.pdb
 -----------
 Symbolic Z-matrix:
 Charge = -1 Multiplicity = 2

 SCF Done:  E(UB3LYP) =  -2359.41899438     A.U. after   24 cycles
 SCF Done:  E(UB3LYP) =  -2359.42576554     A.U. after   22 cycles
 SCF Done:  E(UB3LYP) =  -2359.42687068     A.U. after   18 cycles
 SCF Done:  E(UB3LYP) =  -2359.42761556     A.U. after   17 cycles
 SCF Done:  E(UB3LYP) =  -2359.42772714     A.U. after   14 cycles
 SCF Done:  E(UB3LYP) =  -2359.42778399     A.U. after   14 cycles
 SCF Done:  E(UB3LYP) =  -2359.42780099     A.U. after   13 cycles
 SCF Done:  E(UB3LYP) =  -2359.42781707     A.U. after   14 cycles
 SCF Done:  E(UB3LYP) =  -2359.42788322     A.U. after   16 cycles
 SCF Done:  E(UB3LYP) =  -2359.42789851     A.U. after   14 cycles
 SCF Done:  E(UB3LYP) =  -2359.42794734     A.U. after   13 cycles
 SCF Done:  E(UB3LYP) =  -2359.42794838     A.U. after   13 cycles
 SCF Done:  E(UB3LYP) =  -2359.42794879     A.U. after   11 cycles
 SCF Done:  E(UB3LYP) =  -2359.42794895     A.U. after   11 cycles
 SCF Done:  E(UB3LYP) =  -2359.42794897     A.U. after   10 cycles
 SCF Done:  E(UB3LYP) =  -2359.42794898     A.U. after    9 cycles
 SCF Done:  E(UB3LYP) =  -2359.42794899     A.U. after    9 cycles
 SCF Done:  E(UB3LYP) =  -2359.42794900     A.U. after    9 cycles
 SCF Done:  E(UB3LYP) =  -2359.42794901     A.U. after    9 cycles
 SCF Done:  E(UB3LYP) =  -2359.42794902     A.U. after   10 cycles
 Optimization completed.
    -- Stationary point found.

                         Standard orientation:
 ---------------------------------------------------------------------
 Center     Atomic      Atomic             Coordinates (Angstroms)
 Number     Number       Type             X           Y           Z
 ---------------------------------------------------------------------
      1          6           0        3.447148   -2.725269    0.406723
      2          6           0        2.742403   -1.479135    0.128073
      3          6           0        3.441064   -0.249084    0.127388
      4          6           0        4.827738   -0.197999    0.402963
      5          6           0        5.567612   -1.422766    0.696609
      6          6           0        1.360684   -1.498230   -0.108224
      7          6           0        2.724155    0.958103   -0.169599
      8          6           0        1.329707    0.908886   -0.452729
      9          6           0        0.640322   -0.339486   -0.378513
     10          6           0        0.664314    2.129831   -0.906558
     11          6           0        2.767028    3.434629   -0.501479
     12          6           0        3.441698    2.181175   -0.182925
     13          6           0        4.820841    2.201910    0.103494
     14          6           0        5.503284    1.037298    0.391357
     15          1           0        6.563961    1.043861    0.608306
     16          1           0        5.325559    3.159652    0.086111
     17          1           0        0.846231   -2.448291   -0.040952
     18          7           0        1.409859    3.325959   -0.842213
     19          7           0        4.822910   -2.619708    0.677664
     20          8           0        2.912754   -3.836259    0.416455
     21          8           0        6.774315   -1.443751    0.947767
     22          8           0        3.328694    4.532820   -0.496762
     23          8           0       -0.484245    2.181300   -1.345412
     24          6           0        0.699282    4.540815   -1.243773
     25          1           0        0.451236    4.502525   -2.307164
     26          1           0       -0.234339    4.620516   -0.686251
     27          1           0        1.350383    5.386033   -1.040334
     28          6           0        5.519688   -3.874921    0.960503
     29          1           0        5.069426   -4.364490    1.826025
     30          1           0        5.429357   -4.552178    0.109079
     31          1           0        6.562091   -3.638285    1.152857
     32          6           0       -0.824133   -0.492035   -0.520069
     33          6           0       -1.489408   -1.230036   -1.464770
     34         16           0       -1.925747    0.133467    0.674098
     35          6           0       -2.893219   -1.263386   -1.254039
     36          1           0       -0.978712   -1.703709   -2.290376
     37          6           0       -3.322815   -0.571867   -0.133752
     38          8           0       -3.809459   -1.901560   -2.045643
     39          6           0       -4.674123   -0.403646    0.340593
     40          6           0       -3.333800   -2.534509   -3.223864
     41          6           0       -5.112102    0.276950    1.467016
     42         16           0       -6.069481   -1.070226   -0.502869
     43          1           0       -4.211409   -2.953658   -3.715539
     44          1           0       -2.849396   -1.815272   -3.893137
     45          1           0       -2.631019   -3.341003   -2.987362
     46          6           0       -6.524572    0.277791    1.645191
     47          8           0       -4.198030    0.848204    2.308767
     48          6           0       -7.171445   -0.409046    0.656542
     49          1           0       -7.033736    0.761349    2.467118
     50          6           0       -4.659479    1.843389    3.207289
     51          1           0       -8.232509   -0.568892    0.543059
     52          1           0       -5.314567    1.417790    3.977082
     53          1           0       -3.770591    2.254513    3.684520
     54          1           0       -5.191168    2.641707    2.677085
 ---------------------------------------------------------------------

 The electronic state is 2-A.
 Alpha  occ. eigenvalues --  -88.80133 -88.78031 -19.08500 -19.08303 -18.99322
 Alpha  occ. eigenvalues --  -18.99233 -18.99076 -18.98953 -14.26303 -14.26045
 Alpha  occ. eigenvalues --  -10.17820 -10.17591 -10.17544 -10.17524 -10.16266
 Alpha  occ. eigenvalues --  -10.15856 -10.15819 -10.15103 -10.13393 -10.12649
 Alpha  occ. eigenvalues --  -10.11912 -10.11898 -10.11017 -10.10400 -10.10206
 Alpha  occ. eigenvalues --  -10.10157 -10.10114 -10.09919 -10.09171 -10.08644
 Alpha  occ. eigenvalues --  -10.08513 -10.08499 -10.08467 -10.08234 -10.07902
 Alpha  occ. eigenvalues --  -10.07837  -7.88689  -7.86591  -5.84997  -5.84615
 Alpha  occ. eigenvalues --   -5.84257  -5.82919  -5.82527  -5.82128  -1.00078
 Alpha  occ. eigenvalues --   -0.99687  -0.95387  -0.95274  -0.93315  -0.93183
 Alpha  occ. eigenvalues --   -0.83526  -0.83275  -0.81285  -0.79704  -0.78619
 Alpha  occ. eigenvalues --   -0.74039  -0.71583  -0.69822  -0.68278  -0.66742
 Alpha  occ. eigenvalues --   -0.66134  -0.65436  -0.63871  -0.63384  -0.61958
 Alpha  occ. eigenvalues --   -0.60959  -0.60273  -0.58605  -0.54842  -0.53940
 Alpha  occ. eigenvalues --   -0.53370  -0.52283  -0.51571  -0.49835  -0.48039
 Alpha  occ. eigenvalues --   -0.47592  -0.45964  -0.45795  -0.45127  -0.42951
 Alpha  occ. eigenvalues --   -0.41829  -0.40817  -0.40588  -0.40208  -0.40014
 Alpha  occ. eigenvalues --   -0.39238  -0.38159  -0.38027  -0.37810  -0.37505
 Alpha  occ. eigenvalues --   -0.36924  -0.36567  -0.36451  -0.35134  -0.34396
 Alpha  occ. eigenvalues --   -0.34127  -0.33681  -0.33459  -0.32885  -0.32556
 Alpha  occ. eigenvalues --   -0.32385  -0.32203  -0.31617  -0.30441  -0.30294
 Alpha  occ. eigenvalues --   -0.30147  -0.29960  -0.29850  -0.29500  -0.29158
 Alpha  occ. eigenvalues --   -0.28961  -0.28754  -0.27821  -0.27273  -0.26973
 Alpha  occ. eigenvalues --   -0.25973  -0.25575  -0.24673  -0.24356  -0.24236
 Alpha  occ. eigenvalues --   -0.22657  -0.19952  -0.19474  -0.18418  -0.17808
 Alpha  occ. eigenvalues --   -0.17598  -0.17073  -0.16769  -0.16195  -0.16095
 Alpha  occ. eigenvalues --   -0.15580  -0.14844  -0.13834  -0.10314  -0.05082
 Alpha virt. eigenvalues --    0.03453   0.04661   0.05812   0.06613   0.06782
 Alpha virt. eigenvalues --    0.07277   0.07464   0.08516   0.08691   0.09033
 Alpha virt. eigenvalues --    0.09097   0.09421   0.09934   0.10419   0.10533

  Beta  occ. eigenvalues --  -88.80133 -88.78024 -19.08497 -19.08305 -18.99130
  Beta  occ. eigenvalues --  -18.99027 -18.98885 -18.98733 -14.26354 -14.26097
  Beta  occ. eigenvalues --  -10.17771 -10.17544 -10.17498 -10.17481 -10.16266
  Beta  occ. eigenvalues --  -10.15851 -10.15819 -10.15108 -10.13396 -10.12644
  Beta  occ. eigenvalues --  -10.11914 -10.11900 -10.11019 -10.10399 -10.10172
  Beta  occ. eigenvalues --  -10.10156 -10.10101 -10.09975 -10.08979 -10.08626
  Beta  occ. eigenvalues --  -10.08355 -10.08320 -10.08298 -10.08176 -10.07815
  Beta  occ. eigenvalues --  -10.07755  -7.88688  -7.86585  -5.84997  -5.84614
  Beta  occ. eigenvalues --   -5.84256  -5.82910  -5.82519  -5.82118  -1.00072
  Beta  occ. eigenvalues --   -0.99690  -0.95142  -0.95021  -0.92977  -0.92836
  Beta  occ. eigenvalues --   -0.83406  -0.83157  -0.81274  -0.79599  -0.78524
  Beta  occ. eigenvalues --   -0.73719  -0.71270  -0.69741  -0.68252  -0.66673
  Beta  occ. eigenvalues --   -0.65993  -0.65005  -0.63818  -0.63329  -0.61940
  Beta  occ. eigenvalues --   -0.60906  -0.60047  -0.58297  -0.54695  -0.53747
  Beta  occ. eigenvalues --   -0.53261  -0.52147  -0.51520  -0.49778  -0.48025
  Beta  occ. eigenvalues --   -0.47532  -0.45956  -0.45665  -0.45000  -0.42791
  Beta  occ. eigenvalues --   -0.41727  -0.40800  -0.40554  -0.40210  -0.39991
  Beta  occ. eigenvalues --   -0.39081  -0.37984  -0.37915  -0.37622  -0.37482
  Beta  occ. eigenvalues --   -0.36836  -0.36442  -0.36399  -0.35055  -0.34259
  Beta  occ. eigenvalues --   -0.34033  -0.33584  -0.33391  -0.32850  -0.32391
  Beta  occ. eigenvalues --   -0.32143  -0.31936  -0.31493  -0.30185  -0.30090
  Beta  occ. eigenvalues --   -0.30026  -0.29736  -0.29633  -0.29023  -0.28919
  Beta  occ. eigenvalues --   -0.28637  -0.28124  -0.27786  -0.27029  -0.26708
  Beta  occ. eigenvalues --   -0.25934  -0.25553  -0.24592  -0.24288  -0.24136
  Beta  occ. eigenvalues --   -0.21825  -0.19813  -0.18481  -0.18224  -0.17471
  Beta  occ. eigenvalues --   -0.17083  -0.16717  -0.16662  -0.15918  -0.15597
  Beta  occ. eigenvalues --   -0.15367  -0.14756  -0.12280  -0.10207
  Beta virt. eigenvalues --   -0.00516   0.03558   0.05792   0.05819   0.06739
  Beta virt. eigenvalues --    0.07082   0.07320   0.08279   0.08561   0.08768
  Beta virt. eigenvalues --    0.09050   0.09114   0.09425   0.09945   0.10422

 Mulliken charges and spin densities:
               1          2
     1  C    0.355882   0.017535
     2  C   -0.099491   0.132444
     3  C    0.104377  -0.041092
     4  C    0.265641   0.110602
     5  C    0.214357   0.018663
     6  C   -0.559609   0.045175
     7  C    0.163666  -0.037950
     8  C   -0.017773   0.146491
     9  C    0.297489   0.068623
    10  C   -0.277931   0.016154
    11  C    0.265120   0.019346
    12  C    0.206428   0.117061
    13  C   -0.495249   0.059130
    14  C   -0.667417   0.066757
    15  H    0.130182  -0.004801
    16  H    0.131558  -0.004237
    17  H    0.140014  -0.002873
    18  N   -0.104816  -0.020406
    19  N   -0.142172  -0.020843
    20  O   -0.356167   0.076988
    21  O   -0.349846   0.071587
    22  O   -0.351496   0.071483
    23  O   -0.247429   0.082829
    24  C   -0.177763   0.001351
    25  H    0.154394  -0.001110
    26  H    0.159346  -0.000774
    27  H    0.169609  -0.000381
    28  C   -0.191355   0.001313
    29  H    0.153643  -0.000952
    30  H    0.152156  -0.000944
    31  H    0.169306  -0.000361
    32  C    0.353072  -0.024430
    33  C   -0.611583   0.023584
    34  S   -0.428447   0.013540
    35  C   -0.197677  -0.008727
    36  H    0.111244  -0.000459
    37  C    0.375137  -0.001702
    38  O   -0.120155  -0.000252
    39  C    0.903416   0.001679
    40  C   -0.250325   0.000437
    41  C   -0.074776   0.006118
    42  S   -0.263231   0.000436
    43  H    0.148868  -0.000009
    44  H    0.148810  -0.000041
    45  H    0.143222  -0.000016
    46  C   -0.384171  -0.000828
    47  O   -0.132342  -0.000095
    48  C   -0.328724   0.003977
    49  H    0.113103   0.000076
    50  C   -0.264039   0.000023
    51  H    0.140878  -0.000239
    52  H    0.123095   0.000050
    53  H    0.158464   0.000014
    54  H    0.141507   0.000054
 Sum of Mulliken charges =  -1.00000   1.00000

 Dipole moment (field-independent basis, Debye):
    X=            -11.3763    Y=             -0.7587    Z=             -0.1524  Tot=             11.4026
 Quadrupole moment (field-independent basis, Debye-Ang):
   XX=           -315.8150   YY=           -268.8895   ZZ=           -217.7055
   XY=             -7.4508   XZ=            -12.0775   YZ=             17.7866

 Normal termination of Gaussian 16 at Wed Oct  6 00:57:34 2021.
