 Gaussian 16, Revision C.01,
 Gaussian 16:  ES64L-G16RevC.01  3-Jul-2019

 -------------------------------------
 # opt=modredundant b3lyp/6-311+g(d,p)
 -------------------------------------

 ------------
 NDI_-135.pdb
 ------------
 Symbolic Z-matrix:
 Charge = -1 Multiplicity = 2

 SCF Done:  E(UB3LYP) =  -2359.41237132     A.U. after   23 cycles
 SCF Done:  E(UB3LYP) =  -2359.41491500     A.U. after   22 cycles
 SCF Done:  E(UB3LYP) =  -2359.42055539     A.U. after   17 cycles
 SCF Done:  E(UB3LYP) =  -2359.42528502     A.U. after   19 cycles
 SCF Done:  E(UB3LYP) =  -2359.42627336     A.U. after   19 cycles
 SCF Done:  E(UB3LYP) =  -2359.42670711     A.U. after   23 cycles
 SCF Done:  E(UB3LYP) =  -2359.42700513     A.U. after   19 cycles
 SCF Done:  E(UB3LYP) =  -2359.42736374     A.U. after   17 cycles
 SCF Done:  E(UB3LYP) =  -2359.42743062     A.U. after   18 cycles
 SCF Done:  E(UB3LYP) =  -2359.42756539     A.U. after   18 cycles
 SCF Done:  E(UB3LYP) =  -2359.42768925     A.U. after   10 cycles
 SCF Done:  E(UB3LYP) =  -2359.42769053     A.U. after   11 cycles
 SCF Done:  E(UB3LYP) =  -2359.42769215     A.U. after   11 cycles
 SCF Done:  E(UB3LYP) =  -2359.42769466     A.U. after   13 cycles
 SCF Done:  E(UB3LYP) =  -2359.42769598     A.U. after   11 cycles
 SCF Done:  E(UB3LYP) =  -2359.42769824     A.U. after   11 cycles
 SCF Done:  E(UB3LYP) =  -2359.42769962     A.U. after   12 cycles
 SCF Done:  E(UB3LYP) =  -2359.42769997     A.U. after   10 cycles
 SCF Done:  E(UB3LYP) =  -2359.42770013     A.U. after   10 cycles
 SCF Done:  E(UB3LYP) =  -2359.42770019     A.U. after   11 cycles
 Optimization completed.
    -- Stationary point found.

                         Standard orientation:
 ---------------------------------------------------------------------
 Center     Atomic      Atomic             Coordinates (Angstroms)
 Number     Number       Type             X           Y           Z
 ---------------------------------------------------------------------
      1          6           0       -3.470615   -2.700884    0.422338
      2          6           0       -2.754350   -1.466210    0.121842
      3          6           0       -3.434943   -0.225699    0.131234
      4          6           0       -4.813268   -0.152820    0.437939
      5          6           0       -5.564271   -1.365843    0.753961
      6          6           0       -1.377616   -1.505472   -0.130638
      7          6           0       -2.705908    0.967876   -0.189117
      8          6           0       -1.318932    0.896175   -0.504370
      9          6           0       -0.640397   -0.359746   -0.421392
     10          6           0       -0.665633    2.094491   -1.030377
     11          6           0       -2.723224    3.441408   -0.545398
     12          6           0       -3.406733    2.200734   -0.195643
     13          6           0       -4.777658    2.244264    0.124392
     14          6           0       -5.470831    1.092084    0.436121
     15          1           0       -6.525854    1.115877    0.677855
     16          1           0       -5.268049    3.209520    0.112203
     17          1           0       -0.875938   -2.460615   -0.044740
     18          7           0       -1.383997    3.306316   -0.940157
     19          7           0       -4.838360   -2.574066    0.722462
     20          8           0       -2.952073   -3.819403    0.426220
     21          8           0       -6.764698   -1.367689    1.033111
     22          8           0       -3.265604    4.549026   -0.526543
     23          8           0        0.448276    2.114913   -1.552531
     24          6           0       -0.676164    4.502655   -1.397926
     25          1           0        0.303392    4.550895   -0.922314
     26          1           0       -0.521792    4.465440   -2.479237
     27          1           0       -1.283010    5.365129   -1.137654
     28          6           0       -5.547322   -3.817628    1.025876
     29          1           0       -5.481375   -4.501223    0.177351
     30          1           0       -5.088843   -4.308084    1.886619
     31          1           0       -6.582717   -3.565275    1.235310
     32          6           0        0.819878   -0.538356   -0.526841
     33          6           0        1.471559   -1.497033   -1.266118
     34         16           0        1.936077    0.309098    0.507891
     35          6           0        2.869102   -1.527191   -1.030599
     36          1           0        0.952542   -2.134582   -1.966836
     37          6           0        3.312554   -0.612224   -0.088861
     38          8           0        3.770959   -2.353568   -1.644898
     39          6           0        4.664852   -0.380249    0.352894
     40          6           0        3.276220   -3.258122   -2.620616
     41          6           0        5.116531    0.522604    1.304772
     42         16           0        6.044211   -1.262079   -0.297878
     43          1           0        4.142143   -3.809507   -2.986318
     44          1           0        2.556304   -3.959699   -2.185147
     45          1           0        2.805214   -2.725410   -3.453952
     46          6           0        6.526549    0.519359    1.500154
     47          8           0        4.215256    1.296274    1.981811
     48          6           0        7.158034   -0.392109    0.701121
     49          1           0        7.045115    1.158974    2.200552
     50          6           0        4.704423    2.441364    2.659893
     51          1           0        8.213927   -0.606758    0.643707
     52          1           0        5.274510    3.089697    1.984735
     53          1           0        3.826508    2.976132    3.020551
     54          1           0        5.331859    2.164434    3.515768
 ---------------------------------------------------------------------

 The electronic state is 2-A.
 Alpha  occ. eigenvalues --  -88.80139 -88.77990 -19.08509 -19.08310 -18.99394
 Alpha  occ. eigenvalues --  -18.99306 -18.99074 -18.98915 -14.26361 -14.26016
 Alpha  occ. eigenvalues --  -10.17892 -10.17660 -10.17537 -10.17504 -10.16254
 Alpha  occ. eigenvalues --  -10.15882 -10.15819 -10.15100 -10.13393 -10.12661
 Alpha  occ. eigenvalues --  -10.11957 -10.11907 -10.11023 -10.10452 -10.10263
 Alpha  occ. eigenvalues --  -10.10161 -10.10118 -10.09909 -10.09107 -10.08674
 Alpha  occ. eigenvalues --  -10.08554 -10.08522 -10.08470 -10.08290 -10.07912
 Alpha  occ. eigenvalues --  -10.07850  -7.88694  -7.86549  -5.85003  -5.84621
 Alpha  occ. eigenvalues --   -5.84264  -5.82877  -5.82484  -5.82086  -1.00098
 Alpha  occ. eigenvalues --   -0.99695  -0.95457  -0.95265  -0.93389  -0.93174
 Alpha  occ. eigenvalues --   -0.83585  -0.83268  -0.81295  -0.79716  -0.78624
 Alpha  occ. eigenvalues --   -0.74060  -0.71593  -0.69848  -0.68289  -0.66745
 Alpha  occ. eigenvalues --   -0.66179  -0.65443  -0.63878  -0.63398  -0.61969
 Alpha  occ. eigenvalues --   -0.60977  -0.60286  -0.58606  -0.54867  -0.53967
 Alpha  occ. eigenvalues --   -0.53382  -0.52347  -0.51531  -0.49828  -0.48047
 Alpha  occ. eigenvalues --   -0.47605  -0.45987  -0.45810  -0.45140  -0.42995
 Alpha  occ. eigenvalues --   -0.41947  -0.40793  -0.40494  -0.40210  -0.39995
 Alpha  occ. eigenvalues --   -0.39236  -0.38201  -0.38033  -0.37827  -0.37501
 Alpha  occ. eigenvalues --   -0.36936  -0.36587  -0.36457  -0.35218  -0.34339
 Alpha  occ. eigenvalues --   -0.34102  -0.33679  -0.33476  -0.32902  -0.32576
 Alpha  occ. eigenvalues --   -0.32430  -0.32206  -0.31604  -0.30466  -0.30364
 Alpha  occ. eigenvalues --   -0.30195  -0.29942  -0.29837  -0.29576  -0.29195
 Alpha  occ. eigenvalues --   -0.28938  -0.28713  -0.27810  -0.27382  -0.26943
 Alpha  occ. eigenvalues --   -0.25991  -0.25541  -0.24915  -0.24327  -0.24240
 Alpha  occ. eigenvalues --   -0.22655  -0.20047  -0.19427  -0.18479  -0.17848
 Alpha  occ. eigenvalues --   -0.17625  -0.17086  -0.16828  -0.16216  -0.16056
 Alpha  occ. eigenvalues --   -0.15688  -0.14719  -0.13835  -0.10284  -0.05073
 Alpha virt. eigenvalues --    0.03236   0.04701   0.05821   0.06492   0.06784
 Alpha virt. eigenvalues --    0.07359   0.07454   0.08585   0.08847   0.09027
 Alpha virt. eigenvalues --    0.09198   0.09397   0.10014   0.10406   0.10616

  Beta  occ. eigenvalues --  -88.80138 -88.77983 -19.08503 -19.08314 -18.99208
  Beta  occ. eigenvalues --  -18.99103 -18.98887 -18.98702 -14.26411 -14.26067
  Beta  occ. eigenvalues --  -10.17843 -10.17613 -10.17492 -10.17460 -10.16254
  Beta  occ. eigenvalues --  -10.15869 -10.15818 -10.15113 -10.13402 -10.12648
  Beta  occ. eigenvalues --  -10.11933 -10.11928 -10.11028 -10.10451 -10.10175
  Beta  occ. eigenvalues --  -10.10160 -10.10156 -10.09964 -10.08915 -10.08642
  Beta  occ. eigenvalues --  -10.08402 -10.08347 -10.08304 -10.08236 -10.07828
  Beta  occ. eigenvalues --  -10.07768  -7.88693  -7.86543  -5.85002  -5.84620
  Beta  occ. eigenvalues --   -5.84260  -5.82868  -5.82477  -5.82072  -1.00085
  Beta  occ. eigenvalues --   -0.99703  -0.95217  -0.95018  -0.93058  -0.92835
  Beta  occ. eigenvalues --   -0.83468  -0.83151  -0.81278  -0.79611  -0.78529
  Beta  occ. eigenvalues --   -0.73745  -0.71285  -0.69760  -0.68260  -0.66677
  Beta  occ. eigenvalues --   -0.66040  -0.65022  -0.63816  -0.63342  -0.61945
  Beta  occ. eigenvalues --   -0.60925  -0.60059  -0.58303  -0.54721  -0.53782
  Beta  occ. eigenvalues --   -0.53267  -0.52225  -0.51467  -0.49768  -0.48029
  Beta  occ. eigenvalues --   -0.47547  -0.45973  -0.45682  -0.45015  -0.42839
  Beta  occ. eigenvalues --   -0.41851  -0.40774  -0.40451  -0.40215  -0.39966
  Beta  occ. eigenvalues --   -0.39083  -0.37995  -0.37955  -0.37639  -0.37475
  Beta  occ. eigenvalues --   -0.36851  -0.36464  -0.36402  -0.35133  -0.34189
  Beta  occ. eigenvalues --   -0.34031  -0.33566  -0.33418  -0.32852  -0.32413
  Beta  occ. eigenvalues --   -0.32190  -0.31950  -0.31476  -0.30254  -0.30135
  Beta  occ. eigenvalues --   -0.30052  -0.29762  -0.29619  -0.29029  -0.28949
  Beta  occ. eigenvalues --   -0.28655  -0.28139  -0.27758  -0.27130  -0.26696
  Beta  occ. eigenvalues --   -0.25929  -0.25518  -0.24795  -0.24238  -0.24173
  Beta  occ. eigenvalues --   -0.21904  -0.19812  -0.18470  -0.18286  -0.17504
  Beta  occ. eigenvalues --   -0.17154  -0.16765  -0.16653  -0.16000  -0.15572
  Beta  occ. eigenvalues --   -0.15438  -0.14600  -0.12350  -0.10073
  Beta virt. eigenvalues --   -0.00604   0.03445   0.05776   0.05823   0.06755
  Beta virt. eigenvalues --    0.06926   0.07381   0.08244   0.08596   0.08911
  Beta virt. eigenvalues --    0.09075   0.09284   0.09404   0.10026   0.10411

 Mulliken charges and spin densities:
               1          2
     1  C    0.319452   0.017935
     2  C   -0.117646   0.129322
     3  C    0.117165  -0.039430
     4  C    0.210380   0.104272
     5  C    0.179655   0.018645
     6  C   -0.322768   0.042497
     7  C    0.189296  -0.036514
     8  C    0.049459   0.145247
     9  C    0.292737   0.069106
    10  C   -0.436110   0.015274
    11  C    0.245739   0.018572
    12  C    0.098213   0.112660
    13  C   -0.463515   0.057338
    14  C   -0.584998   0.068192
    15  H    0.129865  -0.004810
    16  H    0.131310  -0.004099
    17  H    0.140821  -0.002488
    18  N   -0.070941  -0.020194
    19  N   -0.142630  -0.020554
    20  O   -0.358389   0.075752
    21  O   -0.348294   0.069658
    22  O   -0.352664   0.070213
    23  O   -0.271557   0.080805
    24  C   -0.171338   0.001444
    25  H    0.159731  -0.000683
    26  H    0.154594  -0.001120
    27  H    0.169032  -0.000387
    28  C   -0.188674   0.001288
    29  H    0.151906  -0.000920
    30  H    0.153776  -0.000939
    31  H    0.169158  -0.000351
    32  C    0.290161  -0.014506
    33  C   -0.621436   0.023603
    34  S   -0.558920   0.013847
    35  C   -0.041557  -0.007560
    36  H    0.120251  -0.001023
    37  C    0.541275   0.011048
    38  O   -0.137120  -0.000574
    39  C    0.821712  -0.007262
    40  C   -0.223475  -0.000070
    41  C   -0.067547   0.010613
    42  S   -0.281373   0.000790
    43  H    0.148767  -0.000001
    44  H    0.145726  -0.000071
    45  H    0.145692  -0.000112
    46  C   -0.473134  -0.004301
    47  O   -0.128057   0.000455
    48  C   -0.329740   0.009608
    49  H    0.113493   0.000189
    50  C   -0.262311  -0.000090
    51  H    0.141101  -0.000589
    52  H    0.141107   0.000147
    53  H    0.159428   0.000021
    54  H    0.123194   0.000105
 Sum of Mulliken charges =  -1.00000   1.00000

 Dipole moment (field-independent basis, Debye):
    X=             11.3161    Y=             -0.9921    Z=              0.0344  Tot=             11.3595
 Quadrupole moment (field-independent basis, Debye-Ang):
   XX=           -314.2105   YY=           -263.3869   ZZ=           -223.9328
   XY=              8.6468   XZ=             12.3181   YZ=             18.6146

 Normal termination of Gaussian 16 at Tue Oct  5 05:57:31 2021.
