 Gaussian 16, Revision C.01,
 Gaussian 16:  ES64L-G16RevC.01  3-Jul-2019

 -------------------------------------
 # opt=modredundant b3lyp/6-311+g(d,p)
 -------------------------------------

 ------------
 NDI_-115.pdb
 ------------
 Symbolic Z-matrix:
 Charge = -1 Multiplicity = 2

 SCF Done:  E(UB3LYP) =  -2359.41810458     A.U. after   23 cycles
 SCF Done:  E(UB3LYP) =  -2359.42566505     A.U. after   23 cycles
 SCF Done:  E(UB3LYP) =  -2359.42695951     A.U. after   19 cycles
 SCF Done:  E(UB3LYP) =  -2359.42730701     A.U. after   20 cycles
 SCF Done:  E(UB3LYP) =  -2359.42774457     A.U. after   17 cycles
 SCF Done:  E(UB3LYP) =  -2359.42782819     A.U. after   18 cycles
 SCF Done:  E(UB3LYP) =  -2359.42784701     A.U. after   14 cycles
 SCF Done:  E(UB3LYP) =  -2359.42785628     A.U. after   13 cycles
 SCF Done:  E(UB3LYP) =  -2359.42786396     A.U. after   15 cycles
 SCF Done:  E(UB3LYP) =  -2359.42786828     A.U. after   13 cycles
 SCF Done:  E(UB3LYP) =  -2359.42792129     A.U. after   12 cycles
 SCF Done:  E(UB3LYP) =  -2359.42792184     A.U. after   11 cycles
 SCF Done:  E(UB3LYP) =  -2359.42792204     A.U. after   11 cycles
 SCF Done:  E(UB3LYP) =  -2359.42792207     A.U. after   11 cycles
 SCF Done:  E(UB3LYP) =  -2359.42792208     A.U. after    9 cycles
 SCF Done:  E(UB3LYP) =  -2359.42792208     A.U. after   10 cycles
 SCF Done:  E(UB3LYP) =  -2359.42792209     A.U. after    8 cycles
 SCF Done:  E(UB3LYP) =  -2359.42792210     A.U. after    9 cycles
 SCF Done:  E(UB3LYP) =  -2359.42792213     A.U. after    9 cycles
 SCF Done:  E(UB3LYP) =  -2359.42792214     A.U. after    9 cycles
 Optimization completed.
    -- Stationary point found.

                         Standard orientation:
 ---------------------------------------------------------------------
 Center     Atomic      Atomic             Coordinates (Angstroms)
 Number     Number       Type             X           Y           Z
 ---------------------------------------------------------------------
      1          6           0       -3.430518   -2.741925    0.360604
      2          6           0       -2.733825   -1.485838    0.107711
      3          6           0       -3.442293   -0.261644    0.121757
      4          6           0       -4.831657   -0.226300    0.387172
      5          6           0       -5.563842   -1.461482    0.654532
      6          6           0       -1.350880   -1.490515   -0.124200
      7          6           0       -2.733060    0.956380   -0.148493
      8          6           0       -1.336086    0.923173   -0.421083
      9          6           0       -0.639353   -0.321886   -0.371286
     10          6           0       -0.670662    2.160939   -0.826747
     11          6           0       -2.792508    3.438503   -0.432887
     12          6           0       -3.460001    2.173986   -0.145128
     13          6           0       -4.841756    2.178590    0.129623
     14          6           0       -5.516997    1.003668    0.391089
     15          1           0       -6.579415    0.997974    0.599423
     16          1           0       -5.354044    3.132447    0.125182
     17          1           0       -0.829843   -2.438281   -0.077917
     18          7           0       -1.429114    3.348216   -0.754371
     19          7           0       -4.809117   -2.651844    0.622634
     20          8           0       -2.887195   -3.848599    0.356355
     21          8           0       -6.772437   -1.496361    0.895187
     22          8           0       -3.364170    4.531456   -0.416931
     23          8           0        0.489533    2.233715   -1.230904
     24          6           0       -0.721395    4.577563   -1.114846
     25          1           0        0.192029    4.661906   -0.525209
     26          1           0       -0.437270    4.556667   -2.169536
     27          1           0       -1.389962    5.411399   -0.921446
     28          6           0       -5.497701   -3.917047    0.879769
     29          1           0       -5.398038   -4.578638    0.017102
     30          1           0       -5.047924   -4.418256    1.738822
     31          1           0       -6.542856   -3.691678    1.070723
     32          6           0        0.826371   -0.460193   -0.529070
     33          6           0        1.494125   -1.097647   -1.541436
     34         16           0        1.925656    0.060027    0.716065
     35          6           0        2.899428   -1.136699   -1.338774
     36          1           0        0.984883   -1.494518   -2.407417
     37          6           0        3.326761   -0.550458   -0.159398
     38          8           0        3.818300   -1.690254   -2.188878
     39          6           0        4.678266   -0.415951    0.325549
     40          6           0        3.347563   -2.191373   -3.430850
     41          6           0        5.114169    0.159274    1.509945
     42         16           0        6.076382   -0.986532   -0.581135
     43          1           0        4.227877   -2.550120   -3.963770
     44          1           0        2.648132   -3.022208   -3.286475
     45          1           0        2.861026   -1.404679   -4.017514
     46          6           0        6.527262    0.156434    1.683452
     47          8           0        4.197909    0.641121    2.403717
     48          6           0        7.176627   -0.427766    0.632394
     49          1           0        7.035235    0.564945    2.545825
     50          6           0        4.656351    1.540246    3.399533
     51          1           0        8.238671   -0.566196    0.501308
     52          1           0        5.184539    2.391033    2.954131
     53          1           0        3.766332    1.896613    3.916988
     54          1           0        5.313775    1.040251    4.121114
 ---------------------------------------------------------------------

 The electronic state is 2-A.
 Alpha  occ. eigenvalues --  -88.80129 -88.78046 -19.08511 -19.08291 -18.99303
 Alpha  occ. eigenvalues --  -18.99213 -18.99074 -18.98961 -14.26287 -14.26053
 Alpha  occ. eigenvalues --  -10.17801 -10.17572 -10.17544 -10.17529 -10.16281
 Alpha  occ. eigenvalues --  -10.15857 -10.15809 -10.15093 -10.13388 -10.12643
 Alpha  occ. eigenvalues --  -10.11894 -10.11891 -10.11017 -10.10386 -10.10194
 Alpha  occ. eigenvalues --  -10.10156 -10.10114 -10.09921 -10.09192 -10.08625
 Alpha  occ. eigenvalues --  -10.08501 -10.08491 -10.08465 -10.08217 -10.07898
 Alpha  occ. eigenvalues --  -10.07832  -7.88685  -7.86606  -5.84993  -5.84611
 Alpha  occ. eigenvalues --   -5.84253  -5.82934  -5.82541  -5.82143  -1.00088
 Alpha  occ. eigenvalues --   -0.99674  -0.95369  -0.95276  -0.93296  -0.93184
 Alpha  occ. eigenvalues --   -0.83511  -0.83276  -0.81282  -0.79698  -0.78616
 Alpha  occ. eigenvalues --   -0.74031  -0.71579  -0.69813  -0.68280  -0.66740
 Alpha  occ. eigenvalues --   -0.66116  -0.65434  -0.63869  -0.63380  -0.61956
 Alpha  occ. eigenvalues --   -0.60954  -0.60269  -0.58602  -0.54836  -0.53932
 Alpha  occ. eigenvalues --   -0.53365  -0.52264  -0.51581  -0.49835  -0.48045
 Alpha  occ. eigenvalues --   -0.47584  -0.45958  -0.45788  -0.45123  -0.42939
 Alpha  occ. eigenvalues --   -0.41792  -0.40833  -0.40623  -0.40199  -0.40015
 Alpha  occ. eigenvalues --   -0.39237  -0.38148  -0.38022  -0.37806  -0.37505
 Alpha  occ. eigenvalues --   -0.36921  -0.36559  -0.36451  -0.35104  -0.34419
 Alpha  occ. eigenvalues --   -0.34126  -0.33683  -0.33447  -0.32890  -0.32547
 Alpha  occ. eigenvalues --   -0.32368  -0.32207  -0.31616  -0.30436  -0.30269
 Alpha  occ. eigenvalues --   -0.30133  -0.29974  -0.29844  -0.29478  -0.29150
 Alpha  occ. eigenvalues --   -0.28970  -0.28758  -0.27818  -0.27239  -0.26985
 Alpha  occ. eigenvalues --   -0.25967  -0.25590  -0.24582  -0.24402  -0.24224
 Alpha  occ. eigenvalues --   -0.22665  -0.19921  -0.19493  -0.18400  -0.17795
 Alpha  occ. eigenvalues --   -0.17592  -0.17074  -0.16744  -0.16216  -0.16082
 Alpha  occ. eigenvalues --   -0.15544  -0.14877  -0.13833  -0.10313  -0.05083
 Alpha virt. eigenvalues --    0.03516   0.04650   0.05806   0.06636   0.06794
 Alpha virt. eigenvalues --    0.07275   0.07470   0.08470   0.08664   0.09029
 Alpha virt. eigenvalues --    0.09090   0.09434   0.09909   0.10417   0.10513

  Beta  occ. eigenvalues --  -88.80129 -88.78040 -19.08509 -19.08292 -18.99110
  Beta  occ. eigenvalues --  -18.99007 -18.98883 -18.98739 -14.26339 -14.26106
  Beta  occ. eigenvalues --  -10.17751 -10.17526 -10.17498 -10.17487 -10.16281
  Beta  occ. eigenvalues --  -10.15853 -10.15809 -10.15095 -10.13389 -10.12639
  Beta  occ. eigenvalues --  -10.11904 -10.11886 -10.11018 -10.10385 -10.10172
  Beta  occ. eigenvalues --  -10.10155 -10.10089 -10.09977 -10.09000 -10.08611
  Beta  occ. eigenvalues --  -10.08342 -10.08312 -10.08296 -10.08158 -10.07811
  Beta  occ. eigenvalues --  -10.07750  -7.88684  -7.86599  -5.84993  -5.84611
  Beta  occ. eigenvalues --   -5.84253  -5.82924  -5.82533  -5.82134  -1.00084
  Beta  occ. eigenvalues --   -0.99676  -0.95123  -0.95022  -0.92955  -0.92835
  Beta  occ. eigenvalues --   -0.83390  -0.83158  -0.81272  -0.79593  -0.78522
  Beta  occ. eigenvalues --   -0.73710  -0.71266  -0.69735  -0.68255  -0.66670
  Beta  occ. eigenvalues --   -0.65975  -0.65001  -0.63818  -0.63325  -0.61940
  Beta  occ. eigenvalues --   -0.60901  -0.60043  -0.58292  -0.54690  -0.53737
  Beta  occ. eigenvalues --   -0.53258  -0.52121  -0.51534  -0.49779  -0.48032
  Beta  occ. eigenvalues --   -0.47523  -0.45951  -0.45659  -0.44996  -0.42777
  Beta  occ. eigenvalues --   -0.41688  -0.40817  -0.40593  -0.40200  -0.39993
  Beta  occ. eigenvalues --   -0.39078  -0.37978  -0.37904  -0.37617  -0.37483
  Beta  occ. eigenvalues --   -0.36832  -0.36434  -0.36399  -0.35027  -0.34282
  Beta  occ. eigenvalues --   -0.34027  -0.33590  -0.33378  -0.32859  -0.32383
  Beta  occ. eigenvalues --   -0.32127  -0.31936  -0.31494  -0.30161  -0.30076
  Beta  occ. eigenvalues --   -0.30018  -0.29730  -0.29634  -0.29026  -0.28908
  Beta  occ. eigenvalues --   -0.28627  -0.28122  -0.27787  -0.26998  -0.26713
  Beta  occ. eigenvalues --   -0.25936  -0.25567  -0.24522  -0.24323  -0.24124
  Beta  occ. eigenvalues --   -0.21805  -0.19813  -0.18485  -0.18206  -0.17459
  Beta  occ. eigenvalues --   -0.17065  -0.16708  -0.16657  -0.15895  -0.15607
  Beta  occ. eigenvalues --   -0.15338  -0.14795  -0.12261  -0.10235
  Beta virt. eigenvalues --   -0.00491   0.03590   0.05794   0.05818   0.06740
  Beta virt. eigenvalues --    0.07127   0.07329   0.08292   0.08527   0.08714
  Beta virt. eigenvalues --    0.09041   0.09102   0.09438   0.09919   0.10419

 Mulliken charges and spin densities:
               1          2
     1  C    0.357707   0.017313
     2  C   -0.065334   0.133702
     3  C    0.108222  -0.041770
     4  C    0.255510   0.112032
     5  C    0.204779   0.018468
     6  C   -0.622866   0.045248
     7  C    0.171975  -0.038048
     8  C   -0.050423   0.146228
     9  C    0.341523   0.070878
    10  C   -0.267927   0.016099
    11  C    0.260911   0.019577
    12  C    0.214789   0.117808
    13  C   -0.517601   0.058986
    14  C   -0.664756   0.066892
    15  H    0.130121  -0.004799
    16  H    0.131532  -0.004276
    17  H    0.138538  -0.002995
    18  N   -0.118172  -0.020513
    19  N   -0.142990  -0.020905
    20  O   -0.355299   0.077262
    21  O   -0.350170   0.072096
    22  O   -0.350914   0.071896
    23  O   -0.236432   0.083529
    24  C   -0.184923   0.001326
    25  H    0.159152  -0.000809
    26  H    0.154076  -0.001103
    27  H    0.169766  -0.000379
    28  C   -0.191754   0.001333
    29  H    0.152076  -0.000950
    30  H    0.153615  -0.000953
    31  H    0.169302  -0.000364
    32  C    0.395029  -0.028352
    33  C   -0.628898   0.024615
    34  S   -0.380710   0.013446
    35  C   -0.203852  -0.008403
    36  H    0.108363  -0.000259
    37  C    0.359315  -0.005068
    38  O   -0.121157  -0.000170
    39  C    0.892107   0.003219
    40  C   -0.251301   0.000601
    41  C   -0.058038   0.004958
    42  S   -0.268205   0.000319
    43  H    0.148707  -0.000011
    44  H    0.142163  -0.000007
    45  H    0.150061  -0.000020
    46  C   -0.388472  -0.000088
    47  O   -0.133160  -0.000200
    48  C   -0.330208   0.002566
    49  H    0.113251   0.000048
    50  C   -0.262858   0.000069
    51  H    0.140800  -0.000150
    52  H    0.141368   0.000032
    53  H    0.158407   0.000009
    54  H    0.123256   0.000036
 Sum of Mulliken charges =  -1.00000   1.00000

 Dipole moment (field-independent basis, Debye):
    X=             11.3966    Y=             -0.6777    Z=             -0.1998  Tot=             11.4185
 Quadrupole moment (field-independent basis, Debye-Ang):
   XX=           -316.2985   YY=           -271.2968   ZZ=           -215.0420
   XY=              6.8415   XZ=             12.1482   YZ=             16.0407

 Normal termination of Gaussian 16 at Tue Oct  5 16:24:18 2021.
