 Gaussian 16, Revision C.01,
 Gaussian 16:  ES64L-G16RevC.01  3-Jul-2019

 -------------------------------------
 # opt=modredundant b3lyp/6-311+g(d,p)
 -------------------------------------

 ----------
 NDI_20.pdb
 ----------
 Symbolic Z-matrix:
 Charge = -1 Multiplicity = 2

 SCF Done:  E(UB3LYP) =  -2359.40958267     A.U. after   23 cycles
 SCF Done:  E(UB3LYP) =  -2359.40634186     A.U. after   23 cycles
 SCF Done:  E(UB3LYP) =  -2359.42150945     A.U. after   18 cycles
 SCF Done:  E(UB3LYP) =  -2359.42418066     A.U. after   18 cycles
 SCF Done:  E(UB3LYP) =  -2359.42394953     A.U. after   19 cycles
 SCF Done:  E(UB3LYP) =  -2359.42490320     A.U. after   18 cycles
 SCF Done:  E(UB3LYP) =  -2359.42512837     A.U. after   18 cycles
 SCF Done:  E(UB3LYP) =  -2359.42298356     A.U. after   24 cycles
 SCF Done:  E(UB3LYP) =  -2359.42568529     A.U. after   18 cycles
 SCF Done:  E(UB3LYP) =  -2359.42601494     A.U. after   23 cycles
 SCF Done:  E(UB3LYP) =  -2359.42728982     A.U. after   15 cycles
 SCF Done:  E(UB3LYP) =  -2359.42729545     A.U. after   16 cycles
 SCF Done:  E(UB3LYP) =  -2359.42729634     A.U. after   14 cycles
 SCF Done:  E(UB3LYP) =  -2359.42729741     A.U. after   14 cycles
 SCF Done:  E(UB3LYP) =  -2359.42729811     A.U. after   12 cycles
 SCF Done:  E(UB3LYP) =  -2359.42729848     A.U. after   13 cycles
 SCF Done:  E(UB3LYP) =  -2359.42729875     A.U. after   13 cycles
 SCF Done:  E(UB3LYP) =  -2359.42729897     A.U. after   13 cycles
 SCF Done:  E(UB3LYP) =  -2359.42729906     A.U. after   10 cycles
 SCF Done:  E(UB3LYP) =  -2359.42729908     A.U. after   11 cycles
 Optimization completed.
    -- Stationary point found.

                         Standard orientation:
 ---------------------------------------------------------------------
 Center     Atomic      Atomic             Coordinates (Angstroms)
 Number     Number       Type             X           Y           Z
 ---------------------------------------------------------------------
      1          6           0       -2.603937   -3.014478    0.175436
      2          6           0       -2.288463   -1.593646    0.053218
      3          6           0       -3.320405   -0.625861    0.064440
      4          6           0       -4.672071   -1.011290    0.200704
      5          6           0       -5.030676   -2.424200    0.328454
      6          6           0       -0.957029   -1.187765   -0.005656
      7          6           0       -2.966368    0.757965   -0.073874
      8          6           0       -1.598677    1.150021   -0.216713
      9          6           0       -0.561850    0.149971   -0.116638
     10          6           0       -1.338874    2.535982   -0.606284
     11          6           0       -3.750151    3.126200   -0.251689
     12          6           0       -4.023303    1.705691   -0.076627
     13          6           0       -5.361793    1.295899    0.076791
     14          6           0       -5.687109   -0.037451    0.212700
     15          1           0       -6.713616   -0.362668    0.323273
     16          1           0       -6.124443    2.064405    0.076079
     17          1           0       -0.212422   -1.966881    0.096226
     18          7           0       -2.414714    3.449010   -0.517893
     19          7           0       -3.964561   -3.344416    0.300323
     20          8           0       -1.762098   -3.913446    0.175204
     21          8           0       -6.190785   -2.818870    0.452290
     22          8           0       -4.616931    4.002923   -0.203128
     23          8           0       -0.262725    2.974393   -1.019812
     24          6           0       -2.095660    4.841379   -0.836556
     25          1           0       -1.269584    5.184778   -0.212355
     26          1           0       -1.784669    4.930344   -1.879626
     27          1           0       -2.989074    5.431886   -0.655332
     28          6           0       -4.272752   -4.770000    0.419324
     29          1           0       -3.890009   -5.306652   -0.450503
     30          1           0       -3.790631   -5.184223    1.306968
     31          1           0       -5.351891   -4.870471    0.489249
     32          6           0        0.871629    0.413363    0.059598
     33          6           0        1.529499    1.531004    0.522701
     34         16           0        2.038734   -0.834866   -0.362906
     35          6           0        2.932249    1.382553    0.570199
     36          1           0        1.014633    2.431847    0.805234
     37          6           0        3.406084    0.155509    0.126823
     38          8           0        3.820503    2.326789    1.005560
     39          6           0        4.770384   -0.294843    0.052888
     40          6           0        3.309960    3.621322    1.299459
     41          6           0        5.251356   -1.522035   -0.386559
     42         16           0        6.132558    0.710255    0.542662
     43          1           0        4.176253    4.237471    1.539449
     44          1           0        2.781923    4.042957    0.438637
     45          1           0        2.634278    3.594393    2.161371
     46          6           0        6.666563   -1.656167   -0.328513
     47          8           0        4.371200   -2.464562   -0.837478
     48          6           0        7.274687   -0.530203    0.153840
     49          1           0        7.207266   -2.542042   -0.630426
     50          6           0        4.866490   -3.765367   -1.103194
     51          1           0        8.329354   -0.356951    0.301761
     52          1           0        5.342783   -4.199649   -0.216358
     53          1           0        4.000565   -4.365882   -1.378708
     54          1           0        5.581528   -3.760174   -1.934778
 ---------------------------------------------------------------------

 The electronic state is 2-A.
 Alpha  occ. eigenvalues --  -88.80152 -88.78075 -19.08643 -19.08032 -18.99644
 Alpha  occ. eigenvalues --  -18.99502 -18.99119 -18.98946 -14.26537 -14.26150
 Alpha  occ. eigenvalues --  -10.18139 -10.17861 -10.17699 -10.17556 -10.16305
 Alpha  occ. eigenvalues --  -10.16002 -10.15312 -10.14942 -10.13407 -10.12683
 Alpha  occ. eigenvalues --  -10.12061 -10.11801 -10.11062 -10.10647 -10.10599
 Alpha  occ. eigenvalues --  -10.10380 -10.10300 -10.09928 -10.09286 -10.08730
 Alpha  occ. eigenvalues --  -10.08616 -10.08531 -10.08375 -10.08174 -10.07961
 Alpha  occ. eigenvalues --  -10.07896  -7.88705  -7.86643  -5.85014  -5.84631
 Alpha  occ. eigenvalues --   -5.84276  -5.82966  -5.82577  -5.82191  -1.00250
 Alpha  occ. eigenvalues --   -0.99409  -0.95708  -0.95383  -0.93647  -0.93239
 Alpha  occ. eigenvalues --   -0.83795  -0.83353  -0.81310  -0.79678  -0.78608
 Alpha  occ. eigenvalues --   -0.74095  -0.71675  -0.69823  -0.68349  -0.66904
 Alpha  occ. eigenvalues --   -0.65794  -0.65635  -0.63914  -0.63537  -0.61915
 Alpha  occ. eigenvalues --   -0.61112  -0.60392  -0.58451  -0.55119  -0.54029
 Alpha  occ. eigenvalues --   -0.53565  -0.52402  -0.51501  -0.49886  -0.48134
 Alpha  occ. eigenvalues --   -0.47422  -0.46021  -0.45751  -0.45245  -0.43152
 Alpha  occ. eigenvalues --   -0.41988  -0.40859  -0.40713  -0.39813  -0.39675
 Alpha  occ. eigenvalues --   -0.39325  -0.38341  -0.37994  -0.37913  -0.37492
 Alpha  occ. eigenvalues --   -0.37036  -0.36688  -0.36564  -0.35080  -0.34261
 Alpha  occ. eigenvalues --   -0.34204  -0.33789  -0.33203  -0.33055  -0.32703
 Alpha  occ. eigenvalues --   -0.32611  -0.32260  -0.31318  -0.30695  -0.30563
 Alpha  occ. eigenvalues --   -0.30341  -0.30112  -0.29896  -0.29611  -0.29385
 Alpha  occ. eigenvalues --   -0.29018  -0.28551  -0.27706  -0.27452  -0.27018
 Alpha  occ. eigenvalues --   -0.26084  -0.25549  -0.25181  -0.24904  -0.23614
 Alpha  occ. eigenvalues --   -0.22796  -0.20356  -0.19420  -0.18652  -0.17947
 Alpha  occ. eigenvalues --   -0.17810  -0.17261  -0.16982  -0.16439  -0.15989
 Alpha  occ. eigenvalues --   -0.15827  -0.14665  -0.13845  -0.10207  -0.05117
 Alpha virt. eigenvalues --    0.02656   0.04644   0.05797   0.06277   0.06883
 Alpha virt. eigenvalues --    0.07371   0.07511   0.08605   0.08916   0.09131
 Alpha virt. eigenvalues --    0.09566   0.09825   0.10227   0.10268   0.10630

  Beta  occ. eigenvalues --  -88.80150 -88.78060 -19.08629 -19.08041 -18.99474
  Beta  occ. eigenvalues --  -18.99308 -18.98940 -18.98740 -14.26583 -14.26201
  Beta  occ. eigenvalues --  -10.18095 -10.17820 -10.17643 -10.17512 -10.16306
  Beta  occ. eigenvalues --  -10.15967 -10.15312 -10.14975 -10.13431 -10.12649
  Beta  occ. eigenvalues --  -10.11987 -10.11854 -10.11075 -10.10598 -10.10510
  Beta  occ. eigenvalues --  -10.10380 -10.10350 -10.09986 -10.09111 -10.08587
  Beta  occ. eigenvalues --  -10.08442 -10.08382 -10.08345 -10.08112 -10.07884
  Beta  occ. eigenvalues --  -10.07816  -7.88703  -7.86630  -5.85013  -5.84630
  Beta  occ. eigenvalues --   -5.84267  -5.82959  -5.82569  -5.82146  -1.00221
  Beta  occ. eigenvalues --   -0.99428  -0.95483  -0.95144  -0.93337  -0.92911
  Beta  occ. eigenvalues --   -0.83686  -0.83239  -0.81276  -0.79561  -0.78515
  Beta  occ. eigenvalues --   -0.73787  -0.71383  -0.69727  -0.68298  -0.66809
  Beta  occ. eigenvalues --   -0.65687  -0.65258  -0.63820  -0.63476  -0.61869
  Beta  occ. eigenvalues --   -0.61063  -0.60140  -0.58193  -0.54972  -0.53839
  Beta  occ. eigenvalues --   -0.53472  -0.52234  -0.51454  -0.49839  -0.48108
  Beta  occ. eigenvalues --   -0.47359  -0.45951  -0.45673  -0.45129  -0.43000
  Beta  occ. eigenvalues --   -0.41894  -0.40820  -0.40670  -0.39826  -0.39639
  Beta  occ. eigenvalues --   -0.39167  -0.38128  -0.37919  -0.37760  -0.37459
  Beta  occ. eigenvalues --   -0.36931  -0.36628  -0.36465  -0.34988  -0.34155
  Beta  occ. eigenvalues --   -0.34093  -0.33702  -0.33132  -0.32960  -0.32542
  Beta  occ. eigenvalues --   -0.32367  -0.32020  -0.31201  -0.30417  -0.30281
  Beta  occ. eigenvalues --   -0.30187  -0.30021  -0.29630  -0.29222  -0.29060
  Beta  occ. eigenvalues --   -0.28513  -0.28309  -0.27631  -0.27215  -0.26771
  Beta  occ. eigenvalues --   -0.25992  -0.25499  -0.25044  -0.24789  -0.23518
  Beta  occ. eigenvalues --   -0.22212  -0.19937  -0.18546  -0.18465  -0.17636
  Beta  occ. eigenvalues --   -0.17377  -0.16951  -0.16714  -0.16222  -0.15732
  Beta  occ. eigenvalues --   -0.15442  -0.14412  -0.12576  -0.09740
  Beta virt. eigenvalues --   -0.00864   0.03040   0.05626   0.05799   0.06695
  Beta virt. eigenvalues --    0.06889   0.07508   0.08117   0.08610   0.08920
  Beta virt. eigenvalues --    0.09138   0.09579   0.10021   0.10247   0.10305

 Mulliken charges and spin densities:
               1          2
     1  C    0.229847   0.014959
     2  C   -0.118620   0.129320
     3  C    0.175828  -0.038078
     4  C    0.206750   0.097256
     5  C    0.171249   0.017913
     6  C   -0.044175   0.017869
     7  C    0.240751  -0.029894
     8  C    0.515730   0.133274
     9  C    0.208443   0.093477
    10  C   -0.842013   0.012745
    11  C    0.182354   0.018847
    12  C    0.133341   0.098465
    13  C   -0.483672   0.054997
    14  C   -0.579389   0.062911
    15  H    0.129860  -0.004338
    16  H    0.132504  -0.003998
    17  H    0.151056  -0.000812
    18  N   -0.060440  -0.020417
    19  N   -0.139983  -0.018964
    20  O   -0.358255   0.072462
    21  O   -0.341882   0.063850
    22  O   -0.350897   0.067713
    23  O   -0.301891   0.077538
    24  C   -0.158118   0.001755
    25  H    0.147001  -0.000778
    26  H    0.157336  -0.001083
    27  H    0.169493  -0.000371
    28  C   -0.192103   0.001090
    29  H    0.153519  -0.000833
    30  H    0.153739  -0.000879
    31  H    0.168350  -0.000320
    32  C   -0.098166  -0.035799
    33  C   -0.336098   0.052158
    34  S   -0.698555   0.023048
    35  C   -0.238897  -0.019111
    36  H    0.135894  -0.003349
    37  C    0.701954   0.043073
    38  O   -0.130754  -0.001302
    39  C    0.887698  -0.016078
    40  C   -0.243382   0.000056
    41  C   -0.019236   0.023973
    42  S   -0.275296   0.001977
    43  H    0.146693   0.000005
    44  H    0.165024  -0.000181
    45  H    0.137468  -0.000251
    46  C   -0.595615  -0.009873
    47  O   -0.119382   0.002098
    48  C   -0.312343   0.024443
    49  H    0.115765   0.000480
    50  C   -0.246313  -0.000218
    51  H    0.141378  -0.001522
    52  H    0.136232   0.000415
    53  H    0.165322   0.000001
    54  H    0.124894   0.000281
 Sum of Mulliken charges =  -1.00000   1.00000

 Dipole moment (field-independent basis, Debye):
    X=             11.2449    Y=             -0.3875    Z=              0.6236  Tot=             11.2688
 Quadrupole moment (field-independent basis, Debye-Ang):
   XX=           -315.6893   YY=           -256.0939   ZZ=           -229.5952
   XY=             -5.3771   XZ=              1.6130   YZ=             11.3451

 Normal termination of Gaussian 16 at Tue Oct  5 19:02:23 2021.
