 Gaussian 16, Revision C.01,
 Gaussian 16:  ES64L-G16RevC.01  3-Jul-2019

 -------------------------------------
 # opt=modredundant b3lyp/6-311+g(d,p)
 -------------------------------------

 ------------
 NDI_-170.pdb
 ------------
 Symbolic Z-matrix:
 Charge = -1 Multiplicity = 2

 SCF Done:  E(UB3LYP) =  -2359.38071594     A.U. after   24 cycles
 SCF Done:  E(UB3LYP) =  -2359.40913480     A.U. after   23 cycles
 SCF Done:  E(UB3LYP) =  -2359.41912834     A.U. after   22 cycles
 SCF Done:  E(UB3LYP) =  -2359.42160306     A.U. after   19 cycles
 SCF Done:  E(UB3LYP) =  -2359.42213457     A.U. after   17 cycles
 SCF Done:  E(UB3LYP) =  -2359.42229452     A.U. after   20 cycles
 SCF Done:  E(UB3LYP) =  -2359.42241711     A.U. after   21 cycles
 SCF Done:  E(UB3LYP) =  -2359.42261026     A.U. after   15 cycles
 SCF Done:  E(UB3LYP) =  -2359.42319083     A.U. after   21 cycles
 SCF Done:  E(UB3LYP) =  -2359.42334693     A.U. after   21 cycles
 SCF Done:  E(UB3LYP) =  -2359.42399835     A.U. after   11 cycles
 SCF Done:  E(UB3LYP) =  -2359.42399885     A.U. after   11 cycles
 SCF Done:  E(UB3LYP) =  -2359.42399915     A.U. after   10 cycles
 SCF Done:  E(UB3LYP) =  -2359.42399932     A.U. after   10 cycles
 SCF Done:  E(UB3LYP) =  -2359.42399936     A.U. after    9 cycles
 SCF Done:  E(UB3LYP) =  -2359.42399942     A.U. after    9 cycles
 SCF Done:  E(UB3LYP) =  -2359.42399950     A.U. after   10 cycles
 SCF Done:  E(UB3LYP) =  -2359.42399957     A.U. after    9 cycles
 SCF Done:  E(UB3LYP) =  -2359.42399963     A.U. after    9 cycles
 SCF Done:  E(UB3LYP) =  -2359.42399965     A.U. after    9 cycles
 Optimization completed.
    -- Stationary point found.

                         Standard orientation:
 ---------------------------------------------------------------------
 Center     Atomic      Atomic             Coordinates (Angstroms)
 Number     Number       Type             X           Y           Z
 ---------------------------------------------------------------------
      1          6           0       -3.541921   -2.663395    0.136012
      2          6           0       -2.799171   -1.422259   -0.062911
      3          6           0       -3.440552   -0.171348    0.094422
      4          6           0       -4.804109   -0.092909    0.450691
      5          6           0       -5.583838   -1.312442    0.659824
      6          6           0       -1.434677   -1.475996   -0.340974
      7          6           0       -2.674117    1.020240   -0.122801
      8          6           0       -1.296670    0.940042   -0.487596
      9          6           0       -0.640793   -0.340819   -0.542857
     10          6           0       -0.654769    2.168620   -0.945621
     11          6           0       -2.633700    3.519191   -0.221898
     12          6           0       -3.338476    2.266201    0.023254
     13          6           0       -4.696153    2.317375    0.393339
     14          6           0       -5.421365    1.162555    0.604451
     15          1           0       -6.467164    1.193303    0.882251
     16          1           0       -5.151070    3.294242    0.498999
     17          1           0       -0.987722   -2.459305   -0.331604
     18          7           0       -1.323952    3.386439   -0.698417
     19          7           0       -4.897357   -2.531449    0.481564
     20          8           0       -3.054310   -3.789558    0.018427
     21          8           0       -6.775216   -1.310013    0.972095
     22          8           0       -3.137702    4.633121   -0.058291
     23          8           0        0.419983    2.215319   -1.546582
     24          6           0       -0.604352    4.600841   -1.084693
     25          1           0        0.401877    4.577285   -0.666486
     26          1           0       -0.513628    4.662229   -2.171991
     27          1           0       -1.166961    5.450471   -0.708415
     28          6           0       -5.636578   -3.779359    0.675736
     29          1           0       -5.594388   -4.381798   -0.233372
     30          1           0       -5.185697   -4.359658    1.483141
     31          1           0       -6.663164   -3.521226    0.918675
     32          6           0        0.811175   -0.591958   -0.600444
     33          6           0        1.393596   -1.827147   -0.850033
     34         16           0        2.020546    0.513335    0.006557
     35          6           0        2.771201   -1.878591   -0.563171
     36          1           0        0.837849   -2.664836   -1.242152
     37          6           0        3.294213   -0.697081   -0.054628
     38          8           0        3.595997   -2.955192   -0.754572
     39          6           0        4.661245   -0.417206    0.299455
     40          6           0        3.010202   -4.156081   -1.233436
     41          6           0        5.194309    0.754305    0.822265
     42         16           0        5.956018   -1.599010    0.112851
     43          1           0        3.820882   -4.881437   -1.298847
     44          1           0        2.243456   -4.527816   -0.545001
     45          1           0        2.567654   -4.015505   -2.225851
     46          6           0        6.597069    0.711702    1.056940
     47          8           0        4.367886    1.808859    1.087082
     48          6           0        7.142987   -0.495741    0.719885
     49          1           0        7.171849    1.533942    1.459425
     50          6           0        4.961356    3.070068    1.343526
     51          1           0        8.174182   -0.803511    0.798677
     52          1           0        5.621665    3.373311    0.522829
     53          1           0        4.137976    3.778334    1.426090
     54          1           0        5.526774    3.064713    2.283378
 ---------------------------------------------------------------------

 The electronic state is 2-A.
 Alpha  occ. eigenvalues --  -88.80071 -88.77819 -19.08452 -19.08167 -18.99637
 Alpha  occ. eigenvalues --  -18.99569 -18.99051 -18.98891 -14.26566 -14.26027
 Alpha  occ. eigenvalues --  -10.18128 -10.17910 -10.17494 -10.17475 -10.16158
 Alpha  occ. eigenvalues --  -10.15886 -10.15682 -10.14882 -10.13294 -10.12628
 Alpha  occ. eigenvalues --  -10.11986 -10.11835 -10.10968 -10.10655 -10.10634
 Alpha  occ. eigenvalues --  -10.10205 -10.10169 -10.09855 -10.09068 -10.08679
 Alpha  occ. eigenvalues --  -10.08627 -10.08591 -10.08484 -10.08418 -10.07931
 Alpha  occ. eigenvalues --  -10.07870  -7.88626  -7.86344  -5.84934  -5.84552
 Alpha  occ. eigenvalues --   -5.84197  -5.82670  -5.82264  -5.81893  -1.00086
 Alpha  occ. eigenvalues --   -0.99545  -0.95706  -0.95302  -0.93647  -0.93180
 Alpha  occ. eigenvalues --   -0.83801  -0.83303  -0.81215  -0.79648  -0.78582
 Alpha  occ. eigenvalues --   -0.74078  -0.71634  -0.69815  -0.68233  -0.66692
 Alpha  occ. eigenvalues --   -0.66206  -0.65481  -0.63838  -0.63438  -0.61907
 Alpha  occ. eigenvalues --   -0.61050  -0.60318  -0.58571  -0.54983  -0.54081
 Alpha  occ. eigenvalues --   -0.53419  -0.52504  -0.51369  -0.49760  -0.48008
 Alpha  occ. eigenvalues --   -0.47544  -0.46141  -0.45771  -0.45195  -0.43114
 Alpha  occ. eigenvalues --   -0.42178  -0.40706  -0.40284  -0.40090  -0.39778
 Alpha  occ. eigenvalues --   -0.39146  -0.38374  -0.37997  -0.37926  -0.37437
 Alpha  occ. eigenvalues --   -0.36992  -0.36660  -0.36544  -0.35391  -0.34356
 Alpha  occ. eigenvalues --   -0.33904  -0.33744  -0.33311  -0.33006  -0.32586
 Alpha  occ. eigenvalues --   -0.32514  -0.32319  -0.31534  -0.30607  -0.30464
 Alpha  occ. eigenvalues --   -0.30328  -0.29969  -0.29846  -0.29718  -0.29370
 Alpha  occ. eigenvalues --   -0.28856  -0.28456  -0.27691  -0.27578  -0.26933
 Alpha  occ. eigenvalues --   -0.25968  -0.25480  -0.25149  -0.24537  -0.23653
 Alpha  occ. eigenvalues --   -0.22672  -0.20229  -0.19369  -0.18674  -0.17934
 Alpha  occ. eigenvalues --   -0.17760  -0.17242  -0.16816  -0.16468  -0.15946
 Alpha  occ. eigenvalues --   -0.15828  -0.14438  -0.13825  -0.10134  -0.05040
 Alpha virt. eigenvalues --    0.02681   0.04815   0.05856   0.06093   0.06833
 Alpha virt. eigenvalues --    0.07421   0.07448   0.08608   0.08879   0.09102
 Alpha virt. eigenvalues --    0.09418   0.09907   0.10262   0.10447   0.10584

  Beta  occ. eigenvalues --  -88.80068 -88.77813 -19.08437 -19.08177 -18.99465
  Beta  occ. eigenvalues --  -18.99380 -18.98869 -18.98683 -14.26613 -14.26077
  Beta  occ. eigenvalues --  -10.18082 -10.17865 -10.17451 -10.17425 -10.16158
  Beta  occ. eigenvalues --  -10.15845 -10.15682 -10.14921 -10.13323 -10.12587
  Beta  occ. eigenvalues --  -10.12042 -10.11750 -10.10983 -10.10633 -10.10526
  Beta  occ. eigenvalues --  -10.10222 -10.10204 -10.09909 -10.08888 -10.08549
  Beta  occ. eigenvalues --  -10.08541 -10.08436 -10.08375 -10.08326 -10.07856
  Beta  occ. eigenvalues --  -10.07788  -7.88623  -7.86339  -5.84932  -5.84550
  Beta  occ. eigenvalues --   -5.84187  -5.82667  -5.82260  -5.81877  -1.00052
  Beta  occ. eigenvalues --   -0.99567  -0.95482  -0.95060  -0.93340  -0.92849
  Beta  occ. eigenvalues --   -0.83695  -0.83188  -0.81177  -0.79531  -0.78491
  Beta  occ. eigenvalues --   -0.73773  -0.71343  -0.69709  -0.68189  -0.66608
  Beta  occ. eigenvalues --   -0.66087  -0.65094  -0.63756  -0.63373  -0.61868
  Beta  occ. eigenvalues --   -0.61001  -0.60081  -0.58291  -0.54835  -0.53911
  Beta  occ. eigenvalues --   -0.53290  -0.52403  -0.51289  -0.49692  -0.47977
  Beta  occ. eigenvalues --   -0.47493  -0.46075  -0.45691  -0.45077  -0.42974
  Beta  occ. eigenvalues --   -0.42086  -0.40664  -0.40240  -0.40104  -0.39714
  Beta  occ. eigenvalues --   -0.39019  -0.38157  -0.37927  -0.37745  -0.37405
  Beta  occ. eigenvalues --   -0.36913  -0.36548  -0.36479  -0.35301  -0.34207
  Beta  occ. eigenvalues --   -0.33856  -0.33630  -0.33225  -0.32888  -0.32432
  Beta  occ. eigenvalues --   -0.32315  -0.32077  -0.31392  -0.30377  -0.30246
  Beta  occ. eigenvalues --   -0.30138  -0.29862  -0.29574  -0.29123  -0.29077
  Beta  occ. eigenvalues --   -0.28479  -0.28253  -0.27522  -0.27416  -0.26691
  Beta  occ. eigenvalues --   -0.25854  -0.25420  -0.25020  -0.24444  -0.23542
  Beta  occ. eigenvalues --   -0.22102  -0.19810  -0.18498  -0.18462  -0.17574
  Beta  occ. eigenvalues --   -0.17395  -0.16950  -0.16549  -0.16263  -0.15722
  Beta  occ. eigenvalues --   -0.15368  -0.14196  -0.12557  -0.09680
  Beta virt. eigenvalues --   -0.00801   0.03131   0.05790   0.05858   0.06474
  Beta virt. eigenvalues --    0.06834   0.07442   0.08168   0.08610   0.08883
  Beta virt. eigenvalues --    0.09113   0.09446   0.10128   0.10269   0.10459

 Mulliken charges and spin densities:
               1          2
     1  C    0.293231   0.018254
     2  C   -0.074583   0.122613
     3  C    0.150373  -0.037310
     4  C    0.229266   0.094688
     5  C    0.159145   0.019345
     6  C    0.156056   0.020531
     7  C    0.086778  -0.033751
     8  C    0.299826   0.134028
     9  C    0.278210   0.087237
    10  C   -0.640056   0.013541
    11  C    0.256970   0.018713
    12  C    0.090229   0.104749
    13  C   -0.473386   0.048473
    14  C   -0.575857   0.068762
    15  H    0.129624  -0.004682
    16  H    0.132245  -0.003676
    17  H    0.134661  -0.001038
    18  N   -0.029370  -0.019913
    19  N   -0.145703  -0.019371
    20  O   -0.360484   0.070617
    21  O   -0.341819   0.064067
    22  O   -0.351792   0.068384
    23  O   -0.283532   0.079127
    24  C   -0.170857   0.001649
    25  H    0.156625  -0.000723
    26  H    0.155521  -0.001112
    27  H    0.168366  -0.000387
    28  C   -0.186022   0.001239
    29  H    0.152643  -0.000844
    30  H    0.153282  -0.000888
    31  H    0.168658  -0.000323
    32  C    0.011644  -0.025988
    33  C   -0.520388   0.061388
    34  S   -0.726358   0.011312
    35  C   -0.453798  -0.028250
    36  H    0.120248  -0.002784
    37  C    0.678743   0.046633
    38  O   -0.136240  -0.001318
    39  C    0.879983  -0.019224
    40  C   -0.225909   0.000222
    41  C   -0.049765   0.026733
    42  S   -0.272884   0.001887
    43  H    0.149430  -0.000002
    44  H    0.147070  -0.000234
    45  H    0.141495  -0.000305
    46  C   -0.460767  -0.012488
    47  O   -0.114188   0.002632
    48  C   -0.310747   0.028556
    49  H    0.114306   0.000560
    50  C   -0.257262  -0.000316
    51  H    0.140939  -0.001775
    52  H    0.140161   0.000456
    53  H    0.162136   0.000032
    54  H    0.123906   0.000275
 Sum of Mulliken charges =  -1.00000   1.00000

 Dipole moment (field-independent basis, Debye):
    X=             11.0197    Y=             -1.4628    Z=              0.2883  Tot=             11.1201
 Quadrupole moment (field-independent basis, Debye-Ang):
   XX=           -311.4390   YY=           -256.9322   ZZ=           -231.8937
   XY=             11.0987   XZ=             12.1561   YZ=              9.3361

 Normal termination of Gaussian 16 at Tue Oct  5 05:15:35 2021.
