 Gaussian 16, Revision C.01,
 Gaussian 16:  ES64L-G16RevC.01  3-Jul-2019

 -------------------------------------
 # opt=modredundant b3lyp/6-311+g(d,p)
 -------------------------------------

 -----------
 NDI_-60.pdb
 -----------
 Symbolic Z-matrix:
 Charge = -1 Multiplicity = 2

 SCF Done:  E(UB3LYP) =  -2359.42291666     A.U. after   24 cycles
 SCF Done:  E(UB3LYP) =  -2359.42768259     A.U. after   19 cycles
 SCF Done:  E(UB3LYP) =  -2359.42835261     A.U. after   20 cycles
 SCF Done:  E(UB3LYP) =  -2359.42852831     A.U. after   18 cycles
 SCF Done:  E(UB3LYP) =  -2359.42867001     A.U. after   17 cycles
 SCF Done:  E(UB3LYP) =  -2359.42868035     A.U. after   14 cycles
 SCF Done:  E(UB3LYP) =  -2359.42868702     A.U. after   16 cycles
 SCF Done:  E(UB3LYP) =  -2359.42869138     A.U. after   17 cycles
 SCF Done:  E(UB3LYP) =  -2359.42869396     A.U. after   17 cycles
 SCF Done:  E(UB3LYP) =  -2359.42869564     A.U. after   15 cycles
 SCF Done:  E(UB3LYP) =  -2359.42870119     A.U. after   12 cycles
 SCF Done:  E(UB3LYP) =  -2359.42870137     A.U. after   12 cycles
 SCF Done:  E(UB3LYP) =  -2359.42870159     A.U. after   12 cycles
 SCF Done:  E(UB3LYP) =  -2359.42870170     A.U. after   10 cycles
 SCF Done:  E(UB3LYP) =  -2359.42870174     A.U. after    9 cycles
 SCF Done:  E(UB3LYP) =  -2359.42870177     A.U. after    9 cycles
 SCF Done:  E(UB3LYP) =  -2359.42870182     A.U. after    9 cycles
 SCF Done:  E(UB3LYP) =  -2359.42870187     A.U. after   11 cycles
 SCF Done:  E(UB3LYP) =  -2359.42870191     A.U. after   11 cycles
 SCF Done:  E(UB3LYP) =  -2359.42870193     A.U. after    9 cycles
 Optimization completed.
    -- Stationary point found.

                         Standard orientation:
 ---------------------------------------------------------------------
 Center     Atomic      Atomic             Coordinates (Angstroms)
 Number     Number       Type             X           Y           Z
 ---------------------------------------------------------------------
      1          6           0        2.861252   -2.901167    0.583181
      2          6           0        2.424451   -1.531009    0.335144
      3          6           0        3.372195   -0.514816    0.071650
      4          6           0        4.756769   -0.803129    0.041851
      5          6           0        5.235137   -2.162202    0.286388
      6          6           0        1.061266   -1.217825    0.387397
      7          6           0        2.908548    0.821543   -0.174107
      8          6           0        1.513038    1.115331   -0.143753
      9          6           0        0.584484    0.074688    0.181966
     10          6           0        1.077402    2.464366   -0.509267
     11          6           0        3.469150    3.192286   -0.734774
     12          6           0        3.875658    1.821070   -0.453300
     13          6           0        5.248474    1.505731   -0.471165
     14          6           0        5.684878    0.219783   -0.227859
     15          1           0        6.737609   -0.032300   -0.242657
     16          1           0        5.945908    2.305578   -0.685677
     17          1           0        0.371116   -2.013492    0.636852
     18          7           0        2.086073    3.422291   -0.752699
     19          7           0        4.247199   -3.134177    0.540429
     20          8           0        2.098341   -3.838802    0.822220
     21          8           0        6.427702   -2.473438    0.276688
     22          8           0        4.264296    4.108647   -0.958615
     23          8           0       -0.094453    2.824204   -0.627151
     24          6           0        1.615083    4.766451   -1.089894
     25          1           0        1.008730    4.734626   -1.996963
     26          1           0        0.989387    5.155982   -0.284878
     27          1           0        2.489547    5.394071   -1.234592
     28          6           0        4.675069   -4.511247    0.788912
     29          1           0        4.352395   -4.829626    1.782101
     30          1           0        4.217360   -5.180662    0.058382
     31          1           0        5.757986   -4.540149    0.711241
     32          6           0       -0.868255    0.279487    0.352374
     33          6           0       -1.531244    1.082894    1.243627
     34         16           0       -1.989995   -0.701395   -0.552640
     35          6           0       -2.937173    0.928533    1.190014
     36          1           0       -1.015865    1.775668    1.890976
     37          6           0       -3.383960   -0.006442    0.267569
     38          8           0       -3.846418    1.599220    1.962041
     39          6           0       -4.742889   -0.382880   -0.028010
     40          6           0       -3.375437    2.714897    2.706068
     41          6           0       -5.196461   -1.326162   -0.939646
     42         16           0       -6.129768    0.351796    0.771551
     43          1           0       -4.257001    3.168726    3.158540
     44          1           0       -2.684762    2.402399    3.497197
     45          1           0       -2.878258    3.441472    2.055559
     46          6           0       -6.612339   -1.459421   -0.996653
     47          8           0       -4.291074   -2.020448   -1.692968
     48          6           0       -7.247217   -0.616356   -0.127363
     49          1           0       -7.134299   -2.145199   -1.648959
     50          6           0       -4.774174   -3.071345   -2.510815
     51          1           0       -8.307984   -0.509029    0.038262
     52          1           0       -5.444820   -2.695427   -3.292933
     53          1           0       -3.896359   -3.517960   -2.976133
     54          1           0       -5.296771   -3.831300   -1.917915
 ---------------------------------------------------------------------

 The electronic state is 2-A.
 Alpha  occ. eigenvalues --  -88.80113 -88.78284 -19.08658 -19.08084 -18.99396
 Alpha  occ. eigenvalues --  -18.99277 -18.99110 -18.98924 -14.26351 -14.26125
 Alpha  occ. eigenvalues --  -10.17894 -10.17639 -10.17638 -10.17570 -10.16388
 Alpha  occ. eigenvalues --  -10.15925 -10.15510 -10.14989 -10.13366 -10.12616
 Alpha  occ. eigenvalues --  -10.11907 -10.11764 -10.11032 -10.10438 -10.10374
 Alpha  occ. eigenvalues --  -10.10254 -10.10217 -10.09947 -10.09303 -10.08578
 Alpha  occ. eigenvalues --  -10.08532 -10.08503 -10.08399 -10.08221 -10.07924
 Alpha  occ. eigenvalues --  -10.07861  -7.88667  -7.86841  -5.84975  -5.84593
 Alpha  occ. eigenvalues --   -5.84236  -5.83161  -5.82770  -5.82391  -1.00242
 Alpha  occ. eigenvalues --   -0.99464  -0.95464  -0.95327  -0.93391  -0.93213
 Alpha  occ. eigenvalues --   -0.83589  -0.83308  -0.81291  -0.79720  -0.78636
 Alpha  occ. eigenvalues --   -0.74053  -0.71619  -0.69805  -0.68335  -0.66813
 Alpha  occ. eigenvalues --   -0.65913  -0.65535  -0.63904  -0.63443  -0.61963
 Alpha  occ. eigenvalues --   -0.61010  -0.60321  -0.58516  -0.54955  -0.53949
 Alpha  occ. eigenvalues --   -0.53450  -0.52282  -0.51562  -0.49850  -0.48138
 Alpha  occ. eigenvalues --   -0.47478  -0.45894  -0.45807  -0.45174  -0.43014
 Alpha  occ. eigenvalues --   -0.41777  -0.40895  -0.40803  -0.39981  -0.39840
 Alpha  occ. eigenvalues --   -0.39280  -0.38197  -0.37964  -0.37859  -0.37499
 Alpha  occ. eigenvalues --   -0.36964  -0.36570  -0.36533  -0.34983  -0.34395
 Alpha  occ. eigenvalues --   -0.34148  -0.33750  -0.33337  -0.32944  -0.32605
 Alpha  occ. eigenvalues --   -0.32450  -0.32250  -0.31521  -0.30505  -0.30364
 Alpha  occ. eigenvalues --   -0.30196  -0.29964  -0.29843  -0.29456  -0.29229
 Alpha  occ. eigenvalues --   -0.29145  -0.28747  -0.27796  -0.27249  -0.27045
 Alpha  occ. eigenvalues --   -0.26042  -0.25600  -0.24927  -0.24312  -0.24079
 Alpha  occ. eigenvalues --   -0.22881  -0.20086  -0.19481  -0.18459  -0.17845
 Alpha  occ. eigenvalues --   -0.17686  -0.17150  -0.16873  -0.16234  -0.16068
 Alpha  occ. eigenvalues --   -0.15752  -0.14607  -0.13886  -0.10227  -0.05113
 Alpha virt. eigenvalues --    0.03318   0.04683   0.05762   0.06476   0.06818
 Alpha virt. eigenvalues --    0.07344   0.07447   0.08595   0.08936   0.09004
 Alpha virt. eigenvalues --    0.09162   0.09470   0.09897   0.10209   0.10665

  Beta  occ. eigenvalues --  -88.80112 -88.78279 -19.08653 -19.08087 -18.99208
  Beta  occ. eigenvalues --  -18.99073 -18.98922 -18.98708 -14.26402 -14.26177
  Beta  occ. eigenvalues --  -10.17846 -10.17594 -10.17590 -10.17524 -10.16388
  Beta  occ. eigenvalues --  -10.15912 -10.15510 -10.15003 -10.13375 -10.12603
  Beta  occ. eigenvalues --  -10.11876 -10.11790 -10.11037 -10.10437 -10.10272
  Beta  occ. eigenvalues --  -10.10262 -10.10253 -10.10004 -10.09119 -10.08421
  Beta  occ. eigenvalues --  -10.08367 -10.08350 -10.08343 -10.08171 -10.07839
  Beta  occ. eigenvalues --  -10.07779  -7.88666  -7.86835  -5.84975  -5.84592
  Beta  occ. eigenvalues --   -5.84233  -5.83156  -5.82766  -5.82380  -1.00232
  Beta  occ. eigenvalues --   -0.99470  -0.95222  -0.95079  -0.93057  -0.92871
  Beta  occ. eigenvalues --   -0.83470  -0.83191  -0.81273  -0.79614  -0.78540
  Beta  occ. eigenvalues --   -0.73736  -0.71311  -0.69724  -0.68299  -0.66728
  Beta  occ. eigenvalues --   -0.65796  -0.65123  -0.63830  -0.63386  -0.61938
  Beta  occ. eigenvalues --   -0.60959  -0.60080  -0.58228  -0.54811  -0.53747
  Beta  occ. eigenvalues --   -0.53361  -0.52099  -0.51537  -0.49803  -0.48122
  Beta  occ. eigenvalues --   -0.47415  -0.45879  -0.45685  -0.45050  -0.42854
  Beta  occ. eigenvalues --   -0.41667  -0.40879  -0.40777  -0.39982  -0.39821
  Beta  occ. eigenvalues --   -0.39117  -0.37963  -0.37914  -0.37671  -0.37476
  Beta  occ. eigenvalues --   -0.36869  -0.36511  -0.36420  -0.34908  -0.34271
  Beta  occ. eigenvalues --   -0.34037  -0.33648  -0.33280  -0.32903  -0.32441
  Beta  occ. eigenvalues --   -0.32219  -0.31953  -0.31421  -0.30182  -0.30135
  Beta  occ. eigenvalues --   -0.30070  -0.29758  -0.29642  -0.29108  -0.28967
  Beta  occ. eigenvalues --   -0.28668  -0.28230  -0.27757  -0.27024  -0.26767
  Beta  occ. eigenvalues --   -0.26005  -0.25572  -0.24849  -0.24209  -0.24050
  Beta  occ. eigenvalues --   -0.22066  -0.19854  -0.18533  -0.18271  -0.17524
  Beta  occ. eigenvalues --   -0.17175  -0.16782  -0.16701  -0.15979  -0.15687
  Beta  occ. eigenvalues --   -0.15505  -0.14472  -0.12388  -0.10039
  Beta virt. eigenvalues --   -0.00632   0.03507   0.05757   0.05772   0.06817
  Beta virt. eigenvalues --    0.06938   0.07367   0.08201   0.08604   0.09012
  Beta virt. eigenvalues --    0.09115   0.09171   0.09477   0.09906   0.10215

 Mulliken charges and spin densities:
               1          2
     1  C    0.351972   0.015947
     2  C   -0.159366   0.133786
     3  C    0.100751  -0.040705
     4  C    0.201787   0.109833
     5  C    0.197790   0.017364
     6  C   -0.788053   0.042792
     7  C    0.191865  -0.034778
     8  C    0.159457   0.136721
     9  C    0.662589   0.074435
    10  C   -0.409721   0.020683
    11  C    0.271688   0.020083
    12  C    0.127319   0.108559
    13  C   -0.532436   0.061624
    14  C   -0.618605   0.063882
    15  H    0.129916  -0.004540
    16  H    0.131625  -0.004357
    17  H    0.155278  -0.002694
    18  N   -0.147433  -0.020787
    19  N   -0.144469  -0.020386
    20  O   -0.354531   0.076648
    21  O   -0.347312   0.070297
    22  O   -0.350721   0.070722
    23  O   -0.215208   0.080695
    24  C   -0.185969   0.001317
    25  H    0.157452  -0.001018
    26  H    0.151452  -0.000888
    27  H    0.170489  -0.000363
    28  C   -0.190401   0.001268
    29  H    0.153181  -0.000948
    30  H    0.153147  -0.000900
    31  H    0.169288  -0.000351
    32  C    0.140397  -0.028179
    33  C   -0.328864   0.019782
    34  S   -0.458217   0.009397
    35  C   -0.418537  -0.004977
    36  H    0.110775  -0.001776
    37  C    0.573826   0.025402
    38  O   -0.124773  -0.000634
    39  C    0.894482  -0.007993
    40  C   -0.250453   0.000375
    41  C   -0.030031   0.007897
    42  S   -0.273788   0.001023
    43  H    0.146556  -0.000003
    44  H    0.135864  -0.000087
    45  H    0.160640  -0.000014
    46  C   -0.479999  -0.004512
    47  O   -0.122867   0.001264
    48  C   -0.304164   0.009092
    49  H    0.115453   0.000182
    50  C   -0.244129   0.000137
    51  H    0.140631  -0.000564
    52  H    0.128062   0.000111
    53  H    0.161696   0.000017
    54  H    0.134618   0.000122
 Sum of Mulliken charges =  -1.00000   1.00000

 Dipole moment (field-independent basis, Debye):
    X=            -11.3345    Y=             -0.3379    Z=              0.4587  Tot=             11.3488
 Quadrupole moment (field-independent basis, Debye-Ang):
   XX=           -317.9466   YY=           -262.6854   ZZ=           -222.0968
   XY=              4.5429   XZ=              7.0721   YZ=             21.4358

 Normal termination of Gaussian 16 at Tue Oct  5 14:40:59 2021.
