 Gaussian 16, Revision C.01,
 Gaussian 16:  ES64L-G16RevC.01  3-Jul-2019

 -------------------------------------
 # opt=modredundant b3lyp/6-311+g(d,p)
 -------------------------------------

 ------------
 NDI_-175.pdb
 ------------
 Symbolic Z-matrix:
 Charge = -1 Multiplicity = 2

 SCF Done:  E(UB3LYP) =  -2359.37744965     A.U. after   24 cycles
 SCF Done:  E(UB3LYP) =  -2359.40831813     A.U. after   24 cycles
 SCF Done:  E(UB3LYP) =  -2359.41830414     A.U. after   22 cycles
 SCF Done:  E(UB3LYP) =  -2359.42081880     A.U. after   19 cycles
 SCF Done:  E(UB3LYP) =  -2359.42127001     A.U. after   17 cycles
 SCF Done:  E(UB3LYP) =  -2359.42134387     A.U. after   17 cycles
 SCF Done:  E(UB3LYP) =  -2359.42148941     A.U. after   16 cycles
 SCF Done:  E(UB3LYP) =  -2359.42159852     A.U. after   22 cycles
 SCF Done:  E(UB3LYP) =  -2359.42181427     A.U. after   14 cycles
 SCF Done:  E(UB3LYP) =  -2359.42230916     A.U. after   21 cycles
 SCF Done:  E(UB3LYP) =  -2359.42318601     A.U. after   11 cycles
 SCF Done:  E(UB3LYP) =  -2359.42318678     A.U. after   11 cycles
 SCF Done:  E(UB3LYP) =  -2359.42318728     A.U. after   11 cycles
 SCF Done:  E(UB3LYP) =  -2359.42318743     A.U. after   10 cycles
 SCF Done:  E(UB3LYP) =  -2359.42318750     A.U. after    9 cycles
 SCF Done:  E(UB3LYP) =  -2359.42318756     A.U. after    9 cycles
 SCF Done:  E(UB3LYP) =  -2359.42318762     A.U. after    9 cycles
 SCF Done:  E(UB3LYP) =  -2359.42318768     A.U. after    9 cycles
 SCF Done:  E(UB3LYP) =  -2359.42318773     A.U. after    9 cycles
 SCF Done:  E(UB3LYP) =  -2359.42318776     A.U. after    9 cycles
 Optimization completed.
    -- Stationary point found.

                         Standard orientation:
 ---------------------------------------------------------------------
 Center     Atomic      Atomic             Coordinates (Angstroms)
 Number     Number       Type             X           Y           Z
 ---------------------------------------------------------------------
      1          6           0       -3.569351   -2.649151    0.067958
      2          6           0       -2.816684   -1.408692   -0.097237
      3          6           0       -3.450084   -0.157354    0.084927
      4          6           0       -4.814852   -0.077384    0.434767
      5          6           0       -5.604490   -1.295855    0.610662
      6          6           0       -1.451853   -1.466654   -0.367032
      7          6           0       -2.672285    1.031609   -0.101588
      8          6           0       -1.292502    0.948975   -0.460068
      9          6           0       -0.642278   -0.335992   -0.536290
     10          6           0       -0.643400    2.183773   -0.886549
     11          6           0       -2.615605    3.532193   -0.144000
     12          6           0       -3.329152    2.278757    0.069014
     13          6           0       -4.688522    2.331848    0.433039
     14          6           0       -5.424039    1.178656    0.613882
     15          1           0       -6.471137    1.211169    0.886467
     16          1           0       -5.136126    3.309771    0.558324
     17          1           0       -1.020453   -2.456221   -0.380608
     18          7           0       -1.304997    3.400449   -0.617645
     19          7           0       -4.925840   -2.515561    0.407673
     20          8           0       -3.088547   -3.775677   -0.072063
     21          8           0       -6.797589   -1.292114    0.915901
     22          8           0       -3.112634    4.645714    0.042374
     23          8           0        0.435031    2.237606   -1.481717
     24          6           0       -0.574941    4.617643   -0.974478
     25          1           0        0.426404    4.581925   -0.545420
     26          1           0       -0.471776    4.697308   -2.059399
     27          1           0       -1.137589    5.463175   -0.589164
     28          6           0       -5.675356   -3.762152    0.567969
     29          1           0       -5.628586   -4.344977   -0.353570
     30          1           0       -5.236244   -4.362970    1.366850
     31          1           0       -6.702368   -3.502110    0.807026
     32          6           0        0.808405   -0.604349   -0.583397
     33          6           0        1.374667   -1.862258   -0.756388
     34         16           0        2.043116    0.520329   -0.064247
     35          6           0        2.751736   -1.917043   -0.474523
     36          1           0        0.809116   -2.718823   -1.087562
     37          6           0        3.295707   -0.713534   -0.045833
     38          8           0        3.558254   -3.017109   -0.600338
     39          6           0        4.669211   -0.433185    0.280948
     40          6           0        2.950996   -4.237123   -0.996944
     41          6           0        5.224821    0.761448    0.722330
     42         16           0        5.943877   -1.645955    0.165665
     43          1           0        3.750038   -4.977837   -1.019757
     44          1           0        2.183210   -4.551463   -0.281580
     45          1           0        2.503931   -4.154424   -1.993854
     46          6           0        6.628081    0.710998    0.952050
     47          8           0        4.417655    1.844915    0.920003
     48          6           0        7.152263   -0.525008    0.692653
     49          1           0        7.218643    1.548305    1.296425
     50          6           0        5.033100    3.108870    1.098706
     51          1           0        8.178787   -0.843968    0.786594
     52          1           0        5.697533    3.350014    0.260873
     53          1           0        4.222048    3.834842    1.137734
     54          1           0        5.599600    3.151202    2.036995
 ---------------------------------------------------------------------

 The electronic state is 2-A.
 Alpha  occ. eigenvalues --  -88.80044 -88.77777 -19.08420 -19.08131 -18.99672
 Alpha  occ. eigenvalues --  -18.99612 -18.99050 -18.98932 -14.26599 -14.26051
 Alpha  occ. eigenvalues --  -10.18161 -10.17950 -10.17490 -10.17489 -10.16125
 Alpha  occ. eigenvalues --  -10.15869 -10.15652 -10.14826 -10.13261 -10.12610
 Alpha  occ. eigenvalues --  -10.12028 -10.11752 -10.10945 -10.10754 -10.10662
 Alpha  occ. eigenvalues --  -10.10224 -10.10186 -10.09846 -10.09095 -10.08697
 Alpha  occ. eigenvalues --  -10.08607 -10.08604 -10.08488 -10.08432 -10.07934
 Alpha  occ. eigenvalues --  -10.07872  -7.88599  -7.86289  -5.84907  -5.84525
 Alpha  occ. eigenvalues --   -5.84170  -5.82614  -5.82205  -5.81839  -1.00063
 Alpha  occ. eigenvalues --   -0.99507  -0.95744  -0.95332  -0.93687  -0.93198
 Alpha  occ. eigenvalues --   -0.83836  -0.83330  -0.81180  -0.79624  -0.78560
 Alpha  occ. eigenvalues --   -0.74079  -0.71645  -0.69794  -0.68207  -0.66675
 Alpha  occ. eigenvalues --   -0.66196  -0.65492  -0.63829  -0.63438  -0.61881
 Alpha  occ. eigenvalues --   -0.61067  -0.60328  -0.58563  -0.55006  -0.54110
 Alpha  occ. eigenvalues --   -0.53434  -0.52525  -0.51337  -0.49744  -0.47988
 Alpha  occ. eigenvalues --   -0.47523  -0.46178  -0.45759  -0.45209  -0.43136
 Alpha  occ. eigenvalues --   -0.42199  -0.40676  -0.40251  -0.40060  -0.39747
 Alpha  occ. eigenvalues --   -0.39116  -0.38405  -0.38002  -0.37939  -0.37419
 Alpha  occ. eigenvalues --   -0.37002  -0.36684  -0.36572  -0.35419  -0.34368
 Alpha  occ. eigenvalues --   -0.33871  -0.33764  -0.33258  -0.33050  -0.32592
 Alpha  occ. eigenvalues --   -0.32502  -0.32349  -0.31534  -0.30632  -0.30474
 Alpha  occ. eigenvalues --   -0.30352  -0.29977  -0.29869  -0.29730  -0.29394
 Alpha  occ. eigenvalues --   -0.28841  -0.28406  -0.27740  -0.27508  -0.26946
 Alpha  occ. eigenvalues --   -0.25945  -0.25459  -0.25141  -0.24558  -0.23515
 Alpha  occ. eigenvalues --   -0.22664  -0.20244  -0.19362  -0.18706  -0.17941
 Alpha  occ. eigenvalues --   -0.17788  -0.17259  -0.16798  -0.16510  -0.15982
 Alpha  occ. eigenvalues --   -0.15798  -0.14429  -0.13838  -0.10120  -0.05030
 Alpha virt. eigenvalues --    0.02614   0.04824   0.05868   0.06050   0.06849
 Alpha virt. eigenvalues --    0.07415   0.07463   0.08611   0.08879   0.09093
 Alpha virt. eigenvalues --    0.09463   0.09986   0.10316   0.10458   0.10581

  Beta  occ. eigenvalues --  -88.80041 -88.77772 -19.08404 -19.08142 -18.99502
  Beta  occ. eigenvalues --  -18.99426 -18.98868 -18.98722 -14.26646 -14.26102
  Beta  occ. eigenvalues --  -10.18115 -10.17906 -10.17447 -10.17438 -10.16125
  Beta  occ. eigenvalues --  -10.15824 -10.15651 -10.14868 -10.13292 -10.12566
  Beta  occ. eigenvalues --  -10.12087 -10.11660 -10.10962 -10.10662 -10.10621
  Beta  occ. eigenvalues --  -10.10238 -10.10223 -10.09901 -10.08919 -10.08561
  Beta  occ. eigenvalues --  -10.08523 -10.08452 -10.08390 -10.08331 -10.07860
  Beta  occ. eigenvalues --  -10.07790  -7.88596  -7.86284  -5.84905  -5.84523
  Beta  occ. eigenvalues --   -5.84160  -5.82612  -5.82202  -5.81823  -1.00026
  Beta  occ. eigenvalues --   -0.99530  -0.95522  -0.95089  -0.93383  -0.92868
  Beta  occ. eigenvalues --   -0.83731  -0.83215  -0.81140  -0.79504  -0.78472
  Beta  occ. eigenvalues --   -0.73775  -0.71357  -0.69685  -0.68161  -0.66586
  Beta  occ. eigenvalues --   -0.66083  -0.65111  -0.63747  -0.63367  -0.61840
  Beta  occ. eigenvalues --   -0.61019  -0.60088  -0.58287  -0.54857  -0.53942
  Beta  occ. eigenvalues --   -0.53303  -0.52426  -0.51255  -0.49675  -0.47955
  Beta  occ. eigenvalues --   -0.47473  -0.46105  -0.45685  -0.45092  -0.42997
  Beta  occ. eigenvalues --   -0.42108  -0.40631  -0.40206  -0.40075  -0.39675
  Beta  occ. eigenvalues --   -0.38997  -0.38190  -0.37914  -0.37775  -0.37385
  Beta  occ. eigenvalues --   -0.36923  -0.36577  -0.36504  -0.35328  -0.34221
  Beta  occ. eigenvalues --   -0.33823  -0.33652  -0.33167  -0.32918  -0.32433
  Beta  occ. eigenvalues --   -0.32326  -0.32106  -0.31391  -0.30392  -0.30264
  Beta  occ. eigenvalues --   -0.30142  -0.29885  -0.29578  -0.29156  -0.29075
  Beta  occ. eigenvalues --   -0.28429  -0.28280  -0.27521  -0.27404  -0.26697
  Beta  occ. eigenvalues --   -0.25827  -0.25389  -0.25014  -0.24466  -0.23378
  Beta  occ. eigenvalues --   -0.22123  -0.19807  -0.18523  -0.18473  -0.17598
  Beta  occ. eigenvalues --   -0.17417  -0.16968  -0.16513  -0.16308  -0.15762
  Beta  occ. eigenvalues --   -0.15347  -0.14172  -0.12593  -0.09640
  Beta virt. eigenvalues --   -0.00814   0.03091   0.05794   0.05869   0.06427
  Beta virt. eigenvalues --    0.06851   0.07463   0.08154   0.08612   0.08885
  Beta virt. eigenvalues --    0.09101   0.09486   0.10199   0.10338   0.10469

 Mulliken charges and spin densities:
               1          2
     1  C    0.295762   0.018172
     2  C   -0.080186   0.122288
     3  C    0.154793  -0.036974
     4  C    0.219914   0.093615
     5  C    0.163738   0.019492
     6  C    0.180782   0.018200
     7  C    0.072306  -0.032623
     8  C    0.304405   0.130136
     9  C    0.308600   0.089698
    10  C   -0.646654   0.013450
    11  C    0.231919   0.018517
    12  C    0.095976   0.103467
    13  C   -0.464362   0.047823
    14  C   -0.571500   0.068850
    15  H    0.129538  -0.004636
    16  H    0.132426  -0.003635
    17  H    0.135104  -0.000820
    18  N   -0.035012  -0.019887
    19  N   -0.146773  -0.019228
    20  O   -0.359837   0.069796
    21  O   -0.340713   0.063605
    22  O   -0.351785   0.068330
    23  O   -0.282755   0.079070
    24  C   -0.167046   0.001665
    25  H    0.155561  -0.000746
    26  H    0.155530  -0.001109
    27  H    0.168419  -0.000386
    28  C   -0.187274   0.001220
    29  H    0.152873  -0.000834
    30  H    0.153203  -0.000881
    31  H    0.168586  -0.000321
    32  C   -0.009108  -0.029975
    33  C   -0.406471   0.067706
    34  S   -0.733872   0.011074
    35  C   -0.518429  -0.031002
    36  H    0.117862  -0.003076
    37  C    0.621761   0.052050
    38  O   -0.136630  -0.001393
    39  C    0.874867  -0.021220
    40  C   -0.226436   0.000255
    41  C   -0.041779   0.028872
    42  S   -0.279083   0.002045
    43  H    0.149484  -0.000004
    44  H    0.146472  -0.000259
    45  H    0.141919  -0.000335
    46  C   -0.445892  -0.013416
    47  O   -0.111738   0.002922
    48  C   -0.313274   0.031256
    49  H    0.114296   0.000611
    50  C   -0.256641  -0.000315
    51  H    0.140803  -0.001941
    52  H    0.139949   0.000509
    53  H    0.162661   0.000032
    54  H    0.123743   0.000292
 Sum of Mulliken charges =  -1.00000   1.00000

 Dipole moment (field-independent basis, Debye):
    X=             10.9715    Y=             -1.5198    Z=              0.2736  Tot=             11.0796
 Quadrupole moment (field-independent basis, Debye-Ang):
   XX=           -311.5222   YY=           -256.4345   ZZ=           -232.4600
   XY=             11.5647   XZ=             11.5588   YZ=              7.0239

 Normal termination of Gaussian 16 at Tue Oct  5 04:08:36 2021.
