 Gaussian 16, Revision C.01,
 Gaussian 16:  ES64L-G16RevC.01  3-Jul-2019

 -------------------------------------
 # opt=modredundant b3lyp/6-311+g(d,p)
 -------------------------------------

 ----------
 NDI_50.pdb
 ----------
 Symbolic Z-matrix:
 Charge = -1 Multiplicity = 2

 SCF Done:  E(UB3LYP) =  -2359.42105635     A.U. after   22 cycles
 SCF Done:  E(UB3LYP) =  -2359.42674161     A.U. after   18 cycles
 SCF Done:  E(UB3LYP) =  -2359.42755545     A.U. after   20 cycles
 SCF Done:  E(UB3LYP) =  -2359.42814855     A.U. after   18 cycles
 SCF Done:  E(UB3LYP) =  -2359.42846594     A.U. after   17 cycles
 SCF Done:  E(UB3LYP) =  -2359.42870806     A.U. after   18 cycles
 SCF Done:  E(UB3LYP) =  -2359.42879181     A.U. after   17 cycles
 SCF Done:  E(UB3LYP) =  -2359.42885154     A.U. after   15 cycles
 SCF Done:  E(UB3LYP) =  -2359.42891125     A.U. after   17 cycles
 SCF Done:  E(UB3LYP) =  -2359.42892940     A.U. after   14 cycles
 SCF Done:  E(UB3LYP) =  -2359.42896633     A.U. after   10 cycles
 SCF Done:  E(UB3LYP) =  -2359.42896665     A.U. after    9 cycles
 SCF Done:  E(UB3LYP) =  -2359.42896682     A.U. after    9 cycles
 SCF Done:  E(UB3LYP) =  -2359.42896692     A.U. after    9 cycles
 SCF Done:  E(UB3LYP) =  -2359.42896700     A.U. after   10 cycles
 SCF Done:  E(UB3LYP) =  -2359.42896705     A.U. after    9 cycles
 SCF Done:  E(UB3LYP) =  -2359.42896713     A.U. after   10 cycles
 SCF Done:  E(UB3LYP) =  -2359.42896719     A.U. after    9 cycles
 SCF Done:  E(UB3LYP) =  -2359.42896723     A.U. after    9 cycles
 SCF Done:  E(UB3LYP) =  -2359.42896724     A.U. after    9 cycles
 Optimization completed.
    -- Stationary point found.

                         Standard orientation:
 ---------------------------------------------------------------------
 Center     Atomic      Atomic             Coordinates (Angstroms)
 Number     Number       Type             X           Y           Z
 ---------------------------------------------------------------------
      1          6           0       -2.766480   -2.937441    0.514991
      2          6           0       -2.373568   -1.550939    0.282941
      3          6           0       -3.354850   -0.553330    0.077158
      4          6           0       -4.731356   -0.876733    0.091340
      5          6           0       -5.166560   -2.253322    0.321420
      6          6           0       -1.019593   -1.203762    0.301745
      7          6           0       -2.931499    0.798890   -0.154550
      8          6           0       -1.542394    1.128464   -0.168668
      9          6           0       -0.575732    0.104202    0.107857
     10          6           0       -1.159865    2.490203   -0.546670
     11          6           0       -3.575837    3.164142   -0.646114
     12          6           0       -3.934521    1.777490   -0.376487
     13          6           0       -5.298768    1.427992   -0.350052
     14          6           0       -5.694668    0.126809   -0.119920
     15          1           0       -6.740603   -0.151787   -0.101605
     16          1           0       -6.022593    2.214788   -0.520943
     17          1           0       -0.306623   -1.987466    0.522757
     18          7           0       -2.201873    3.427872   -0.723558
     19          7           0       -4.146651   -3.205357    0.516391
     20          8           0       -1.972122   -3.859943    0.704506
     21          8           0       -6.350514   -2.594184    0.347835
     22          8           0       -4.402749    4.064141   -0.814808
     23          8           0       -0.006218    2.881298   -0.730248
     24          6           0       -1.779899    4.786882   -1.066080
     25          1           0       -1.112596    5.175938   -0.295118
     26          1           0       -1.231553    4.783347   -2.009977
     27          1           0       -2.674249    5.398014   -1.144821
     28          6           0       -4.530847   -4.598243    0.747544
     29          1           0       -4.082901   -5.238940   -0.014103
     30          1           0       -4.165112   -4.930368    1.721105
     31          1           0       -5.614784   -4.653322    0.707356
     32          6           0        0.871040    0.335331    0.265182
     33          6           0        1.530254    1.252718    1.044545
     34         16           0        2.005616   -0.745685   -0.507390
     35          6           0        2.935225    1.096809    1.019902
     36          1           0        1.012341    2.023306    1.592981
     37          6           0        3.391136    0.052748    0.226971
     38          8           0        3.838054    1.865463    1.702549
     39          6           0        4.752489   -0.353235   -0.009271
     40          6           0        3.354711    3.055297    2.312235
     41          6           0        5.215213   -1.401409   -0.793351
     42         16           0        6.131759    0.477139    0.705958
     43          1           0        4.231797    3.569788    2.704455
     44          1           0        2.846148    3.693810    1.583064
     45          1           0        2.670152    2.828923    3.137263
     46          6           0        6.631424   -1.538954   -0.819502
     47          8           0        4.317668   -2.182623   -1.466323
     48          6           0        7.257809   -0.594044   -0.055026
     49          1           0        7.159632   -2.299365   -1.377220
     50          6           0        4.803122   -3.346118   -2.112770
     51          1           0        8.316953   -0.465392    0.105792
     52          1           0        5.307798   -4.014731   -1.405471
     53          1           0        3.928470   -3.849025   -2.523362
     54          1           0        5.490539   -3.094287   -2.929393
 ---------------------------------------------------------------------

 The electronic state is 2-A.
 Alpha  occ. eigenvalues --  -88.80115 -88.78246 -19.08645 -19.08056 -18.99461
 Alpha  occ. eigenvalues --  -18.99334 -18.99111 -18.98904 -14.26400 -14.26132
 Alpha  occ. eigenvalues --  -10.17957 -10.17693 -10.17660 -10.17566 -10.16358
 Alpha  occ. eigenvalues --  -10.15932 -10.15441 -10.14971 -10.13373 -10.12625
 Alpha  occ. eigenvalues --  -10.11947 -10.11730 -10.11033 -10.10481 -10.10455
 Alpha  occ. eigenvalues --  -10.10280 -10.10252 -10.09945 -10.09312 -10.08621
 Alpha  occ. eigenvalues --  -10.08550 -10.08512 -10.08355 -10.08237 -10.07932
 Alpha  occ. eigenvalues --  -10.07870  -7.88668  -7.86805  -5.84977  -5.84594
 Alpha  occ. eigenvalues --   -5.84238  -5.83125  -5.82735  -5.82355  -1.00232
 Alpha  occ. eigenvalues --   -0.99436  -0.95528  -0.95339  -0.93457  -0.93216
 Alpha  occ. eigenvalues --   -0.83643  -0.83313  -0.81291  -0.79711  -0.78629
 Alpha  occ. eigenvalues --   -0.74064  -0.71633  -0.69806  -0.68330  -0.66836
 Alpha  occ. eigenvalues --   -0.65874  -0.65562  -0.63904  -0.63468  -0.61947
 Alpha  occ. eigenvalues --   -0.61036  -0.60340  -0.58489  -0.54999  -0.53969
 Alpha  occ. eigenvalues --   -0.53482  -0.52318  -0.51536  -0.49854  -0.48127
 Alpha  occ. eigenvalues --   -0.47456  -0.45911  -0.45792  -0.45191  -0.43046
 Alpha  occ. eigenvalues --   -0.41837  -0.40881  -0.40760  -0.39923  -0.39782
 Alpha  occ. eigenvalues --   -0.39294  -0.38233  -0.37961  -0.37874  -0.37492
 Alpha  occ. eigenvalues --   -0.36975  -0.36600  -0.36542  -0.35006  -0.34325
 Alpha  occ. eigenvalues --   -0.34167  -0.33760  -0.33312  -0.32945  -0.32634
 Alpha  occ. eigenvalues --   -0.32503  -0.32250  -0.31461  -0.30540  -0.30441
 Alpha  occ. eigenvalues --   -0.30229  -0.29948  -0.29873  -0.29491  -0.29272
 Alpha  occ. eigenvalues --   -0.29143  -0.28706  -0.27776  -0.27298  -0.27045
 Alpha  occ. eigenvalues --   -0.26049  -0.25571  -0.24976  -0.24433  -0.24008
 Alpha  occ. eigenvalues --   -0.22878  -0.20170  -0.19462  -0.18508  -0.17878
 Alpha  occ. eigenvalues --   -0.17719  -0.17180  -0.16916  -0.16281  -0.16026
 Alpha  occ. eigenvalues --   -0.15821  -0.14542  -0.13889  -0.10215  -0.05117
 Alpha virt. eigenvalues --    0.03143   0.04676   0.05779   0.06415   0.06849
 Alpha virt. eigenvalues --    0.07379   0.07460   0.08611   0.08996   0.09154
 Alpha virt. eigenvalues --    0.09191   0.09503   0.09981   0.10212   0.10654

  Beta  occ. eigenvalues --  -88.80113 -88.78238 -19.08638 -19.08061 -18.99277
  Beta  occ. eigenvalues --  -18.99131 -18.98926 -18.98692 -14.26450 -14.26184
  Beta  occ. eigenvalues --  -10.17911 -10.17649 -10.17610 -10.17521 -10.16359
  Beta  occ. eigenvalues --  -10.15913 -10.15441 -10.14991 -10.13387 -10.12606
  Beta  occ. eigenvalues --  -10.11903 -10.11764 -10.11040 -10.10480 -10.10338
  Beta  occ. eigenvalues --  -10.10306 -10.10279 -10.10002 -10.09131 -10.08467
  Beta  occ. eigenvalues --  -10.08368 -10.08355 -10.08314 -10.08192 -10.07849
  Beta  occ. eigenvalues --  -10.07788  -7.88667  -7.86798  -5.84976  -5.84594
  Beta  occ. eigenvalues --   -5.84233  -5.83120  -5.82730  -5.82337  -1.00216
  Beta  occ. eigenvalues --   -0.99447  -0.95290  -0.95095  -0.93128  -0.92879
  Beta  occ. eigenvalues --   -0.83527  -0.83197  -0.81268  -0.79604  -0.78533
  Beta  occ. eigenvalues --   -0.73750  -0.71330  -0.69720  -0.68290  -0.66748
  Beta  occ. eigenvalues --   -0.65761  -0.65161  -0.63823  -0.63410  -0.61917
  Beta  occ. eigenvalues --   -0.60985  -0.60094  -0.58211  -0.54854  -0.53770
  Beta  occ. eigenvalues --   -0.53392  -0.52139  -0.51504  -0.49807  -0.48108
  Beta  occ. eigenvalues --   -0.47393  -0.45875  -0.45688  -0.45070  -0.42889
  Beta  occ. eigenvalues --   -0.41733  -0.40859  -0.40729  -0.39928  -0.39760
  Beta  occ. eigenvalues --   -0.39132  -0.38004  -0.37906  -0.37693  -0.37466
  Beta  occ. eigenvalues --   -0.36878  -0.36544  -0.36430  -0.34925  -0.34208
  Beta  occ. eigenvalues --   -0.34057  -0.33657  -0.33256  -0.32889  -0.32471
  Beta  occ. eigenvalues --   -0.32271  -0.31962  -0.31362  -0.30251  -0.30171
  Beta  occ. eigenvalues --   -0.30102  -0.29807  -0.29612  -0.29135  -0.28987
  Beta  occ. eigenvalues --   -0.28659  -0.28267  -0.27726  -0.27069  -0.26778
  Beta  occ. eigenvalues --   -0.25996  -0.25540  -0.24888  -0.24325  -0.23959
  Beta  occ. eigenvalues --   -0.22134  -0.19875  -0.18540  -0.18321  -0.17555
  Beta  occ. eigenvalues --   -0.17235  -0.16826  -0.16712  -0.16043  -0.15676
  Beta  occ. eigenvalues --   -0.15538  -0.14380  -0.12452  -0.09946
  Beta virt. eigenvalues --   -0.00709   0.03395   0.05726   0.05782   0.06825
  Beta virt. eigenvalues --    0.06875   0.07430   0.08178   0.08617   0.09004
  Beta virt. eigenvalues --    0.09168   0.09373   0.09527   0.09992   0.10218

 Mulliken charges and spin densities:
               1          2
     1  C    0.332712   0.016104
     2  C   -0.191647   0.131879
     3  C    0.102706  -0.039591
     4  C    0.204003   0.106137
     5  C    0.198499   0.017968
     6  C   -0.559156   0.038499
     7  C    0.201356  -0.033845
     8  C    0.202391   0.134940
     9  C    0.540952   0.080211
    10  C   -0.407344   0.021298
    11  C    0.150007   0.019555
    12  C    0.169424   0.104372
    13  C   -0.476719   0.061113
    14  C   -0.596394   0.063185
    15  H    0.129946  -0.004448
    16  H    0.131533  -0.004309
    17  H    0.158193  -0.002344
    18  N   -0.127376  -0.020623
    19  N   -0.143026  -0.020065
    20  O   -0.356286   0.075909
    21  O   -0.345700   0.068778
    22  O   -0.348993   0.069616
    23  O   -0.247198   0.079344
    24  C   -0.194571   0.001351
    25  H    0.149527  -0.000851
    26  H    0.156346  -0.001034
    27  H    0.169199  -0.000364
    28  C   -0.190861   0.001219
    29  H    0.153273  -0.000893
    30  H    0.153353  -0.000929
    31  H    0.168584  -0.000345
    32  C    0.096456  -0.036606
    33  C   -0.375152   0.029923
    34  S   -0.540858   0.013971
    35  C   -0.164108  -0.009088
    36  H    0.118321  -0.002384
    37  C    0.654952   0.030286
    38  O   -0.135087  -0.000838
    39  C    0.763358  -0.010618
    40  C   -0.242625   0.000398
    41  C   -0.064460   0.012973
    42  S   -0.294131   0.001407
    43  H    0.146017  -0.000001
    44  H    0.161515  -0.000068
    45  H    0.135843  -0.000133
    46  C   -0.563118  -0.005849
    47  O   -0.121681   0.001463
    48  C   -0.296655   0.013424
    49  H    0.115366   0.000267
    50  C   -0.245760   0.000094
    51  H    0.140618  -0.000831
    52  H    0.135614   0.000202
    53  H    0.162317   0.000017
    54  H    0.126526   0.000152
 Sum of Mulliken charges =  -1.00000   1.00000

 Dipole moment (field-independent basis, Debye):
    X=             11.2940    Y=             -0.3365    Z=              0.5057  Tot=             11.3103
 Quadrupole moment (field-independent basis, Debye-Ang):
   XX=           -317.6555   YY=           -260.1765   ZZ=           -224.6842
   XY=             -5.0080   XZ=             -4.9999   YZ=             19.6771

 Normal termination of Gaussian 16 at Tue Oct  5 23:13:34 2021.
