 Gaussian 16, Revision C.01,
 Gaussian 16:  ES64L-G16RevC.01  3-Jul-2019

 -------------------------------------
 # opt=modredundant b3lyp/6-311+g(d,p)
 -------------------------------------

 -----------
 NDI_-10.pdb
 -----------
 Symbolic Z-matrix:
 Charge = -1 Multiplicity = 2

 SCF Done:  E(UB3LYP) =  -2359.41177497     A.U. after   23 cycles
 SCF Done:  E(UB3LYP) =  -2359.40254758     A.U. after   23 cycles
 SCF Done:  E(UB3LYP) =  -2359.42015732     A.U. after   19 cycles
 SCF Done:  E(UB3LYP) =  -2359.42334955     A.U. after   22 cycles
 SCF Done:  E(UB3LYP) =  -2359.42464415     A.U. after   21 cycles
 SCF Done:  E(UB3LYP) =  -2359.42505453     A.U. after   21 cycles
 SCF Done:  E(UB3LYP) =  -2359.42565337     A.U. after   21 cycles
 SCF Done:  E(UB3LYP) =  -2359.42585192     A.U. after   19 cycles
 SCF Done:  E(UB3LYP) =  -2359.42588638     A.U. after   17 cycles
 SCF Done:  E(UB3LYP) =  -2359.42590254     A.U. after   16 cycles
 SCF Done:  E(UB3LYP) =  -2359.42593043     A.U. after   14 cycles
 SCF Done:  E(UB3LYP) =  -2359.42593057     A.U. after   13 cycles
 SCF Done:  E(UB3LYP) =  -2359.42593060     A.U. after    9 cycles
 SCF Done:  E(UB3LYP) =  -2359.42593061     A.U. after    9 cycles
 SCF Done:  E(UB3LYP) =  -2359.42593063     A.U. after    9 cycles
 SCF Done:  E(UB3LYP) =  -2359.42593064     A.U. after    8 cycles
 SCF Done:  E(UB3LYP) =  -2359.42593065     A.U. after    8 cycles
 SCF Done:  E(UB3LYP) =  -2359.42593066     A.U. after   10 cycles
 SCF Done:  E(UB3LYP) =  -2359.42593067     A.U. after    8 cycles
 SCF Done:  E(UB3LYP) =  -2359.42593068     A.U. after    8 cycles
 Optimization completed.
    -- Stationary point found.

                         Standard orientation:
 ---------------------------------------------------------------------
 Center     Atomic      Atomic             Coordinates (Angstroms)
 Number     Number       Type             X           Y           Z
 ---------------------------------------------------------------------
      1          6           0       -2.538321   -3.026714   -0.024426
      2          6           0       -2.254431   -1.595230    0.042192
      3          6           0       -3.302549   -0.650006   -0.054152
      4          6           0       -4.639390   -1.068163   -0.228322
      5          6           0       -4.966310   -2.492690   -0.305712
      6          6           0       -0.935201   -1.160752    0.127493
      7          6           0       -2.977347    0.744163    0.039441
      8          6           0       -1.623481    1.169198    0.223455
      9          6           0       -0.560151    0.187167    0.192126
     10          6           0       -1.417234    2.569914    0.587643
     11          6           0       -3.813584    3.101033    0.081544
     12          6           0       -4.051468    1.669351   -0.043734
     13          6           0       -5.374406    1.227169   -0.236645
     14          6           0       -5.670698   -0.116642   -0.326634
     15          1           0       -6.685609   -0.466358   -0.465533
     16          1           0       -6.149350    1.980401   -0.302680
     17          1           0       -0.180445   -1.935872    0.089075
     18          7           0       -2.500239    3.459353    0.403653
     19          7           0       -3.886087   -3.389339   -0.189620
     20          8           0       -1.680967   -3.907323    0.053049
     21          8           0       -6.112552   -2.915643   -0.459670
     22          8           0       -4.691528    3.958057   -0.049072
     23          8           0       -0.379731    3.042781    1.060672
     24          6           0       -2.224293    4.867979    0.689478
     25          1           0       -1.987712    5.002247    1.747209
     26          1           0       -1.362462    5.201499    0.110073
     27          1           0       -3.111899    5.435448    0.425035
     28          6           0       -4.163319   -4.824787   -0.253992
     29          1           0       -3.639730   -5.269455   -1.102589
     30          1           0       -3.804848   -5.313182    0.653730
     31          1           0       -5.236883   -4.949997   -0.360270
     32          6           0        0.873158    0.460629    0.022782
     33          6           0        1.545121    1.615038   -0.320229
     34         16           0        2.037533   -0.837693    0.297780
     35          6           0        2.945568    1.459134   -0.394305
     36          1           0        1.041654    2.548948   -0.489352
     37          6           0        3.410802    0.188221   -0.088941
     38          8           0        3.839713    2.438350   -0.728061
     39          6           0        4.770681   -0.279853   -0.073584
     40          6           0        3.332530    3.753309   -0.920140
     41          6           0        5.242921   -1.551178    0.229847
     42         16           0        6.139075    0.759323   -0.465659
     43          1           0        4.201120    4.384334   -1.107281
     44          1           0        2.659453    3.795819   -1.783277
     45          1           0        2.801947    4.107195   -0.030872
     46          6           0        6.656283   -1.690599    0.146822
     47          8           0        4.356692   -2.528633    0.582427
     48          6           0        7.271747   -0.525186   -0.218726
     49          1           0        7.190717   -2.608063    0.349021
     50          6           0        4.846847   -3.848985    0.738238
     51          1           0        8.326998   -0.346666   -0.355862
     52          1           0        5.559517   -3.916638    1.569091
     53          1           0        3.977928   -4.467308    0.959403
     54          1           0        5.324287   -4.208370   -0.180970
 ---------------------------------------------------------------------

 The electronic state is 2-A.
 Alpha  occ. eigenvalues --  -88.80170 -88.78001 -19.08649 -19.08020 -18.99698
 Alpha  occ. eigenvalues --  -18.99556 -18.99115 -18.99003 -14.26578 -14.26166
 Alpha  occ. eigenvalues --  -10.18192 -10.17915 -10.17735 -10.17544 -10.16291
 Alpha  occ. eigenvalues --  -10.16036 -10.15269 -10.14908 -10.13415 -10.12708
 Alpha  occ. eigenvalues --  -10.12081 -10.11891 -10.11075 -10.10752 -10.10635
 Alpha  occ. eigenvalues --  -10.10409 -10.10315 -10.09918 -10.09317 -10.08758
 Alpha  occ. eigenvalues --  -10.08635 -10.08535 -10.08425 -10.08025 -10.07966
 Alpha  occ. eigenvalues --  -10.07899  -7.88723  -7.86573  -5.85031  -5.84648
 Alpha  occ. eigenvalues --   -5.84293  -5.82898  -5.82507  -5.82119  -1.00268
 Alpha  occ. eigenvalues --   -0.99392  -0.95763  -0.95415  -0.93704  -0.93258
 Alpha  occ. eigenvalues --   -0.83842  -0.83381  -0.81317  -0.79658  -0.78593
 Alpha  occ. eigenvalues --   -0.74101  -0.71686  -0.69825  -0.68360  -0.66922
 Alpha  occ. eigenvalues --   -0.65759  -0.65655  -0.63909  -0.63561  -0.61893
 Alpha  occ. eigenvalues --   -0.61136  -0.60416  -0.58438  -0.55161  -0.54052
 Alpha  occ. eigenvalues --   -0.53587  -0.52427  -0.51496  -0.49898  -0.48141
 Alpha  occ. eigenvalues --   -0.47410  -0.46048  -0.45741  -0.45263  -0.43189
 Alpha  occ. eigenvalues --   -0.42017  -0.40850  -0.40711  -0.39773  -0.39645
 Alpha  occ. eigenvalues --   -0.39348  -0.38379  -0.38011  -0.37930  -0.37492
 Alpha  occ. eigenvalues --   -0.37055  -0.36717  -0.36559  -0.35110  -0.34299
 Alpha  occ. eigenvalues --   -0.34207  -0.33780  -0.33178  -0.33141  -0.32734
 Alpha  occ. eigenvalues --   -0.32577  -0.32258  -0.31283  -0.30730  -0.30578
 Alpha  occ. eigenvalues --   -0.30376  -0.30202  -0.29894  -0.29657  -0.29422
 Alpha  occ. eigenvalues --   -0.28951  -0.28467  -0.27706  -0.27449  -0.27023
 Alpha  occ. eigenvalues --   -0.26099  -0.25524  -0.25287  -0.25033  -0.23402
 Alpha  occ. eigenvalues --   -0.22772  -0.20395  -0.19421  -0.18697  -0.17956
 Alpha  occ. eigenvalues --   -0.17842  -0.17292  -0.16976  -0.16482  -0.16001
 Alpha  occ. eigenvalues --   -0.15794  -0.14790  -0.13839  -0.10210  -0.05108
 Alpha virt. eigenvalues --    0.02506   0.04630   0.05800   0.06252   0.06896
 Alpha virt. eigenvalues --    0.07357   0.07544   0.08593   0.08910   0.09119
 Alpha virt. eigenvalues --    0.09600   0.09993   0.10293   0.10316   0.10657

  Beta  occ. eigenvalues --  -88.80167 -88.77984 -19.08633 -19.08030 -18.99531
  Beta  occ. eigenvalues --  -18.99365 -18.98936 -18.98794 -14.26624 -14.26216
  Beta  occ. eigenvalues --  -10.18148 -10.17875 -10.17678 -10.17500 -10.16291
  Beta  occ. eigenvalues --  -10.15997 -10.15268 -10.14944 -10.13442 -10.12669
  Beta  occ. eigenvalues --  -10.11999 -10.11949 -10.11090 -10.10634 -10.10606
  Beta  occ. eigenvalues --  -10.10408 -10.10364 -10.09975 -10.09144 -10.08619
  Beta  occ. eigenvalues --  -10.08469 -10.08397 -10.08387 -10.07957 -10.07891
  Beta  occ. eigenvalues --  -10.07819  -7.88720  -7.86558  -5.85030  -5.84647
  Beta  occ. eigenvalues --   -5.84284  -5.82889  -5.82498  -5.82067  -1.00234
  Beta  occ. eigenvalues --   -0.99413  -0.95542  -0.95174  -0.93400  -0.92929
  Beta  occ. eigenvalues --   -0.83735  -0.83266  -0.81280  -0.79537  -0.78502
  Beta  occ. eigenvalues --   -0.73793  -0.71398  -0.69728  -0.68305  -0.66824
  Beta  occ. eigenvalues --   -0.65655  -0.65281  -0.63815  -0.63498  -0.61842
  Beta  occ. eigenvalues --   -0.61086  -0.60161  -0.58187  -0.55013  -0.53865
  Beta  occ. eigenvalues --   -0.53492  -0.52262  -0.51445  -0.49851  -0.48114
  Beta  occ. eigenvalues --   -0.47348  -0.45970  -0.45669  -0.45148  -0.43039
  Beta  occ. eigenvalues --   -0.41925  -0.40808  -0.40665  -0.39789  -0.39604
  Beta  occ. eigenvalues --   -0.39191  -0.38170  -0.37924  -0.37791  -0.37458
  Beta  occ. eigenvalues --   -0.36943  -0.36657  -0.36466  -0.35013  -0.34194
  Beta  occ. eigenvalues --   -0.34096  -0.33701  -0.33095  -0.33033  -0.32565
  Beta  occ. eigenvalues --   -0.32333  -0.32048  -0.31146  -0.30460  -0.30310
  Beta  occ. eigenvalues --   -0.30204  -0.30112  -0.29624  -0.29250  -0.29100
  Beta  occ. eigenvalues --   -0.28459  -0.28267  -0.27624  -0.27214  -0.26782
  Beta  occ. eigenvalues --   -0.25995  -0.25463  -0.25106  -0.24955  -0.23282
  Beta  occ. eigenvalues --   -0.22224  -0.19956  -0.18560  -0.18504  -0.17665
  Beta  occ. eigenvalues --   -0.17410  -0.16994  -0.16684  -0.16275  -0.15742
  Beta  occ. eigenvalues --   -0.15405  -0.14516  -0.12608  -0.09696
  Beta virt. eigenvalues --   -0.00885   0.02917   0.05601   0.05801   0.06672
  Beta virt. eigenvalues --    0.06900   0.07543   0.08098   0.08597   0.08912
  Beta virt. eigenvalues --    0.09126   0.09607   0.10147   0.10310   0.10396

 Mulliken charges and spin densities:
               1          2
     1  C    0.231332   0.014899
     2  C   -0.045474   0.128645
     3  C    0.209614  -0.038213
     4  C    0.204766   0.095509
     5  C    0.174474   0.018046
     6  C    0.095634   0.009541
     7  C    0.232511  -0.027566
     8  C    0.480640   0.129033
     9  C    0.104105   0.092730
    10  C   -0.930292   0.011203
    11  C    0.178349   0.019476
    12  C    0.157990   0.096028
    13  C   -0.486425   0.053584
    14  C   -0.574696   0.063078
    15  H    0.129797  -0.004319
    16  H    0.132923  -0.003882
    17  H    0.148429  -0.000325
    18  N   -0.050809  -0.020323
    19  N   -0.140049  -0.018591
    20  O   -0.357814   0.071119
    21  O   -0.341096   0.062407
    22  O   -0.351469   0.067361
    23  O   -0.319136   0.078011
    24  C   -0.151150   0.001934
    25  H    0.157541  -0.001094
    26  H    0.146589  -0.000778
    27  H    0.169939  -0.000376
    28  C   -0.190499   0.001052
    29  H    0.153982  -0.000864
    30  H    0.153632  -0.000812
    31  H    0.168316  -0.000313
    32  C   -0.178966  -0.034927
    33  C   -0.131456   0.067047
    34  S   -0.699189   0.022787
    35  C   -0.478643  -0.021199
    36  H    0.148144  -0.003274
    37  C    0.667346   0.046083
    38  O   -0.130396  -0.001402
    39  C    0.964643  -0.017364
    40  C   -0.245435   0.000058
    41  C   -0.000194   0.026386
    42  S   -0.260322   0.002055
    43  H    0.147005   0.000006
    44  H    0.138252  -0.000283
    45  H    0.164511  -0.000238
    46  C   -0.587609  -0.010907
    47  O   -0.119196   0.002382
    48  C   -0.329944   0.027333
    49  H    0.116047   0.000534
    50  C   -0.245526  -0.000354
    51  H    0.141659  -0.001707
    52  H    0.125465   0.000327
    53  H    0.166950  -0.000009
    54  H    0.135204   0.000467
 Sum of Mulliken charges =  -1.00000   1.00000

 Dipole moment (field-independent basis, Debye):
    X=             11.2377    Y=             -0.4159    Z=             -0.6059  Tot=             11.2617
 Quadrupole moment (field-independent basis, Debye-Ang):
   XX=           -314.8254   YY=           -255.1441   ZZ=           -230.9354
   XY=             -5.4110   XZ=             -3.9318   YZ=             -7.6679

 Normal termination of Gaussian 16 at Tue Oct  5 19:47:14 2021.
