 Gaussian 16, Revision C.01,
 Gaussian 16:  ES64L-G16RevC.01  3-Jul-2019

 -------------------------------------
 # opt=modredundant b3lyp/6-311+g(d,p)
 -------------------------------------

 ------------
 NDI_-150.pdb
 ------------
 Symbolic Z-matrix:
 Charge = -1 Multiplicity = 2

 SCF Done:  E(UB3LYP) =  -2359.40104408     A.U. after   23 cycles
 SCF Done:  E(UB3LYP) =  -2359.41245546     A.U. after   23 cycles
 SCF Done:  E(UB3LYP) =  -2359.42083137     A.U. after   21 cycles
 SCF Done:  E(UB3LYP) =  -2359.42381230     A.U. after   19 cycles
 SCF Done:  E(UB3LYP) =  -2359.42436646     A.U. after   17 cycles
 SCF Done:  E(UB3LYP) =  -2359.42463994     A.U. after   18 cycles
 SCF Done:  E(UB3LYP) =  -2359.42482945     A.U. after   16 cycles
 SCF Done:  E(UB3LYP) =  -2359.42491851     A.U. after   17 cycles
 SCF Done:  E(UB3LYP) =  -2359.42505387     A.U. after   17 cycles
 SCF Done:  E(UB3LYP) =  -2359.42517992     A.U. after   22 cycles
 SCF Done:  E(UB3LYP) =  -2359.42673246     A.U. after   14 cycles
 SCF Done:  E(UB3LYP) =  -2359.42673359     A.U. after   14 cycles
 SCF Done:  E(UB3LYP) =  -2359.42673395     A.U. after   10 cycles
 SCF Done:  E(UB3LYP) =  -2359.42673411     A.U. after   10 cycles
 SCF Done:  E(UB3LYP) =  -2359.42673414     A.U. after    9 cycles
 SCF Done:  E(UB3LYP) =  -2359.42673430     A.U. after    9 cycles
 SCF Done:  E(UB3LYP) =  -2359.42673459     A.U. after   11 cycles
 SCF Done:  E(UB3LYP) =  -2359.42673490     A.U. after   10 cycles
 SCF Done:  E(UB3LYP) =  -2359.42673512     A.U. after   11 cycles
 SCF Done:  E(UB3LYP) =  -2359.42673515     A.U. after    9 cycles
 Optimization completed.
    -- Stationary point found.

                         Standard orientation:
 ---------------------------------------------------------------------
 Center     Atomic      Atomic             Coordinates (Angstroms)
 Number     Number       Type             X           Y           Z
 ---------------------------------------------------------------------
      1          6           0       -3.486027   -2.691754    0.335351
      2          6           0       -2.763203   -1.455191    0.057388
      3          6           0       -3.429245   -0.208277    0.121642
      4          6           0       -4.798691   -0.130706    0.460782
      5          6           0       -5.556949   -1.346042    0.752291
      6          6           0       -1.392895   -1.500826   -0.214778
      7          6           0       -2.690234    0.984842   -0.174789
      8          6           0       -1.310532    0.907725   -0.522718
      9          6           0       -0.639224   -0.358024   -0.487016
     10          6           0       -0.671192    2.111317   -1.052684
     11          6           0       -2.689930    3.468963   -0.453770
     12          6           0       -3.377718    2.224667   -0.125731
     13          6           0       -4.740077    2.273655    0.227339
     14          6           0       -5.441415    1.120511    0.516283
     15          1           0       -6.490418    1.148739    0.782310
     16          1           0       -5.217883    3.244814    0.257848
     17          1           0       -0.906140   -2.464574   -0.147873
     18          7           0       -1.368049    3.329809   -0.898637
     19          7           0       -4.846073   -2.560634    0.665720
     20          8           0       -2.979067   -3.814859    0.295298
     21          8           0       -6.750949   -1.344135    1.056412
     22          8           0       -3.216885    4.581710   -0.379887
     23          8           0        0.414394    2.132752   -1.631896
     24          6           0       -0.664175    4.529598   -1.353380
     25          1           0        0.338661    4.546905   -0.926940
     26          1           0       -0.565181    4.526175   -2.441840
     27          1           0       -1.242645    5.392190   -1.035147
     28          6           0       -5.563011   -3.805719    0.943276
     29          1           0       -5.515202   -4.464815    0.074488
     30          1           0       -5.097947   -4.325283    1.783218
     31          1           0       -6.592832   -3.549772    1.174624
     32          6           0        0.817217   -0.559330   -0.568940
     33          6           0        1.447859   -1.664211   -1.103461
     34         16           0        1.958198    0.426481    0.306389
     35          6           0        2.836274   -1.701648   -0.838214
     36          1           0        0.917994   -2.406169   -1.682501
     37          6           0        3.302169   -0.644704   -0.070017
     38          8           0        3.714937   -2.656149   -1.275452
     39          6           0        4.656688   -0.381057    0.343853
     40          6           0        3.191692   -3.729834   -2.042491
     41          6           0        5.130734    0.665182    1.123339
     42         16           0        6.010360   -1.414033   -0.109612
     43          1           0        4.039683   -4.372171   -2.278904
     44          1           0        2.449741   -4.301230   -1.474128
     45          1           0        2.737547   -3.370230   -2.972389
     46          6           0        6.536944    0.648781    1.342259
     47          8           0        4.250919    1.580577    1.629026
     48          6           0        7.143516   -0.415163    0.735097
     49          1           0        7.070748    1.387310    1.923785
     50          6           0        4.775437    2.803501    2.118184
     51          1           0        8.191120   -0.673601    0.738687
     52          1           0        5.386804    3.305475    1.359573
     53          1           0        3.914300    3.425553    2.359322
     54          1           0        5.372697    2.650596    3.025283
 ---------------------------------------------------------------------

 The electronic state is 2-A.
 Alpha  occ. eigenvalues --  -88.80132 -88.77943 -19.08504 -19.08279 -18.99488
 Alpha  occ. eigenvalues --  -18.99404 -18.99067 -18.98875 -14.26438 -14.25998
 Alpha  occ. eigenvalues --  -10.17984 -10.17753 -10.17523 -10.17482 -10.16228
 Alpha  occ. eigenvalues --  -10.15898 -10.15784 -10.15051 -10.13376 -10.12664
 Alpha  occ. eigenvalues --  -10.11970 -10.11922 -10.11017 -10.10521 -10.10374
 Alpha  occ. eigenvalues --  -10.10171 -10.10131 -10.09894 -10.09060 -10.08675
 Alpha  occ. eigenvalues --  -10.08605 -10.08550 -10.08475 -10.08351 -10.07922
 Alpha  occ. eigenvalues --  -10.07862  -7.88687  -7.86496  -5.84996  -5.84613
 Alpha  occ. eigenvalues --   -5.84257  -5.82823  -5.82426  -5.82036  -1.00107
 Alpha  occ. eigenvalues --   -0.99663  -0.95551  -0.95261  -0.93486  -0.93164
 Alpha  occ. eigenvalues --   -0.83664  -0.83264  -0.81288  -0.79711  -0.78622
 Alpha  occ. eigenvalues --   -0.74074  -0.71608  -0.69857  -0.68284  -0.66738
 Alpha  occ. eigenvalues --   -0.66208  -0.65456  -0.63872  -0.63417  -0.61962
 Alpha  occ. eigenvalues --   -0.61002  -0.60298  -0.58599  -0.54907  -0.54005
 Alpha  occ. eigenvalues --   -0.53394  -0.52415  -0.51476  -0.49810  -0.48044
 Alpha  occ. eigenvalues --   -0.47598  -0.46030  -0.45808  -0.45159  -0.43043
 Alpha  occ. eigenvalues --   -0.42058  -0.40769  -0.40399  -0.40182  -0.39926
 Alpha  occ. eigenvalues --   -0.39219  -0.38263  -0.38026  -0.37856  -0.37486
 Alpha  occ. eigenvalues --   -0.36958  -0.36608  -0.36479  -0.35294  -0.34326
 Alpha  occ. eigenvalues --   -0.34038  -0.33693  -0.33448  -0.32925  -0.32586
 Alpha  occ. eigenvalues --   -0.32474  -0.32235  -0.31576  -0.30518  -0.30417
 Alpha  occ. eigenvalues --   -0.30249  -0.29952  -0.29807  -0.29657  -0.29254
 Alpha  occ. eigenvalues --   -0.28913  -0.28632  -0.27765  -0.27502  -0.26928
 Alpha  occ. eigenvalues --   -0.25998  -0.25510  -0.25090  -0.24417  -0.24068
 Alpha  occ. eigenvalues --   -0.22667  -0.20139  -0.19397  -0.18552  -0.17885
 Alpha  occ. eigenvalues --   -0.17671  -0.17142  -0.16850  -0.16309  -0.15965
 Alpha  occ. eigenvalues --   -0.15792  -0.14584  -0.13833  -0.10230  -0.05064
 Alpha virt. eigenvalues --    0.02997   0.04745   0.05831   0.06320   0.06791
 Alpha virt. eigenvalues --    0.07381   0.07447   0.08598   0.08897   0.09078
 Alpha virt. eigenvalues --    0.09327   0.09498   0.10102   0.10402   0.10630

  Beta  occ. eigenvalues --  -88.80130 -88.77936 -19.08494 -19.08286 -18.99308
  Beta  occ. eigenvalues --  -18.99206 -18.98883 -18.98666 -14.26487 -14.26049
  Beta  occ. eigenvalues --  -10.17937 -10.17707 -10.17480 -10.17436 -10.16228
  Beta  occ. eigenvalues --  -10.15874 -10.15784 -10.15075 -10.13393 -10.12640
  Beta  occ. eigenvalues --  -10.11959 -10.11920 -10.11026 -10.10520 -10.10260
  Beta  occ. eigenvalues --  -10.10187 -10.10170 -10.09948 -10.08871 -10.08625
  Beta  occ. eigenvalues --  -10.08460 -10.08381 -10.08312 -10.08302 -10.07842
  Beta  occ. eigenvalues --  -10.07779  -7.88685  -7.86489  -5.84995  -5.84612
  Beta  occ. eigenvalues --   -5.84251  -5.82816  -5.82420  -5.82020  -1.00086
  Beta  occ. eigenvalues --   -0.99678  -0.95317  -0.95019  -0.93165  -0.92831
  Beta  occ. eigenvalues --   -0.83552  -0.83150  -0.81263  -0.79603  -0.78527
  Beta  occ. eigenvalues --   -0.73764  -0.71306  -0.69761  -0.68249  -0.66667
  Beta  occ. eigenvalues --   -0.66076  -0.65048  -0.63799  -0.63359  -0.61933
  Beta  occ. eigenvalues --   -0.60951  -0.60069  -0.58304  -0.54761  -0.53826
  Beta  occ. eigenvalues --   -0.53272  -0.52305  -0.51403  -0.49746  -0.48021
  Beta  occ. eigenvalues --   -0.47543  -0.45998  -0.45697  -0.45037  -0.42894
  Beta  occ. eigenvalues --   -0.41965  -0.40742  -0.40355  -0.40190  -0.39886
  Beta  occ. eigenvalues --   -0.39073  -0.38040  -0.37968  -0.37669  -0.37458
  Beta  occ. eigenvalues --   -0.36876  -0.36488  -0.36420  -0.35206  -0.34169
  Beta  occ. eigenvalues --   -0.33985  -0.33571  -0.33389  -0.32852  -0.32428
  Beta  occ. eigenvalues --   -0.32239  -0.31989  -0.31442  -0.30316  -0.30186
  Beta  occ. eigenvalues --   -0.30086  -0.29798  -0.29598  -0.29060  -0.28990
  Beta  occ. eigenvalues --   -0.28629  -0.28174  -0.27692  -0.27246  -0.26692
  Beta  occ. eigenvalues --   -0.25910  -0.25482  -0.24954  -0.24322  -0.24000
  Beta  occ. eigenvalues --   -0.21998  -0.19815  -0.18470  -0.18360  -0.17528
  Beta  occ. eigenvalues --   -0.17254  -0.16842  -0.16629  -0.16099  -0.15596
  Beta  occ. eigenvalues --   -0.15448  -0.14422  -0.12434  -0.09908
  Beta virt. eigenvalues --   -0.00699   0.03314   0.05769   0.05832   0.06696
  Beta virt. eigenvalues --    0.06805   0.07394   0.08210   0.08603   0.08907
  Beta virt. eigenvalues --    0.09117   0.09374   0.09646   0.10113   0.10409

 Mulliken charges and spin densities:
               1          2
     1  C    0.305751   0.018616
     2  C   -0.087951   0.125693
     3  C    0.111492  -0.039137
     4  C    0.236684   0.099909
     5  C    0.164357   0.019036
     6  C   -0.137063   0.033671
     7  C    0.160351  -0.036216
     8  C    0.142136   0.144597
     9  C    0.257680   0.076646
    10  C   -0.510195   0.013555
    11  C    0.271659   0.018862
    12  C    0.080987   0.109384
    13  C   -0.480471   0.053454
    14  C   -0.568150   0.068624
    15  H    0.129842  -0.004792
    16  H    0.131603  -0.003913
    17  H    0.140409  -0.001903
    18  N   -0.044340  -0.019975
    19  N   -0.143325  -0.020117
    20  O   -0.359922   0.073926
    21  O   -0.346101   0.067263
    22  O   -0.352755   0.069120
    23  O   -0.281254   0.079524
    24  C   -0.174760   0.001525
    25  H    0.159206  -0.000661
    26  H    0.155122  -0.001118
    27  H    0.168554  -0.000388
    28  C   -0.186393   0.001281
    29  H    0.152074  -0.000892
    30  H    0.153736  -0.000921
    31  H    0.168998  -0.000339
    32  C    0.159237  -0.015629
    33  C   -0.706199   0.036103
    34  S   -0.662090   0.013473
    35  C   -0.059903  -0.017051
    36  H    0.125927  -0.001665
    37  C    0.674463   0.023941
    38  O   -0.140048  -0.000934
    39  C    0.846344  -0.010934
    40  C   -0.222842   0.000157
    41  C   -0.082892   0.017269
    42  S   -0.272136   0.001266
    43  H    0.149074   0.000000
    44  H    0.147816  -0.000127
    45  H    0.142616  -0.000192
    46  C   -0.494505  -0.007612
    47  O   -0.122569   0.001266
    48  C   -0.319513   0.016859
    49  H    0.113845   0.000334
    50  C   -0.260513  -0.000261
    51  H    0.141290  -0.001046
    52  H    0.140729   0.000264
    53  H    0.160395   0.000033
    54  H    0.123514   0.000173
 Sum of Mulliken charges =  -1.00000   1.00000

 Dipole moment (field-independent basis, Debye):
    X=             11.2123    Y=             -1.2006    Z=              0.1866  Tot=             11.2779
 Quadrupole moment (field-independent basis, Debye-Ang):
   XX=           -312.6189   YY=           -259.7965   ZZ=           -228.3148
   XY=              9.5788   XZ=             12.6296   YZ=             15.9374

 Normal termination of Gaussian 16 at Tue Oct  5 19:18:54 2021.
