 Gaussian 16, Revision C.01,
 Gaussian 16:  ES64L-G16RevC.01  3-Jul-2019

 -------------------------------------
 # opt=modredundant b3lyp/6-311+g(d,p)
 -------------------------------------

 -----------
 NDI_-45.pdb
 -----------
 Symbolic Z-matrix:
 Charge = -1 Multiplicity = 2

 SCF Done:  E(UB3LYP) =  -2359.42431665     A.U. after   22 cycles
 SCF Done:  E(UB3LYP) =  -2359.42808310     A.U. after   19 cycles
 SCF Done:  E(UB3LYP) =  -2359.42806203     A.U. after   18 cycles
 SCF Done:  E(UB3LYP) =  -2359.42879566     A.U. after   17 cycles
 SCF Done:  E(UB3LYP) =  -2359.42889649     A.U. after   17 cycles
 SCF Done:  E(UB3LYP) =  -2359.42896113     A.U. after   16 cycles
 SCF Done:  E(UB3LYP) =  -2359.42897515     A.U. after   16 cycles
 SCF Done:  E(UB3LYP) =  -2359.42898532     A.U. after   16 cycles
 SCF Done:  E(UB3LYP) =  -2359.42898791     A.U. after   15 cycles
 SCF Done:  E(UB3LYP) =  -2359.42899004     A.U. after   13 cycles
 SCF Done:  E(UB3LYP) =  -2359.42900103     A.U. after   12 cycles
 SCF Done:  E(UB3LYP) =  -2359.42900147     A.U. after   13 cycles
 SCF Done:  E(UB3LYP) =  -2359.42900156     A.U. after   10 cycles
 SCF Done:  E(UB3LYP) =  -2359.42900160     A.U. after   10 cycles
 SCF Done:  E(UB3LYP) =  -2359.42900167     A.U. after   10 cycles
 SCF Done:  E(UB3LYP) =  -2359.42900170     A.U. after   10 cycles
 SCF Done:  E(UB3LYP) =  -2359.42900174     A.U. after    8 cycles
 SCF Done:  E(UB3LYP) =  -2359.42900177     A.U. after    9 cycles
 SCF Done:  E(UB3LYP) =  -2359.42900181     A.U. after    9 cycles
 SCF Done:  E(UB3LYP) =  -2359.42900182     A.U. after    9 cycles
 Optimization completed.
    -- Stationary point found.

                         Standard orientation:
 ---------------------------------------------------------------------
 Center     Atomic      Atomic             Coordinates (Angstroms)
 Number     Number       Type             X           Y           Z
 ---------------------------------------------------------------------
      1          6           0        2.734879   -2.953663    0.467462
      2          6           0        2.356827   -1.560607    0.249460
      3          6           0        3.349099   -0.567460    0.076916
      4          6           0        4.722349   -0.901647    0.112257
      5          6           0        5.142925   -2.285188    0.329047
      6          6           0        1.006345   -1.202818    0.254127
      7          6           0        2.939125    0.790896   -0.142611
      8          6           0        1.552542    1.131396   -0.178845
      9          6           0        0.572496    0.110824    0.070234
     10          6           0        1.190342    2.496968   -0.562833
     11          6           0        3.611796    3.157390   -0.588970
     12          6           0        3.954038    1.764442   -0.330945
     13          6           0        5.314904    1.404551   -0.282620
     14          6           0        5.697170    0.097280   -0.064624
     15          1           0        6.740478   -0.189441   -0.030287
     16          1           0        6.047320    2.188601   -0.427522
     17          1           0        0.286340   -1.984508    0.458787
     18          7           0        2.242316    3.430787   -0.698633
     19          7           0        4.112667   -3.232412    0.489485
     20          8           0        1.930268   -3.872577    0.628523
     21          8           0        6.323550   -2.635299    0.372573
     22          8           0        4.448597    4.053919   -0.724058
     23          8           0        0.046138    2.896029   -0.785543
     24          6           0        1.838294    4.795211   -1.041256
     25          1           0        1.325726    4.805019   -2.005071
     26          1           0        1.144012    5.177946   -0.291339
     27          1           0        2.737195    5.403540   -1.079670
     28          6           0        4.482197   -4.631708    0.705448
     29          1           0        4.100760   -4.975021    1.669096
     30          1           0        4.039205   -5.257229   -0.071482
     31          1           0        5.566087   -4.695376    0.679263
     32          6           0       -0.871444    0.349612    0.227808
     33          6           0       -1.527923    1.312113    0.954596
     34         16           0       -2.013492   -0.767132   -0.485035
     35          6           0       -2.932703    1.158385    0.942971
     36          1           0       -1.008437    2.111030    1.458359
     37          6           0       -3.394026    0.073780    0.209510
     38          8           0       -3.831399    1.966109    1.584513
     39          6           0       -4.756855   -0.341249    0.000883
     40          6           0       -3.341997    3.184229    2.130604
     41          6           0       -5.224880   -1.429767   -0.723041
     42         16           0       -6.131713    0.530052    0.675073
     43          1           0       -4.216552    3.722961    2.494921
     44          1           0       -2.658488    2.998238    2.966494
     45          1           0       -2.830142    3.780634    1.368884
     46          6           0       -6.641362   -1.565690   -0.735634
     47          8           0       -4.331896   -2.247513   -1.357332
     48          6           0       -7.262816   -0.579125   -0.021376
     49          1           0       -7.173177   -2.354423   -1.248846
     50          6           0       -4.819109   -3.452168   -1.922184
     51          1           0       -8.321038   -0.439717    0.136517
     52          1           0       -5.514035   -3.256139   -2.747705
     53          1           0       -3.946344   -3.978619   -2.306409
     54          1           0       -5.315857   -4.074117   -1.168287
 ---------------------------------------------------------------------

 The electronic state is 2-A.
 Alpha  occ. eigenvalues --  -88.80119 -88.78222 -19.08639 -19.08045 -18.99493
 Alpha  occ. eigenvalues --  -18.99362 -18.99113 -18.98900 -14.26424 -14.26135
 Alpha  occ. eigenvalues --  -10.17989 -10.17721 -10.17668 -10.17566 -10.16345
 Alpha  occ. eigenvalues --  -10.15938 -10.15411 -10.14964 -10.13379 -10.12633
 Alpha  occ. eigenvalues --  -10.11968 -10.11723 -10.11035 -10.10502 -10.10488
 Alpha  occ. eigenvalues --  -10.10295 -10.10265 -10.09945 -10.09309 -10.08641
 Alpha  occ. eigenvalues --  -10.08560 -10.08516 -10.08334 -10.08252 -10.07937
 Alpha  occ. eigenvalues --  -10.07875  -7.88672  -7.86782  -5.84981  -5.84598
 Alpha  occ. eigenvalues --   -5.84242  -5.83102  -5.82713  -5.82333  -1.00228
 Alpha  occ. eigenvalues --   -0.99424  -0.95560  -0.95346  -0.93490  -0.93219
 Alpha  occ. eigenvalues --   -0.83670  -0.83317  -0.81292  -0.79707  -0.78625
 Alpha  occ. eigenvalues --   -0.74070  -0.71640  -0.69807  -0.68329  -0.66847
 Alpha  occ. eigenvalues --   -0.65857  -0.65576  -0.63904  -0.63479  -0.61940
 Alpha  occ. eigenvalues --   -0.61048  -0.60348  -0.58480  -0.55020  -0.53979
 Alpha  occ. eigenvalues --   -0.53498  -0.52335  -0.51526  -0.49856  -0.48123
 Alpha  occ. eigenvalues --   -0.47447  -0.45927  -0.45782  -0.45200  -0.43063
 Alpha  occ. eigenvalues --   -0.41865  -0.40875  -0.40743  -0.39898  -0.39758
 Alpha  occ. eigenvalues --   -0.39299  -0.38251  -0.37963  -0.37880  -0.37491
 Alpha  occ. eigenvalues --   -0.36983  -0.36615  -0.36546  -0.35020  -0.34298
 Alpha  occ. eigenvalues --   -0.34178  -0.33767  -0.33296  -0.32947  -0.32649
 Alpha  occ. eigenvalues --   -0.32530  -0.32250  -0.31435  -0.30560  -0.30473
 Alpha  occ. eigenvalues --   -0.30247  -0.29956  -0.29886  -0.29508  -0.29289
 Alpha  occ. eigenvalues --   -0.29134  -0.28685  -0.27766  -0.27327  -0.27041
 Alpha  occ. eigenvalues --   -0.26055  -0.25569  -0.25000  -0.24499  -0.23957
 Alpha  occ. eigenvalues --   -0.22868  -0.20208  -0.19453  -0.18533  -0.17893
 Alpha  occ. eigenvalues --   -0.17735  -0.17194  -0.16934  -0.16308  -0.16005
 Alpha  occ. eigenvalues --   -0.15844  -0.14535  -0.13886  -0.10214  -0.05119
 Alpha virt. eigenvalues --    0.03058   0.04671   0.05786   0.06387   0.06858
 Alpha virt. eigenvalues --    0.07380   0.07467   0.08613   0.08984   0.09158
 Alpha virt. eigenvalues --    0.09295   0.09525   0.10025   0.10213   0.10644

  Beta  occ. eigenvalues --  -88.80117 -88.78213 -19.08631 -19.08050 -18.99311
  Beta  occ. eigenvalues --  -18.99161 -18.98929 -18.98690 -14.26473 -14.26187
  Beta  occ. eigenvalues --  -10.17943 -10.17677 -10.17616 -10.17520 -10.16345
  Beta  occ. eigenvalues --  -10.15916 -10.15410 -10.14986 -10.13395 -10.12611
  Beta  occ. eigenvalues --  -10.11919 -10.11761 -10.11044 -10.10501 -10.10369
  Beta  occ. eigenvalues --  -10.10318 -10.10294 -10.10002 -10.09130 -10.08489
  Beta  occ. eigenvalues --  -10.08379 -10.08361 -10.08288 -10.08210 -10.07854
  Beta  occ. eigenvalues --  -10.07794  -7.88671  -7.86774  -5.84980  -5.84597
  Beta  occ. eigenvalues --   -5.84237  -5.83097  -5.82708  -5.82310  -1.00210
  Beta  occ. eigenvalues --   -0.99436  -0.95323  -0.95103  -0.93164  -0.92885
  Beta  occ. eigenvalues --   -0.83555  -0.83201  -0.81267  -0.79598  -0.78530
  Beta  occ. eigenvalues --   -0.73757  -0.71339  -0.69719  -0.68286  -0.66758
  Beta  occ. eigenvalues --   -0.65746  -0.65179  -0.63820  -0.63421  -0.61907
  Beta  occ. eigenvalues --   -0.60998  -0.60101  -0.58206  -0.54875  -0.53781
  Beta  occ. eigenvalues --   -0.53408  -0.52157  -0.51491  -0.49810  -0.48103
  Beta  occ. eigenvalues --   -0.47384  -0.45881  -0.45686  -0.45080  -0.42907
  Beta  occ. eigenvalues --   -0.41763  -0.40850  -0.40710  -0.39904  -0.39733
  Beta  occ. eigenvalues --   -0.39138  -0.38025  -0.37905  -0.37704  -0.37464
  Beta  occ. eigenvalues --   -0.36886  -0.36559  -0.36435  -0.34936  -0.34183
  Beta  occ. eigenvalues --   -0.34069  -0.33665  -0.33239  -0.32885  -0.32486
  Beta  occ. eigenvalues --   -0.32295  -0.31967  -0.31335  -0.30281  -0.30189
  Beta  occ. eigenvalues --   -0.30118  -0.29838  -0.29607  -0.29149  -0.28994
  Beta  occ. eigenvalues --   -0.28647  -0.28281  -0.27710  -0.27097  -0.26779
  Beta  occ. eigenvalues --   -0.25995  -0.25536  -0.24907  -0.24382  -0.23902
  Beta  occ. eigenvalues --   -0.22157  -0.19885  -0.18542  -0.18346  -0.17569
  Beta  occ. eigenvalues --   -0.17262  -0.16847  -0.16719  -0.16075  -0.15679
  Beta  occ. eigenvalues --   -0.15536  -0.14357  -0.12479  -0.09908
  Beta virt. eigenvalues --   -0.00743   0.03338   0.05707   0.05788   0.06801
  Beta virt. eigenvalues --    0.06874   0.07445   0.08167   0.08620   0.08991
  Beta virt. eigenvalues --    0.09166   0.09456   0.09585   0.10038   0.10219

 Mulliken charges and spin densities:
               1          2
     1  C    0.314127   0.015844
     2  C   -0.195700   0.131682
     3  C    0.102592  -0.039375
     4  C    0.204081   0.104574
     5  C    0.195675   0.017823
     6  C   -0.516902   0.035508
     7  C    0.201351  -0.033370
     8  C    0.256702   0.134799
     9  C    0.520927   0.082863
    10  C   -0.437547   0.020625
    11  C    0.161287   0.019500
    12  C    0.159726   0.103129
    13  C   -0.478360   0.060218
    14  C   -0.589980   0.063003
    15  H    0.129955  -0.004414
    16  H    0.131701  -0.004272
    17  H    0.158636  -0.002122
    18  N   -0.115382  -0.020570
    19  N   -0.142342  -0.019886
    20  O   -0.356751   0.075459
    21  O   -0.345041   0.067996
    22  O   -0.348888   0.069152
    23  O   -0.258485   0.078777
    24  C   -0.188736   0.001402
    25  H    0.156447  -0.001042
    26  H    0.149134  -0.000835
    27  H    0.169161  -0.000363
    28  C   -0.190982   0.001194
    29  H    0.153338  -0.000925
    30  H    0.153412  -0.000881
    31  H    0.168618  -0.000341
    32  C    0.108099  -0.037760
    33  C   -0.400761   0.032249
    34  S   -0.568448   0.016081
    35  C   -0.191778  -0.010484
    36  H    0.120584  -0.002631
    37  C    0.664043   0.033217
    38  O   -0.133194  -0.000929
    39  C    0.781507  -0.011952
    40  C   -0.242989   0.000352
    41  C   -0.065852   0.015085
    42  S   -0.291633   0.001564
    43  H    0.145999   0.000000
    44  H    0.136019  -0.000154
    45  H    0.162322  -0.000093
    46  C   -0.563220  -0.006577
    47  O   -0.121001   0.001560
    48  C   -0.295384   0.015462
    49  H    0.115294   0.000307
    50  C   -0.246776   0.000077
    51  H    0.140704  -0.000958
    52  H    0.125928   0.000172
    53  H    0.162635   0.000016
    54  H    0.136129   0.000242
 Sum of Mulliken charges =  -1.00000   1.00000

 Dipole moment (field-independent basis, Debye):
    X=            -11.2797    Y=             -0.3437    Z=              0.5344  Tot=             11.2975
 Quadrupole moment (field-independent basis, Debye-Ang):
   XX=           -317.4342   YY=           -259.2080   ZZ=           -225.7445
   XY=              5.1377   XZ=              3.8879   YZ=             18.4753

 Normal termination of Gaussian 16 at Tue Oct  5 14:59:20 2021.
