 Gaussian 16, Revision C.01,
 Gaussian 16:  ES64L-G16RevC.01  3-Jul-2019

 -------------------------------------
 # opt=modredundant b3lyp/6-311+g(d,p)
 -------------------------------------

 -----------
 NDI_-15.pdb
 -----------
 Symbolic Z-matrix:
 Charge = -1 Multiplicity = 2

 SCF Done:  E(UB3LYP) =  -2359.41539067     A.U. after   24 cycles
 SCF Done:  E(UB3LYP) =  -2359.40412328     A.U. after   23 cycles
 SCF Done:  E(UB3LYP) =  -2359.42093121     A.U. after   19 cycles
 SCF Done:  E(UB3LYP) =  -2359.42390982     A.U. after   22 cycles
 SCF Done:  E(UB3LYP) =  -2359.42548514     A.U. after   23 cycles
 SCF Done:  E(UB3LYP) =  -2359.42559525     A.U. after   23 cycles
 SCF Done:  E(UB3LYP) =  -2359.42644317     A.U. after   19 cycles
 SCF Done:  E(UB3LYP) =  -2359.42656475     A.U. after   19 cycles
 SCF Done:  E(UB3LYP) =  -2359.42659022     A.U. after   17 cycles
 SCF Done:  E(UB3LYP) =  -2359.42660409     A.U. after   15 cycles
 SCF Done:  E(UB3LYP) =  -2359.42663119     A.U. after   11 cycles
 SCF Done:  E(UB3LYP) =  -2359.42663159     A.U. after   10 cycles
 SCF Done:  E(UB3LYP) =  -2359.42663222     A.U. after   14 cycles
 SCF Done:  E(UB3LYP) =  -2359.42663253     A.U. after   10 cycles
 SCF Done:  E(UB3LYP) =  -2359.42663291     A.U. after   13 cycles
 SCF Done:  E(UB3LYP) =  -2359.42663302     A.U. after   13 cycles
 SCF Done:  E(UB3LYP) =  -2359.42663308     A.U. after   12 cycles
 SCF Done:  E(UB3LYP) =  -2359.42663311     A.U. after   11 cycles
 SCF Done:  E(UB3LYP) =  -2359.42663314     A.U. after   10 cycles
 SCF Done:  E(UB3LYP) =  -2359.42663316     A.U. after    8 cycles
 Optimization completed.
    -- Stationary point found.

                         Standard orientation:
 ---------------------------------------------------------------------
 Center     Atomic      Atomic             Coordinates (Angstroms)
 Number     Number       Type             X           Y           Z
 ---------------------------------------------------------------------
      1          6           0       -2.572352   -3.021781   -0.104314
      2          6           0       -2.272110   -1.595501   -0.007905
      3          6           0       -3.312158   -0.637842   -0.060010
      4          6           0       -4.656983   -1.038513   -0.215246
      5          6           0       -5.000354   -2.457302   -0.319636
      6          6           0       -0.946349   -1.176156    0.063615
      7          6           0       -2.971935    0.751154    0.057331
      8          6           0       -1.610550    1.158561    0.220418
      9          6           0       -0.560757    0.166673    0.153423
     10          6           0       -1.376422    2.551244    0.600437
     11          6           0       -3.781225    3.114878    0.171492
     12          6           0       -4.037450    1.688781    0.018989
     13          6           0       -5.368770    1.263942   -0.154275
     14          6           0       -5.680135   -0.074678   -0.268915
     15          1           0       -6.701290   -0.411314   -0.393790
     16          1           0       -6.137587    2.025639   -0.185549
     17          1           0       -0.196673   -1.953683   -0.009490
     18          7           0       -2.456116    3.453899    0.466215
     19          7           0       -3.927183   -3.366965   -0.248661
     20          8           0       -1.722732   -3.912547   -0.067540
     21          8           0       -6.153999   -2.865134   -0.459117
     22          8           0       -4.653680    3.982874    0.083497
     23          8           0       -0.318502    3.004989    1.044642
     24          6           0       -2.157847    4.853846    0.771548
     25          1           0       -1.883616    4.963297    1.822994
     26          1           0       -1.313366    5.192619    0.169962
     27          1           0       -3.048720    5.434306    0.549819
     28          6           0       -4.220520   -4.797611   -0.341890
     29          1           0       -3.723637   -5.225764   -1.214748
     30          1           0       -3.843595   -5.312089    0.543628
     31          1           0       -5.297672   -4.909891   -0.423488
     32          6           0        0.872176    0.434917   -0.021935
     33          6           0        1.535973    1.572637   -0.426948
     34         16           0        2.039200   -0.838121    0.331920
     35          6           0        2.937706    1.421294   -0.486913
     36          1           0        1.026168    2.490595   -0.656569
     37          6           0        3.408505    0.171702   -0.108902
     38          8           0        3.828023    2.384355   -0.873916
     39          6           0        4.771050   -0.286977   -0.063025
     40          6           0        3.317873    3.689098   -1.119825
     41          6           0        5.248935   -1.536852    0.311644
     42         16           0        6.135358    0.736766   -0.506339
     43          1           0        4.184741    4.313706   -1.334500
     44          1           0        2.643777    3.694467   -1.983288
     45          1           0        2.787936    4.078237   -0.245003
     46          6           0        6.663365   -1.672858    0.241555
     47          8           0        4.366673   -2.498181    0.715658
     48          6           0        7.274023   -0.525944   -0.185216
     49          1           0        7.201840   -2.574869    0.495887
     50          6           0        4.861109   -3.808511    0.931228
     51          1           0        8.328820   -0.349288   -0.328120
     52          1           0        5.574550   -3.835976    1.763731
     53          1           0        3.994396   -4.418936    1.181212
     54          1           0        5.339034   -4.207988    0.029006
 ---------------------------------------------------------------------

 The electronic state is 2-A.
 Alpha  occ. eigenvalues --  -88.80161 -88.78039 -19.08647 -19.08028 -18.99672
 Alpha  occ. eigenvalues --  -18.99530 -18.99117 -18.98969 -14.26558 -14.26156
 Alpha  occ. eigenvalues --  -10.18166 -10.17889 -10.17712 -10.17550 -10.16299
 Alpha  occ. eigenvalues --  -10.16020 -10.15292 -10.14928 -10.13411 -10.12695
 Alpha  occ. eigenvalues --  -10.12073 -10.11842 -10.11069 -10.10694 -10.10617
 Alpha  occ. eigenvalues --  -10.10395 -10.10306 -10.09923 -10.09295 -10.08744
 Alpha  occ. eigenvalues --  -10.08625 -10.08533 -10.08401 -10.08110 -10.07963
 Alpha  occ. eigenvalues --  -10.07897  -7.88714  -7.86609  -5.85022  -5.84640
 Alpha  occ. eigenvalues --   -5.84284  -5.82933  -5.82543  -5.82156  -1.00260
 Alpha  occ. eigenvalues --   -0.99403  -0.95736  -0.95396  -0.93677  -0.93246
 Alpha  occ. eigenvalues --   -0.83819  -0.83365  -0.81314  -0.79668  -0.78601
 Alpha  occ. eigenvalues --   -0.74098  -0.71680  -0.69825  -0.68355  -0.66913
 Alpha  occ. eigenvalues --   -0.65777  -0.65645  -0.63913  -0.63549  -0.61906
 Alpha  occ. eigenvalues --   -0.61124  -0.60403  -0.58444  -0.55139  -0.54039
 Alpha  occ. eigenvalues --   -0.53576  -0.52414  -0.51498  -0.49892  -0.48139
 Alpha  occ. eigenvalues --   -0.47416  -0.46037  -0.45746  -0.45253  -0.43170
 Alpha  occ. eigenvalues --   -0.42005  -0.40855  -0.40713  -0.39794  -0.39660
 Alpha  occ. eigenvalues --   -0.39334  -0.38360  -0.38001  -0.37921  -0.37492
 Alpha  occ. eigenvalues --   -0.37045  -0.36702  -0.36563  -0.35094  -0.34277
 Alpha  occ. eigenvalues --   -0.34203  -0.33785  -0.33189  -0.33095  -0.32717
 Alpha  occ. eigenvalues --   -0.32601  -0.32260  -0.31298  -0.30717  -0.30571
 Alpha  occ. eigenvalues --   -0.30358  -0.30155  -0.29897  -0.29633  -0.29402
 Alpha  occ. eigenvalues --   -0.28985  -0.28513  -0.27701  -0.27456  -0.27019
 Alpha  occ. eigenvalues --   -0.26092  -0.25537  -0.25233  -0.24976  -0.23514
 Alpha  occ. eigenvalues --   -0.22784  -0.20377  -0.19418  -0.18675  -0.17952
 Alpha  occ. eigenvalues --   -0.17826  -0.17276  -0.16980  -0.16461  -0.15997
 Alpha  occ. eigenvalues --   -0.15809  -0.14721  -0.13840  -0.10206  -0.05112
 Alpha virt. eigenvalues --    0.02580   0.04638   0.05798   0.06264   0.06889
 Alpha virt. eigenvalues --    0.07366   0.07526   0.08599   0.08911   0.09125
 Alpha virt. eigenvalues --    0.09583   0.09909   0.10262   0.10291   0.10641

  Beta  occ. eigenvalues --  -88.80158 -88.78023 -19.08632 -19.08037 -18.99503
  Beta  occ. eigenvalues --  -18.99337 -18.98938 -18.98762 -14.26604 -14.26207
  Beta  occ. eigenvalues --  -10.18122 -10.17848 -10.17656 -10.17507 -10.16300
  Beta  occ. eigenvalues --  -10.15983 -10.15292 -10.14962 -10.13437 -10.12658
  Beta  occ. eigenvalues --  -10.11995 -10.11897 -10.11083 -10.10616 -10.10552
  Beta  occ. eigenvalues --  -10.10394 -10.10356 -10.09980 -10.09122 -10.08603
  Beta  occ. eigenvalues --  -10.08455 -10.08384 -10.08372 -10.08045 -10.07888
  Beta  occ. eigenvalues --  -10.07818  -7.88711  -7.86595  -5.85021  -5.84638
  Beta  occ. eigenvalues --   -5.84275  -5.82925  -5.82534  -5.82107  -1.00229
  Beta  occ. eigenvalues --   -0.99423  -0.95514  -0.95156  -0.93369  -0.92918
  Beta  occ. eigenvalues --   -0.83711  -0.83250  -0.81278  -0.79550  -0.78510
  Beta  occ. eigenvalues --   -0.73790  -0.71391  -0.69728  -0.68302  -0.66817
  Beta  occ. eigenvalues --   -0.65672  -0.65270  -0.63818  -0.63487  -0.61857
  Beta  occ. eigenvalues --   -0.61075  -0.60150  -0.58189  -0.54992  -0.53851
  Beta  occ. eigenvalues --   -0.53482  -0.52248  -0.51449  -0.49845  -0.48112
  Beta  occ. eigenvalues --   -0.47354  -0.45962  -0.45671  -0.45138  -0.43019
  Beta  occ. eigenvalues --   -0.41911  -0.40815  -0.40668  -0.39809  -0.39621
  Beta  occ. eigenvalues --   -0.39176  -0.38149  -0.37921  -0.37774  -0.37459
  Beta  occ. eigenvalues --   -0.36937  -0.36642  -0.36467  -0.34999  -0.34172
  Beta  occ. eigenvalues --   -0.34091  -0.33703  -0.33112  -0.32994  -0.32553
  Beta  occ. eigenvalues --   -0.32357  -0.32033  -0.31173  -0.30441  -0.30296
  Beta  occ. eigenvalues --   -0.30197  -0.30064  -0.29631  -0.29236  -0.29078
  Beta  occ. eigenvalues --   -0.28481  -0.28297  -0.27623  -0.27218  -0.26775
  Beta  occ. eigenvalues --   -0.25994  -0.25482  -0.25077  -0.24877  -0.23408
  Beta  occ. eigenvalues --   -0.22217  -0.19947  -0.18551  -0.18485  -0.17650
  Beta  occ. eigenvalues --   -0.17395  -0.16972  -0.16700  -0.16249  -0.15739
  Beta  occ. eigenvalues --   -0.15421  -0.14456  -0.12592  -0.09714
  Beta virt. eigenvalues --   -0.00876   0.02979   0.05614   0.05799   0.06683
  Beta virt. eigenvalues --    0.06894   0.07525   0.08109   0.08604   0.08913
  Beta virt. eigenvalues --    0.09131   0.09593   0.10089   0.10279   0.10348

 Mulliken charges and spin densities:
               1          2
     1  C    0.224960   0.014915
     2  C   -0.083548   0.128911
     3  C    0.196818  -0.038030
     4  C    0.206328   0.096298
     5  C    0.170611   0.017982
     6  C    0.043942   0.013385
     7  C    0.246421  -0.028765
     8  C    0.512425   0.131467
     9  C    0.140261   0.093538
    10  C   -0.912518   0.011642
    11  C    0.178190   0.018962
    12  C    0.145365   0.097459
    13  C   -0.484542   0.054138
    14  C   -0.576573   0.062868
    15  H    0.129819  -0.004329
    16  H    0.132700  -0.003937
    17  H    0.149359  -0.000550
    18  N   -0.055029  -0.020385
    19  N   -0.140058  -0.018781
    20  O   -0.358158   0.071783
    21  O   -0.341400   0.063069
    22  O   -0.351273   0.067519
    23  O   -0.310508   0.077737
    24  C   -0.154335   0.001850
    25  H    0.157500  -0.001088
    26  H    0.146726  -0.000776
    27  H    0.169704  -0.000373
    28  C   -0.191687   0.001074
    29  H    0.153752  -0.000876
    30  H    0.153644  -0.000817
    31  H    0.168300  -0.000316
    32  C   -0.163301  -0.034961
    33  C   -0.248298   0.059384
    34  S   -0.703810   0.023245
    35  C   -0.311803  -0.020391
    36  H    0.141267  -0.003358
    37  C    0.699462   0.044521
    38  O   -0.130787  -0.001357
    39  C    0.921837  -0.016689
    40  C   -0.244220   0.000025
    41  C   -0.008207   0.025327
    42  S   -0.268393   0.002012
    43  H    0.146850   0.000006
    44  H    0.137781  -0.000267
    45  H    0.164996  -0.000207
    46  C   -0.599851  -0.010437
    47  O   -0.119257   0.002236
    48  C   -0.320387   0.026002
    49  H    0.115946   0.000509
    50  C   -0.245518  -0.000297
    51  H    0.141540  -0.001622
    52  H    0.125149   0.000306
    53  H    0.166130  -0.000004
    54  H    0.135676   0.000442
 Sum of Mulliken charges =  -1.00000   1.00000

 Dipole moment (field-independent basis, Debye):
    X=             11.2423    Y=             -0.4011    Z=             -0.6140  Tot=             11.2662
 Quadrupole moment (field-independent basis, Debye-Ang):
   XX=           -315.2633   YY=           -255.6113   ZZ=           -230.2563
   XY=             -5.3926   XZ=             -2.7384   YZ=             -9.6400

 Normal termination of Gaussian 16 at Tue Oct  5 16:29:56 2021.
