 Gaussian 16, Revision C.01,
 Gaussian 16:  ES64L-G16RevC.01  3-Jul-2019

 -------------------------------------
 # opt=modredundant b3lyp/6-311+g(d,p)
 -------------------------------------

 -----------
 NDI_100.pdb
 -----------
 Symbolic Z-matrix:
 Charge = -1 Multiplicity = 2

 SCF Done:  E(UB3LYP) =  -2359.41964394     A.U. after   23 cycles
 SCF Done:  E(UB3LYP) =  -2359.42618209     A.U. after   19 cycles
 SCF Done:  E(UB3LYP) =  -2359.42730401     A.U. after   19 cycles
 SCF Done:  E(UB3LYP) =  -2359.42738993     A.U. after   17 cycles
 SCF Done:  E(UB3LYP) =  -2359.42758352     A.U. after   15 cycles
 SCF Done:  E(UB3LYP) =  -2359.42761562     A.U. after   15 cycles
 SCF Done:  E(UB3LYP) =  -2359.42763974     A.U. after   13 cycles
 SCF Done:  E(UB3LYP) =  -2359.42765375     A.U. after   12 cycles
 SCF Done:  E(UB3LYP) =  -2359.42766508     A.U. after   12 cycles
 SCF Done:  E(UB3LYP) =  -2359.42767796     A.U. after   12 cycles
 SCF Done:  E(UB3LYP) =  -2359.42777064     A.U. after   11 cycles
 SCF Done:  E(UB3LYP) =  -2359.42777117     A.U. after   11 cycles
 SCF Done:  E(UB3LYP) =  -2359.42777189     A.U. after   12 cycles
 SCF Done:  E(UB3LYP) =  -2359.42777296     A.U. after   11 cycles
 SCF Done:  E(UB3LYP) =  -2359.42777575     A.U. after   13 cycles
 SCF Done:  E(UB3LYP) =  -2359.42777708     A.U. after   12 cycles
 SCF Done:  E(UB3LYP) =  -2359.42777803     A.U. after   12 cycles
 SCF Done:  E(UB3LYP) =  -2359.42777810     A.U. after   11 cycles
 SCF Done:  E(UB3LYP) =  -2359.42777807     A.U. after    9 cycles
 SCF Done:  E(UB3LYP) =  -2359.42777804     A.U. after   10 cycles
 Optimization completed.
    -- Stationary point found.

                         Standard orientation:
 ---------------------------------------------------------------------
 Center     Atomic      Atomic             Coordinates (Angstroms)
 Number     Number       Type             X           Y           Z
 ---------------------------------------------------------------------
      1          6           0        3.341534   -2.807465    0.027586
      2          6           0        2.686665   -1.507138   -0.058903
      3          6           0        3.439853   -0.318273    0.079401
      4          6           0        4.835717   -0.362347    0.309401
      5          6           0        5.527566   -1.644504    0.409058
      6          6           0        1.301845   -1.436721   -0.271654
      7          6           0        2.770018    0.947137   -0.021637
      8          6           0        1.366575    0.994486   -0.256648
      9          6           0        0.631672   -0.223716   -0.368023
     10          6           0        0.721421    2.297685   -0.415377
     11          6           0        2.912673    3.442083    0.011672
     12          6           0        3.540651    2.130028    0.113381
     13          6           0        4.928338    2.054318    0.345282
     14          6           0        5.565850    0.834230    0.441886
     15          1           0        6.631957    0.767267    0.618330
     16          1           0        5.475026    2.983705    0.443399
     17          1           0        0.750178   -2.364816   -0.351429
     18          7           0        1.532368    3.438919   -0.245054
     19          7           0        4.728249   -2.796196    0.260460
     20          8           0        2.757305   -3.886578   -0.090308
     21          8           0        6.739639   -1.748904    0.609401
     22          8           0        3.527769    4.504597    0.132178
     23          8           0       -0.467385    2.463549   -0.688428
     24          6           0        0.851665    4.727205   -0.383707
     25          1           0        0.450825    4.834898   -1.393825
     26          1           0        0.014765    4.780609    0.314055
     27          1           0        1.578761    5.507366   -0.178177
     28          6           0        5.374776   -4.105772    0.349590
     29          1           0        4.924909   -4.689260    1.154946
     30          1           0        5.232490   -4.657006   -0.581959
     31          1           0        6.431393   -3.940519    0.538963
     32          6           0       -0.836535   -0.285372   -0.576697
     33          6           0       -1.507311   -0.502023   -1.749445
     34         16           0       -1.934091   -0.212777    0.770660
     35          6           0       -2.915436   -0.574162   -1.575081
     36          1           0       -0.999410   -0.575347   -2.699863
     37          6           0       -3.341356   -0.436014   -0.265007
     38          8           0       -3.837550   -0.772303   -2.567103
     39          6           0       -4.694070   -0.454239    0.235310
     40          6           0       -3.374676   -0.746173   -3.909071
     41          6           0       -5.128314   -0.334563    1.547188
     42         16           0       -6.095491   -0.625376   -0.817267
     43          1           0       -4.259486   -0.859800   -4.535120
     44          1           0       -2.882366    0.204514   -4.139897
     45          1           0       -2.682632   -1.571892   -4.108471
     46          6           0       -6.542667   -0.367874    1.706790
     47          8           0       -4.208937   -0.219666    2.553058
     48          6           0       -7.194578   -0.518390    0.514852
     49          1           0       -7.050540   -0.286381    2.657482
     50          6           0       -4.674000    0.168004    3.834224
     51          1           0       -8.258066   -0.576445    0.342029
     52          1           0       -5.317067   -0.601464    4.278431
     53          1           0       -3.785611    0.290367    4.452752
     54          1           0       -5.220133    1.117441    3.789626
 ---------------------------------------------------------------------

 The electronic state is 2-A.
 Alpha  occ. eigenvalues --  -88.80119 -88.78112 -19.08582 -19.08235 -18.99267
 Alpha  occ. eigenvalues --  -18.99176 -18.99071 -18.98972 -14.26258 -14.26075
 Alpha  occ. eigenvalues --  -10.17766 -10.17546 -10.17542 -10.17538 -10.16353
 Alpha  occ. eigenvalues --  -10.15882 -10.15758 -10.15049 -10.13363 -10.12623
 Alpha  occ. eigenvalues --  -10.11864 -10.11850 -10.11022 -10.10359 -10.10180
 Alpha  occ. eigenvalues --  -10.10157 -10.10119 -10.09925 -10.09245 -10.08553
 Alpha  occ. eigenvalues --  -10.08479 -10.08477 -10.08462 -10.08184 -10.07890
 Alpha  occ. eigenvalues --  -10.07821  -7.88674  -7.86669  -5.84983  -5.84600
 Alpha  occ. eigenvalues --   -5.84243  -5.82996  -5.82602  -5.82210  -1.00162
 Alpha  occ. eigenvalues --   -0.99618  -0.95338  -0.95281  -0.93261  -0.93185
 Alpha  occ. eigenvalues --   -0.83485  -0.83278  -0.81276  -0.79686  -0.78611
 Alpha  occ. eigenvalues --   -0.74014  -0.71573  -0.69795  -0.68305  -0.66737
 Alpha  occ. eigenvalues --   -0.66060  -0.65436  -0.63872  -0.63375  -0.61960
 Alpha  occ. eigenvalues --   -0.60944  -0.60263  -0.58587  -0.54833  -0.53913
 Alpha  occ. eigenvalues --   -0.53356  -0.52221  -0.51600  -0.49834  -0.48092
 Alpha  occ. eigenvalues --   -0.47553  -0.45944  -0.45772  -0.45117  -0.42916
 Alpha  occ. eigenvalues --   -0.41701  -0.40891  -0.40737  -0.40157  -0.40011
 Alpha  occ. eigenvalues --   -0.39236  -0.38129  -0.38001  -0.37800  -0.37504
 Alpha  occ. eigenvalues --   -0.36917  -0.36537  -0.36456  -0.35015  -0.34481
 Alpha  occ. eigenvalues --   -0.34114  -0.33690  -0.33407  -0.32926  -0.32531
 Alpha  occ. eigenvalues --   -0.32317  -0.32240  -0.31608  -0.30429  -0.30198
 Alpha  occ. eigenvalues --   -0.30099  -0.30031  -0.29817  -0.29425  -0.29134
 Alpha  occ. eigenvalues --   -0.29010  -0.28766  -0.27802  -0.27150  -0.27030
 Alpha  occ. eigenvalues --   -0.25966  -0.25628  -0.24594  -0.24325  -0.24209
 Alpha  occ. eigenvalues --   -0.22714  -0.19847  -0.19544  -0.18363  -0.17764
 Alpha  occ. eigenvalues --   -0.17592  -0.17083  -0.16684  -0.16278  -0.16041
 Alpha  occ. eigenvalues --   -0.15468  -0.14926  -0.13835  -0.10285  -0.05087
 Alpha virt. eigenvalues --    0.03651   0.04632   0.05772   0.06666   0.06818
 Alpha virt. eigenvalues --    0.07276   0.07486   0.08364   0.08632   0.08990
 Alpha virt. eigenvalues --    0.09112   0.09470   0.09833   0.10355   0.10542

  Beta  occ. eigenvalues --  -88.80119 -88.78106 -19.08582 -19.08235 -18.99072
  Beta  occ. eigenvalues --  -18.98969 -18.98877 -18.98745 -14.26310 -14.26128
  Beta  occ. eigenvalues --  -10.17716 -10.17503 -10.17495 -10.17492 -10.16353
  Beta  occ. eigenvalues --  -10.15882 -10.15758 -10.15048 -10.13362 -10.12623
  Beta  occ. eigenvalues --  -10.11872 -10.11849 -10.11022 -10.10358 -10.10177
  Beta  occ. eigenvalues --  -10.10156 -10.10075 -10.09982 -10.09054 -10.08545
  Beta  occ. eigenvalues --  -10.08317 -10.08298 -10.08292 -10.08124 -10.07801
  Beta  occ. eigenvalues --  -10.07738  -7.88674  -7.86664  -5.84982  -5.84600
  Beta  occ. eigenvalues --   -5.84243  -5.82987  -5.82595  -5.82205  -1.00162
  Beta  occ. eigenvalues --   -0.99617  -0.95089  -0.95023  -0.92918  -0.92831
  Beta  occ. eigenvalues --   -0.83361  -0.83158  -0.81269  -0.79580  -0.78517
  Beta  occ. eigenvalues --   -0.73690  -0.71258  -0.69722  -0.68279  -0.66664
  Beta  occ. eigenvalues --   -0.65922  -0.65000  -0.63823  -0.63320  -0.61947
  Beta  occ. eigenvalues --   -0.60892  -0.60034  -0.58276  -0.54686  -0.53712
  Beta  occ. eigenvalues --   -0.53257  -0.52059  -0.51569  -0.49781  -0.48081
  Beta  occ. eigenvalues --   -0.47490  -0.45938  -0.45645  -0.44988  -0.42751
  Beta  occ. eigenvalues --   -0.41589  -0.40877  -0.40717  -0.40155  -0.39992
  Beta  occ. eigenvalues --   -0.39073  -0.37958  -0.37883  -0.37609  -0.37484
  Beta  occ. eigenvalues --   -0.36825  -0.36416  -0.36400  -0.34944  -0.34342
  Beta  occ. eigenvalues --   -0.34006  -0.33602  -0.33336  -0.32905  -0.32367
  Beta  occ. eigenvalues --   -0.32087  -0.31945  -0.31492  -0.30094  -0.30039
  Beta  occ. eigenvalues --   -0.30005  -0.29735  -0.29634  -0.29036  -0.28890
  Beta  occ. eigenvalues --   -0.28608  -0.28124  -0.27780  -0.26931  -0.26729
  Beta  occ. eigenvalues --   -0.25955  -0.25606  -0.24544  -0.24267  -0.24113
  Beta  occ. eigenvalues --   -0.21789  -0.19809  -0.18497  -0.18170  -0.17434
  Beta  occ. eigenvalues --   -0.17038  -0.16704  -0.16632  -0.15849  -0.15638
  Beta  occ. eigenvalues --   -0.15278  -0.14853  -0.12228  -0.10267
  Beta virt. eigenvalues --   -0.00441   0.03661   0.05770   0.05833   0.06745
  Beta virt. eigenvalues --    0.07212   0.07352   0.08340   0.08378   0.08651
  Beta virt. eigenvalues --    0.08994   0.09121   0.09473   0.09841   0.10358

 Mulliken charges and spin densities:
               1          2
     1  C    0.359220   0.016472
     2  C    0.025230   0.136680
     3  C    0.152347  -0.042603
     4  C    0.214630   0.114770
     5  C    0.203585   0.018035
     6  C   -0.762388   0.043470
     7  C    0.193501  -0.037439
     8  C   -0.085676   0.143541
     9  C    0.528533   0.079173
    10  C   -0.320590   0.016652
    11  C    0.202334   0.019782
    12  C    0.234351   0.118362
    13  C   -0.570091   0.058401
    14  C   -0.631857   0.067688
    15  H    0.129870  -0.004792
    16  H    0.131349  -0.004359
    17  H    0.135005  -0.003215
    18  N   -0.154821  -0.020935
    19  N   -0.146806  -0.020942
    20  O   -0.352864   0.077678
    21  O   -0.350119   0.073026
    22  O   -0.347822   0.072830
    23  O   -0.197325   0.085069
    24  C   -0.208311   0.001310
    25  H    0.152861  -0.001054
    26  H    0.157908  -0.000905
    27  H    0.170253  -0.000376
    28  C   -0.191905   0.001421
    29  H    0.153498  -0.000954
    30  H    0.152122  -0.000960
    31  H    0.169128  -0.000369
    32  C    0.381202  -0.035236
    33  C   -0.712536   0.024770
    34  S   -0.178244   0.011590
    35  C   -0.315659  -0.006130
    36  H    0.101975  -0.000015
    37  C    0.286877  -0.008731
    38  O   -0.127481  -0.000064
    39  C    0.936922   0.003907
    40  C   -0.249091   0.001023
    41  C    0.041401   0.002726
    42  S   -0.282994   0.000105
    43  H    0.148131  -0.000013
    44  H    0.153553   0.000044
    45  H    0.139494  -0.000004
    46  C   -0.426962   0.000598
    47  O   -0.135319  -0.000185
    48  C   -0.331402   0.000006
    49  H    0.114412  -0.000002
    50  C   -0.253508   0.000136
    51  H    0.140562   0.000009
    52  H    0.124502   0.000005
    53  H    0.159188   0.000004
    54  H    0.139827  -0.000002
 Sum of Mulliken charges =  -1.00000   1.00000

 Dipole moment (field-independent basis, Debye):
    X=            -11.4438    Y=             -0.4909    Z=             -0.2805  Tot=             11.4577
 Quadrupole moment (field-independent basis, Debye-Ang):
   XX=           -317.4629   YY=           -277.6151   ZZ=           -207.9392
   XY=             -3.6085   XZ=            -12.6676   YZ=              3.2573

 Normal termination of Gaussian 16 at Tue Oct  5 19:51:25 2021.
