 Gaussian 16, Revision C.01,
 Gaussian 16:  ES64L-G16RevC.01  3-Jul-2019

 -------------------------------------
 # opt=modredundant b3lyp/6-311+g(d,p)
 -------------------------------------

 -----------
 NDI_125.pdb
 -----------
 Symbolic Z-matrix:
 Charge = -1 Multiplicity = 2

 SCF Done:  E(UB3LYP) =  -2359.41789502     A.U. after   23 cycles
 SCF Done:  E(UB3LYP) =  -2359.42417603     A.U. after   21 cycles
 SCF Done:  E(UB3LYP) =  -2359.42700358     A.U. after   19 cycles
 SCF Done:  E(UB3LYP) =  -2359.42740407     A.U. after   17 cycles
 SCF Done:  E(UB3LYP) =  -2359.42768778     A.U. after   17 cycles
 SCF Done:  E(UB3LYP) =  -2359.42776405     A.U. after   16 cycles
 SCF Done:  E(UB3LYP) =  -2359.42778397     A.U. after   13 cycles
 SCF Done:  E(UB3LYP) =  -2359.42779971     A.U. after   14 cycles
 SCF Done:  E(UB3LYP) =  -2359.42781190     A.U. after   14 cycles
 SCF Done:  E(UB3LYP) =  -2359.42782720     A.U. after   14 cycles
 SCF Done:  E(UB3LYP) =  -2359.42793718     A.U. after   14 cycles
 SCF Done:  E(UB3LYP) =  -2359.42793855     A.U. after   14 cycles
 SCF Done:  E(UB3LYP) =  -2359.42794016     A.U. after   14 cycles
 SCF Done:  E(UB3LYP) =  -2359.42794038     A.U. after   12 cycles
 SCF Done:  E(UB3LYP) =  -2359.42794042     A.U. after   11 cycles
 SCF Done:  E(UB3LYP) =  -2359.42794043     A.U. after    9 cycles
 SCF Done:  E(UB3LYP) =  -2359.42794046     A.U. after    9 cycles
 SCF Done:  E(UB3LYP) =  -2359.42794051     A.U. after   10 cycles
 SCF Done:  E(UB3LYP) =  -2359.42794055     A.U. after   10 cycles
 SCF Done:  E(UB3LYP) =  -2359.42794059     A.U. after   10 cycles
 Optimization completed.
    -- Stationary point found.

                         Standard orientation:
 ---------------------------------------------------------------------
 Center     Atomic      Atomic             Coordinates (Angstroms)
 Number     Number       Type             X           Y           Z
 ---------------------------------------------------------------------
      1          6           0        3.459314   -2.713099    0.428746
      2          6           0        2.748606   -1.473704    0.135381
      3          6           0        3.439370   -0.239063    0.130305
      4          6           0        4.823375   -0.176725    0.415624
      5          6           0        5.568990   -1.394501    0.724215
      6          6           0        1.368280   -1.503097   -0.105375
      7          6           0        2.716594    0.960629   -0.182109
      8          6           0        1.324609    0.899920   -0.475364
      9          6           0        0.640735   -0.351264   -0.388907
     10          6           0        0.661223    2.108721   -0.963325
     11          6           0        2.746901    3.433889   -0.538634
     12          6           0        3.426678    2.187969   -0.201381
     13          6           0        4.803214    2.220305    0.095885
     14          6           0        5.491067    1.062752    0.399121
     15          1           0        6.549991    1.078120    0.623990
     16          1           0        5.301815    3.181155    0.073875
     17          1           0        0.859160   -2.455010   -0.025614
     18          7           0        1.395788    3.311794   -0.897580
     19          7           0        4.832383   -2.596511    0.708527
     20          8           0        2.932019   -3.827430    0.443335
     21          8           0        6.773762   -1.405583    0.984700
     22          8           0        3.300321    4.536235   -0.536005
     23          8           0       -0.475719    2.144422   -1.432693
     24          6           0        0.684217    4.516408   -1.327177
     25          1           0        0.469442    4.470872   -2.397611
     26          1           0       -0.266778    4.587410   -0.798855
     27          1           0        1.319186    5.370123   -1.108680
     28          6           0        5.535313   -3.844956    1.005793
     29          1           0        5.083562   -4.329955    1.873131
     30          1           0        5.453593   -4.529904    0.159696
     31          1           0        6.575191   -3.600283    1.201708
     32          6           0       -0.822337   -0.514804   -0.516155
     33          6           0       -1.484074   -1.337544   -1.392438
     34         16           0       -1.927483    0.197528    0.625580
     35          6           0       -2.886114   -1.368009   -1.173617
     36          1           0       -0.971240   -1.874900   -2.176712
     37          6           0       -3.319143   -0.589291   -0.113155
     38          8           0       -3.798630   -2.077953   -1.906228
     39          6           0       -4.670565   -0.394349    0.349933
     40          6           0       -3.317598   -2.818083   -3.017910
     41          6           0       -5.111803    0.373010    1.417922
     42         16           0       -6.062049   -1.141505   -0.430264
     43          1           0       -4.192006   -3.287916   -3.467655
     44          1           0       -2.836942   -2.163471   -3.753031
     45          1           0       -2.609976   -3.593543   -2.704627
     46          6           0       -6.523636    0.375543    1.600578
     47          8           0       -4.200873    1.019300    2.207009
     48          6           0       -7.166849   -0.396670    0.674519
     49          1           0       -7.034910    0.920686    2.381658
     50          6           0       -4.666867    2.088799    3.013186
     51          1           0       -8.226666   -0.575207    0.578626
     52          1           0       -5.319171    1.730657    3.818863
     53          1           0       -3.779867    2.545701    3.450639
     54          1           0       -5.203098    2.833458    2.414020
 ---------------------------------------------------------------------

 The electronic state is 2-A.
 Alpha  occ. eigenvalues --  -88.80136 -88.78018 -19.08490 -19.08311 -18.99344
 Alpha  occ. eigenvalues --  -18.99255 -18.99078 -18.98944 -14.26321 -14.26037
 Alpha  occ. eigenvalues --  -10.17843 -10.17612 -10.17545 -10.17519 -10.16252
 Alpha  occ. eigenvalues --  -10.15857 -10.15824 -10.15109 -10.13398 -10.12655
 Alpha  occ. eigenvalues --  -10.11929 -10.11905 -10.11018 -10.10416 -10.10222
 Alpha  occ. eigenvalues --  -10.10160 -10.10116 -10.09918 -10.09150 -10.08660
 Alpha  occ. eigenvalues --  -10.08527 -10.08508 -10.08470 -10.08253 -10.07907
 Alpha  occ. eigenvalues --  -10.07844  -7.88692  -7.86578  -5.85000  -5.84618
 Alpha  occ. eigenvalues --   -5.84261  -5.82906  -5.82514  -5.82115  -1.00071
 Alpha  occ. eigenvalues --   -0.99695  -0.95409  -0.95272  -0.93338  -0.93182
 Alpha  occ. eigenvalues --   -0.83544  -0.83274  -0.81288  -0.79710  -0.78622
 Alpha  occ. eigenvalues --   -0.74048  -0.71588  -0.69830  -0.68277  -0.66745
 Alpha  occ. eigenvalues --   -0.66151  -0.65439  -0.63873  -0.63389  -0.61959
 Alpha  occ. eigenvalues --   -0.60965  -0.60278  -0.58608  -0.54850  -0.53950
 Alpha  occ. eigenvalues --   -0.53375  -0.52305  -0.51560  -0.49835  -0.48033
 Alpha  occ. eigenvalues --   -0.47599  -0.45969  -0.45802  -0.45132  -0.42966
 Alpha  occ. eigenvalues --   -0.41868  -0.40802  -0.40552  -0.40213  -0.40010
 Alpha  occ. eigenvalues --   -0.39239  -0.38172  -0.38031  -0.37816  -0.37505
 Alpha  occ. eigenvalues --   -0.36929  -0.36576  -0.36453  -0.35165  -0.34376
 Alpha  occ. eigenvalues --   -0.34126  -0.33681  -0.33469  -0.32882  -0.32565
 Alpha  occ. eigenvalues --   -0.32401  -0.32202  -0.31616  -0.30449  -0.30320
 Alpha  occ. eigenvalues --   -0.30163  -0.29950  -0.29853  -0.29525  -0.29169
 Alpha  occ. eigenvalues --   -0.28953  -0.28744  -0.27822  -0.27310  -0.26963
 Alpha  occ. eigenvalues --   -0.25978  -0.25564  -0.24756  -0.24319  -0.24245
 Alpha  occ. eigenvalues --   -0.22653  -0.19985  -0.19458  -0.18438  -0.17822
 Alpha  occ. eigenvalues --   -0.17606  -0.17075  -0.16793  -0.16187  -0.16100
 Alpha  occ. eigenvalues --   -0.15618  -0.14807  -0.13836  -0.10313  -0.05081
 Alpha virt. eigenvalues --    0.03384   0.04672   0.05819   0.06580   0.06774
 Alpha virt. eigenvalues --    0.07280   0.07457   0.08552   0.08733   0.09029
 Alpha virt. eigenvalues --    0.09118   0.09409   0.09961   0.10412   0.10563

  Beta  occ. eigenvalues --  -88.80136 -88.78011 -19.08486 -19.08314 -18.99154
  Beta  occ. eigenvalues --  -18.99051 -18.98889 -18.98726 -14.26372 -14.26089
  Beta  occ. eigenvalues --  -10.17793 -10.17565 -10.17499 -10.17476 -10.16252
  Beta  occ. eigenvalues --  -10.15849 -10.15824 -10.15117 -10.13403 -10.12647
  Beta  occ. eigenvalues --  -10.11923 -10.11912 -10.11021 -10.10415 -10.10174
  Beta  occ. eigenvalues --  -10.10159 -10.10117 -10.09973 -10.08958 -10.08638
  Beta  occ. eigenvalues --  -10.08371 -10.08330 -10.08302 -10.08196 -10.07821
  Beta  occ. eigenvalues --  -10.07761  -7.88691  -7.86571  -5.85000  -5.84618
  Beta  occ. eigenvalues --   -5.84259  -5.82897  -5.82506  -5.82103  -1.00063
  Beta  occ. eigenvalues --   -0.99700  -0.95165  -0.95022  -0.93001  -0.92838
  Beta  occ. eigenvalues --   -0.83424  -0.83157  -0.81275  -0.79605  -0.78527
  Beta  occ. eigenvalues --   -0.73729  -0.71276  -0.69748  -0.68250  -0.66676
  Beta  occ. eigenvalues --   -0.66010  -0.65011  -0.63817  -0.63333  -0.61940
  Beta  occ. eigenvalues --   -0.60913  -0.60052  -0.58301  -0.54704  -0.53760
  Beta  occ. eigenvalues --   -0.53264  -0.52173  -0.51504  -0.49777  -0.48018
  Beta  occ. eigenvalues --   -0.47540  -0.45960  -0.45672  -0.45006  -0.42808
  Beta  occ. eigenvalues --   -0.41768  -0.40785  -0.40514  -0.40216  -0.39985
  Beta  occ. eigenvalues --   -0.39083  -0.37989  -0.37928  -0.37628  -0.37481
  Beta  occ. eigenvalues --   -0.36842  -0.36451  -0.36400  -0.35083  -0.34236
  Beta  occ. eigenvalues --   -0.34038  -0.33579  -0.33404  -0.32842  -0.32400
  Beta  occ. eigenvalues --   -0.32159  -0.31940  -0.31490  -0.30211  -0.30105
  Beta  occ. eigenvalues --   -0.30035  -0.29744  -0.29630  -0.29024  -0.28929
  Beta  occ. eigenvalues --   -0.28646  -0.28128  -0.27782  -0.27062  -0.26705
  Beta  occ. eigenvalues --   -0.25932  -0.25542  -0.24662  -0.24253  -0.24146
  Beta  occ. eigenvalues --   -0.21848  -0.19814  -0.18478  -0.18244  -0.17483
  Beta  occ. eigenvalues --   -0.17104  -0.16731  -0.16664  -0.15945  -0.15590
  Beta  occ. eigenvalues --   -0.15395  -0.14710  -0.12303  -0.10173
  Beta virt. eigenvalues --   -0.00546   0.03522   0.05786   0.05822   0.06740
  Beta virt. eigenvalues --    0.07030   0.07314   0.08266   0.08580   0.08828
  Beta virt. eigenvalues --    0.09053   0.09147   0.09414   0.09972   0.10415

 Mulliken charges and spin densities:
               1          2
     1  C    0.351130   0.017708
     2  C   -0.128736   0.131230
     3  C    0.104360  -0.040418
     4  C    0.278233   0.109103
     5  C    0.227165   0.018919
     6  C   -0.498010   0.044450
     7  C    0.154854  -0.037747
     8  C    0.015163   0.146546
     9  C    0.256359   0.067232
    10  C   -0.294370   0.016164
    11  C    0.261708   0.019117
    12  C    0.206059   0.116192
    13  C   -0.479070   0.058974
    14  C   -0.663163   0.066762
    15  H    0.130240  -0.004801
    16  H    0.131588  -0.004195
    17  H    0.141279  -0.002740
    18  N   -0.092379  -0.020320
    19  N   -0.141740  -0.020756
    20  O   -0.356913   0.076650
    21  O   -0.349334   0.071011
    22  O   -0.351853   0.071066
    23  O   -0.256982   0.082129
    24  C   -0.172976   0.001380
    25  H    0.154597  -0.001115
    26  H    0.159433  -0.000741
    27  H    0.169443  -0.000383
    28  C   -0.190866   0.001302
    29  H    0.153692  -0.000948
    30  H    0.152200  -0.000937
    31  H    0.169273  -0.000357
    32  C    0.291878  -0.020938
    33  C   -0.581141   0.023201
    34  S   -0.470468   0.013699
    35  C   -0.200427  -0.009236
    36  H    0.114284  -0.000670
    37  C    0.382067   0.001914
    38  O   -0.119803  -0.000349
    39  C    0.917410  -0.000355
    40  C   -0.248995   0.000302
    41  C   -0.082480   0.007671
    42  S   -0.258859   0.000560
    43  H    0.148981  -0.000006
    44  H    0.147701  -0.000063
    45  H    0.144208  -0.000027
    46  C   -0.378876  -0.001743
    47  O   -0.131471   0.000043
    48  C   -0.326328   0.005613
    49  H    0.112980   0.000109
    50  C   -0.265159  -0.000022
    51  H    0.140948  -0.000341
    52  H    0.122970   0.000064
    53  H    0.158543   0.000019
    54  H    0.141653   0.000081
 Sum of Mulliken charges =  -1.00000   1.00000

 Dipole moment (field-independent basis, Debye):
    X=            -11.3526    Y=             -0.8328    Z=             -0.1061  Tot=             11.3836
 Quadrupole moment (field-independent basis, Debye-Ang):
   XX=           -315.3108   YY=           -266.7487   ZZ=           -220.1187
   XY=             -7.9485   XZ=            -12.0309   YZ=             18.6403

 Normal termination of Gaussian 16 at Tue Oct  5 23:19:33 2021.
