 Gaussian 16, Revision C.01,
 Gaussian 16:  ES64L-G16RevC.01  3-Jul-2019

 -------------------------------------
 # opt=modredundant b3lyp/6-311+g(d,p)
 -------------------------------------

 ------------
 NDI_-160.pdb
 ------------
 Symbolic Z-matrix:
 Charge = -1 Multiplicity = 2

 SCF Done:  E(UB3LYP) =  -2359.39051877     A.U. after   24 cycles
 SCF Done:  E(UB3LYP) =  -2359.41097633     A.U. after   23 cycles
 SCF Done:  E(UB3LYP) =  -2359.42061283     A.U. after   22 cycles
 SCF Done:  E(UB3LYP) =  -2359.42295733     A.U. after   19 cycles
 SCF Done:  E(UB3LYP) =  -2359.42363860     A.U. after   17 cycles
 SCF Done:  E(UB3LYP) =  -2359.42372328     A.U. after   20 cycles
 SCF Done:  E(UB3LYP) =  -2359.42389643     A.U. after   17 cycles
 SCF Done:  E(UB3LYP) =  -2359.42401443     A.U. after   16 cycles
 SCF Done:  E(UB3LYP) =  -2359.42430956     A.U. after   21 cycles
 SCF Done:  E(UB3LYP) =  -2359.42456136     A.U. after   17 cycles
 SCF Done:  E(UB3LYP) =  -2359.42553895     A.U. after   12 cycles
 SCF Done:  E(UB3LYP) =  -2359.42553927     A.U. after   13 cycles
 SCF Done:  E(UB3LYP) =  -2359.42553939     A.U. after   12 cycles
 SCF Done:  E(UB3LYP) =  -2359.42553945     A.U. after    9 cycles
 SCF Done:  E(UB3LYP) =  -2359.42553951     A.U. after    9 cycles
 SCF Done:  E(UB3LYP) =  -2359.42553958     A.U. after    9 cycles
 SCF Done:  E(UB3LYP) =  -2359.42553967     A.U. after    9 cycles
 SCF Done:  E(UB3LYP) =  -2359.42553975     A.U. after    9 cycles
 SCF Done:  E(UB3LYP) =  -2359.42553978     A.U. after    9 cycles
 SCF Done:  E(UB3LYP) =  -2359.42553979     A.U. after    9 cycles
 Optimization completed.
    -- Stationary point found.

                         Standard orientation:
 ---------------------------------------------------------------------
 Center     Atomic      Atomic             Coordinates (Angstroms)
 Number     Number       Type             X           Y           Z
 ---------------------------------------------------------------------
      1          6           0       -3.505532   -2.682158    0.247679
      2          6           0       -2.775671   -1.442788    0.000120
      3          6           0       -3.430298   -0.193230    0.109995
      4          6           0       -4.794956   -0.115253    0.465047
      5          6           0       -5.561080   -1.333435    0.724217
      6          6           0       -1.409338   -1.491710   -0.281237
      7          6           0       -2.680654    1.000189   -0.154759
      8          6           0       -1.304168    0.921823   -0.518354
      9          6           0       -0.639478   -0.351354   -0.527348
     10          6           0       -0.668271    2.136616   -1.024170
     11          6           0       -2.663999    3.492650   -0.353380
     12          6           0       -3.357490    2.243581   -0.058085
     13          6           0       -4.715532    2.293544    0.310716
     14          6           0       -5.425882    1.138719    0.568752
     15          1           0       -6.471817    1.168059    0.846339
     16          1           0       -5.182908    3.267938    0.377819
     17          1           0       -0.938647   -2.464033   -0.238242
     18          7           0       -1.350907    3.356020   -0.821874
     19          7           0       -4.861614   -2.550754    0.592647
     20          8           0       -3.007385   -3.807227    0.170377
     21          8           0       -6.752061   -1.331362    1.038978
     22          8           0       -3.179962    4.606788   -0.235337
     23          8           0        0.406154    2.168434   -1.624511
     24          6           0       -0.643729    4.562872   -1.252157
     25          1           0        0.366040    4.558913   -0.842106
     26          1           0       -0.562551    4.591345   -2.341697
     27          1           0       -1.209280    5.420246   -0.898530
     28          6           0       -5.586780   -3.797980    0.837418
     29          1           0       -5.546157   -4.432423   -0.049810
     30          1           0       -5.123318   -4.344467    1.661063
     31          1           0       -6.613952   -3.541247    1.079392
     32          6           0        0.814790   -0.573563   -0.597665
     33          6           0        1.425168   -1.751202   -0.992344
     34         16           0        1.982866    0.480147    0.157343
     35          6           0        2.807186   -1.794989   -0.710420
     36          1           0        0.885090   -2.545614   -1.485339
     37          6           0        3.296091   -0.668281   -0.063811
     38          8           0        3.663223   -2.815909   -1.026628
     39          6           0        4.654530   -0.393010    0.327132
     40          6           0        3.114598   -3.962473   -1.658427
     41          6           0        5.151736    0.722240    0.988488
     42         16           0        5.983849   -1.503967    0.003127
     43          1           0        3.946499   -4.649978   -1.809647
     44          1           0        2.357002   -4.440789   -1.028127
     45          1           0        2.671619   -3.709162   -2.627960
     46          6           0        6.555654    0.694743    1.219578
     47          8           0        4.293411    1.711029    1.378510
     48          6           0        7.137674   -0.445863    0.740678
     49          1           0        7.105532    1.479810    1.719350
     50          6           0        4.848130    2.956777    1.765285
     51          1           0        8.177987   -0.729076    0.783307
     52          1           0        5.489213    3.368457    0.977305
     53          1           0        4.003164    3.624141    1.930172
     54          1           0        5.423468    2.869322    2.694967
 ---------------------------------------------------------------------

 The electronic state is 2-A.
 Alpha  occ. eigenvalues --  -88.80111 -88.77891 -19.08495 -19.08233 -18.99559
 Alpha  occ. eigenvalues --  -18.99481 -18.99058 -18.98863 -14.26498 -14.26000
 Alpha  occ. eigenvalues --  -10.18054 -10.17827 -10.17507 -10.17470 -10.16206
 Alpha  occ. eigenvalues --  -10.15904 -10.15741 -10.14982 -10.13345 -10.12653
 Alpha  occ. eigenvalues --  -10.11942 -10.11936 -10.11001 -10.10574 -10.10489
 Alpha  occ. eigenvalues --  -10.10181 -10.10145 -10.09876 -10.09048 -10.08659
 Alpha  occ. eigenvalues --  -10.08641 -10.08568 -10.08478 -10.08388 -10.07926
 Alpha  occ. eigenvalues --  -10.07865  -7.88666  -7.86435  -5.84975  -5.84592
 Alpha  occ. eigenvalues --   -5.84237  -5.82762  -5.82361  -5.81979  -1.00112
 Alpha  occ. eigenvalues --   -0.99615  -0.95624  -0.95269  -0.93563  -0.93163
 Alpha  occ. eigenvalues --   -0.83728  -0.83272  -0.81265  -0.79688  -0.78610
 Alpha  occ. eigenvalues --   -0.74077  -0.71618  -0.69846  -0.68270  -0.66721
 Alpha  occ. eigenvalues --   -0.66214  -0.65465  -0.63860  -0.63430  -0.61945
 Alpha  occ. eigenvalues --   -0.61022  -0.60306  -0.58587  -0.54941  -0.54035
 Alpha  occ. eigenvalues --   -0.53401  -0.52459  -0.51429  -0.49790  -0.48036
 Alpha  occ. eigenvalues --   -0.47579  -0.46078  -0.45794  -0.45174  -0.43076
 Alpha  occ. eigenvalues --   -0.42123  -0.40749  -0.40346  -0.40145  -0.39854
 Alpha  occ. eigenvalues --   -0.39192  -0.38314  -0.38013  -0.37886  -0.37467
 Alpha  occ. eigenvalues --   -0.36974  -0.36627  -0.36502  -0.35341  -0.34335
 Alpha  occ. eigenvalues --   -0.33973  -0.33713  -0.33395  -0.32956  -0.32585
 Alpha  occ. eigenvalues --   -0.32502  -0.32269  -0.31552  -0.30560  -0.30442
 Alpha  occ. eigenvalues --   -0.30287  -0.29960  -0.29808  -0.29696  -0.29310
 Alpha  occ. eigenvalues --   -0.28887  -0.28551  -0.27695  -0.27588  -0.26923
 Alpha  occ. eigenvalues --   -0.25993  -0.25497  -0.25152  -0.24482  -0.23900
 Alpha  occ. eigenvalues --   -0.22673  -0.20189  -0.19382  -0.18608  -0.17910
 Alpha  occ. eigenvalues --   -0.17710  -0.17192  -0.16841  -0.16383  -0.15899
 Alpha  occ. eigenvalues --   -0.15862  -0.14499  -0.13824  -0.10179  -0.05055
 Alpha virt. eigenvalues --    0.02835   0.04782   0.05839   0.06199   0.06805
 Alpha virt. eigenvalues --    0.07401   0.07446   0.08603   0.08885   0.09105
 Alpha virt. eigenvalues --    0.09358   0.09701   0.10171   0.10419   0.10606

  Beta  occ. eigenvalues --  -88.80109 -88.77885 -19.08483 -19.08242 -18.99384
  Beta  occ. eigenvalues --  -18.99288 -18.98875 -18.98655 -14.26546 -14.26050
  Beta  occ. eigenvalues --  -10.18007 -10.17781 -10.17465 -10.17422 -10.16206
  Beta  occ. eigenvalues --  -10.15872 -10.15741 -10.15014 -10.13368 -10.12621
  Beta  occ. eigenvalues --  -10.11988 -10.11868 -10.11014 -10.10573 -10.10370
  Beta  occ. eigenvalues --  -10.10200 -10.10180 -10.09930 -10.08862 -10.08595
  Beta  occ. eigenvalues --  -10.08500 -10.08406 -10.08342 -10.08317 -10.07848
  Beta  occ. eigenvalues --  -10.07783  -7.88664  -7.86430  -5.84973  -5.84591
  Beta  occ. eigenvalues --   -5.84229  -5.82757  -5.82357  -5.81963  -1.00084
  Beta  occ. eigenvalues --   -0.99633  -0.95395  -0.95028  -0.93248  -0.92832
  Beta  occ. eigenvalues --   -0.83619  -0.83157  -0.81234  -0.79577  -0.78516
  Beta  occ. eigenvalues --   -0.73770  -0.71321  -0.69745  -0.68231  -0.66645
  Beta  occ. eigenvalues --   -0.66088  -0.65068  -0.63780  -0.63370  -0.61911
  Beta  occ. eigenvalues --   -0.60971  -0.60073  -0.58299  -0.54794  -0.53862
  Beta  occ. eigenvalues --   -0.53276  -0.52355  -0.51351  -0.49724  -0.48010
  Beta  occ. eigenvalues --   -0.47526  -0.46029  -0.45698  -0.45053  -0.42932
  Beta  occ. eigenvalues --   -0.42031  -0.40715  -0.40302  -0.40156  -0.39804
  Beta  occ. eigenvalues --   -0.39053  -0.38093  -0.37953  -0.37699  -0.37437
  Beta  occ. eigenvalues --   -0.36894  -0.36510  -0.36441  -0.35252  -0.34182
  Beta  occ. eigenvalues --   -0.33924  -0.33595  -0.33324  -0.32864  -0.32432
  Beta  occ. eigenvalues --   -0.32276  -0.32026  -0.31413  -0.30348  -0.30218
  Beta  occ. eigenvalues --   -0.30112  -0.29826  -0.29581  -0.29084  -0.29036
  Beta  occ. eigenvalues --   -0.28568  -0.28206  -0.27614  -0.27333  -0.26688
  Beta  occ. eigenvalues --   -0.25889  -0.25458  -0.25015  -0.24388  -0.23819
  Beta  occ. eigenvalues --   -0.22053  -0.19813  -0.18475  -0.18414  -0.17544
  Beta  occ. eigenvalues --   -0.17328  -0.16898  -0.16599  -0.16175  -0.15646
  Beta  occ. eigenvalues --   -0.15413  -0.14298  -0.12491  -0.09788
  Beta virt. eigenvalues --   -0.00756   0.03222   0.05777   0.05840   0.06583
  Beta virt. eigenvalues --    0.06809   0.07411   0.08191   0.08607   0.08890
  Beta virt. eigenvalues --    0.09126   0.09393   0.09900   0.10179   0.10429

 Mulliken charges and spin densities:
               1          2
     1  C    0.296534   0.018582
     2  C   -0.064768   0.123850
     3  C    0.124711  -0.038432
     4  C    0.242971   0.097226
     5  C    0.156760   0.019197
     6  C    0.032774   0.026518
     7  C    0.128963  -0.035351
     8  C    0.232044   0.140619
     9  C    0.233966   0.082413
    10  C   -0.585672   0.013527
    11  C    0.284002   0.018993
    12  C    0.084410   0.107198
    13  C   -0.483356   0.050707
    14  C   -0.575770   0.068683
    15  H    0.129776  -0.004756
    16  H    0.131917  -0.003786
    17  H    0.137129  -0.001468
    18  N   -0.029781  -0.019916
    19  N   -0.144036  -0.019751
    20  O   -0.360702   0.072361
    21  O   -0.344181   0.065552
    22  O   -0.352229   0.068634
    23  O   -0.283469   0.079193
    24  C   -0.176020   0.001589
    25  H    0.158446  -0.000681
    26  H    0.155366  -0.001116
    27  H    0.168350  -0.000388
    28  C   -0.185474   0.001269
    29  H    0.152307  -0.000869
    30  H    0.153536  -0.000906
    31  H    0.168841  -0.000331
    32  C    0.067855  -0.019259
    33  C   -0.687211   0.047127
    34  S   -0.701873   0.012284
    35  C   -0.206120  -0.022618
    36  H    0.124481  -0.002159
    37  C    0.723699   0.034814
    38  O   -0.138746  -0.001145
    39  C    0.862175  -0.014493
    40  C   -0.223888   0.000200
    41  C   -0.075957   0.021974
    42  S   -0.268646   0.001577
    43  H    0.149282  -0.000000
    44  H    0.147865  -0.000179
    45  H    0.141591  -0.000246
    46  C   -0.492821  -0.010065
    47  O   -0.118668   0.001942
    48  C   -0.312787   0.022543
    49  H    0.114215   0.000445
    50  C   -0.258495  -0.000311
    51  H    0.141202  -0.001402
    52  H    0.140337   0.000353
    53  H    0.161252   0.000032
    54  H    0.123914   0.000228
 Sum of Mulliken charges =  -1.00000   1.00000

 Dipole moment (field-independent basis, Debye):
    X=             11.1248    Y=             -1.3355    Z=              0.2705  Tot=             11.2079
 Quadrupole moment (field-independent basis, Debye-Ang):
   XX=           -311.7787   YY=           -258.1889   ZZ=           -230.3559
   XY=             10.2490   XZ=             12.6852   YZ=             13.1317

 Normal termination of Gaussian 16 at Tue Oct  5 09:54:56 2021.
