 Gaussian 16, Revision C.01,
 Gaussian 16:  ES64L-G16RevC.01  3-Jul-2019

 -------------------------------------
 # opt=modredundant b3lyp/6-311+g(d,p)
 -------------------------------------

 -----------
 NDI_115.pdb
 -----------
 Symbolic Z-matrix:
 Charge = -1 Multiplicity = 2

 SCF Done:  E(UB3LYP) =  -2359.41962388     A.U. after   25 cycles
 SCF Done:  E(UB3LYP) =  -2359.42637859     A.U. after   21 cycles
 SCF Done:  E(UB3LYP) =  -2359.42720134     A.U. after   18 cycles
 SCF Done:  E(UB3LYP) =  -2359.42736036     A.U. after   17 cycles
 SCF Done:  E(UB3LYP) =  -2359.42773346     A.U. after   17 cycles
 SCF Done:  E(UB3LYP) =  -2359.42775932     A.U. after   15 cycles
 SCF Done:  E(UB3LYP) =  -2359.42777651     A.U. after   14 cycles
 SCF Done:  E(UB3LYP) =  -2359.42779085     A.U. after   14 cycles
 SCF Done:  E(UB3LYP) =  -2359.42786121     A.U. after   17 cycles
 SCF Done:  E(UB3LYP) =  -2359.42787534     A.U. after   14 cycles
 SCF Done:  E(UB3LYP) =  -2359.42791313     A.U. after   13 cycles
 SCF Done:  E(UB3LYP) =  -2359.42791420     A.U. after   13 cycles
 SCF Done:  E(UB3LYP) =  -2359.42791635     A.U. after   13 cycles
 SCF Done:  E(UB3LYP) =  -2359.42791845     A.U. after   12 cycles
 SCF Done:  E(UB3LYP) =  -2359.42791948     A.U. after   13 cycles
 SCF Done:  E(UB3LYP) =  -2359.42792110     A.U. after   14 cycles
 SCF Done:  E(UB3LYP) =  -2359.42792179     A.U. after   13 cycles
 SCF Done:  E(UB3LYP) =  -2359.42792201     A.U. after   11 cycles
 SCF Done:  E(UB3LYP) =  -2359.42792208     A.U. after   10 cycles
 SCF Done:  E(UB3LYP) =  -2359.42792211     A.U. after    9 cycles
 Optimization completed.
    -- Stationary point found.

                         Standard orientation:
 ---------------------------------------------------------------------
 Center     Atomic      Atomic             Coordinates (Angstroms)
 Number     Number       Type             X           Y           Z
 ---------------------------------------------------------------------
      1          6           0        3.430576   -2.741802    0.360987
      2          6           0        2.733840   -1.485758    0.107910
      3          6           0        3.442265   -0.261553    0.121791
      4          6           0        4.831629   -0.226132    0.387200
      5          6           0        5.563854   -1.461278    0.654710
      6          6           0        1.350910   -1.490535   -0.124055
      7          6           0        2.732992    0.956420   -0.148574
      8          6           0        1.336039    0.923108   -0.421285
      9          6           0        0.639356   -0.321976   -0.371377
     10          6           0        0.670652    2.160801   -0.827311
     11          6           0        2.792324    3.438502   -0.433158
     12          6           0        3.459901    2.174037   -0.145316
     13          6           0        4.841664    2.178721    0.129360
     14          6           0        5.516939    1.003843    0.390976
     15          1           0        6.579361    0.998160    0.599299
     16          1           0        5.353903    3.132603    0.124778
     17          1           0        0.829939   -2.438328   -0.077577
     18          7           0        1.428842    3.348212   -0.754172
     19          7           0        4.809209   -2.651680    0.622791
     20          8           0        2.887253   -3.848474    0.356974
     21          8           0        6.772417   -1.496074    0.895504
     22          8           0        3.363971    4.531470   -0.417614
     23          8           0       -0.489253    2.233353   -1.232286
     24          6           0        0.721171    4.577659   -1.114376
     25          1           0        0.443183    4.560431   -2.170833
     26          1           0       -0.195701    4.658030   -0.529686
     27          1           0        1.387256    5.411947   -0.914439
     28          6           0        5.497867   -3.916839    0.879905
     29          1           0        5.049787   -4.417027    1.740470
     30          1           0        5.396096   -4.579265    0.018154
     31          1           0        6.543474   -3.691620    1.068563
     32          6           0       -0.826365   -0.460292   -0.529189
     33          6           0       -1.494129   -1.097926   -1.541449
     34         16           0       -1.925630    0.060484    0.715675
     35          6           0       -2.899438   -1.136762   -1.338841
     36          1           0       -0.984885   -1.495010   -2.407326
     37          6           0       -3.326777   -0.550145   -0.159631
     38          8           0       -3.818365   -1.690250   -2.188908
     39          6           0       -4.678263   -0.415450    0.325298
     40          6           0       -3.347177   -2.194608   -3.429390
     41          6           0       -5.114098    0.159857    1.509696
     42         16           0       -6.076443   -0.985855   -0.581379
     43          1           0       -4.227401   -2.553947   -3.962057
     44          1           0       -2.859704   -1.409642   -4.017600
     45          1           0       -2.648417   -3.025583   -3.282594
     46          6           0       -6.527183    0.157118    1.683232
     47          8           0       -4.197714    0.641825    2.403254
     48          6           0       -7.176605   -0.427079    0.632191
     49          1           0       -7.035153    0.565701    2.545568
     50          6           0       -4.656502    1.538606    3.400971
     51          1           0       -8.238661   -0.565451    0.501141
     52          1           0       -5.312997    1.036597    4.122006
     53          1           0       -3.766549    1.894924    3.918567
     54          1           0       -5.185832    2.389689    2.957473
 ---------------------------------------------------------------------

 The electronic state is 2-A.
 Alpha  occ. eigenvalues --  -88.80129 -88.78046 -19.08514 -19.08291 -18.99302
 Alpha  occ. eigenvalues --  -18.99213 -18.99073 -18.98961 -14.26287 -14.26053
 Alpha  occ. eigenvalues --  -10.17801 -10.17572 -10.17543 -10.17530 -10.16283
 Alpha  occ. eigenvalues --  -10.15858 -10.15810 -10.15093 -10.13387 -10.12643
 Alpha  occ. eigenvalues --  -10.11894 -10.11891 -10.11017 -10.10386 -10.10193
 Alpha  occ. eigenvalues --  -10.10156 -10.10113 -10.09920 -10.09191 -10.08625
 Alpha  occ. eigenvalues --  -10.08500 -10.08490 -10.08464 -10.08216 -10.07898
 Alpha  occ. eigenvalues --  -10.07832  -7.88685  -7.86606  -5.84993  -5.84611
 Alpha  occ. eigenvalues --   -5.84254  -5.82934  -5.82541  -5.82143  -1.00091
 Alpha  occ. eigenvalues --   -0.99675  -0.95369  -0.95276  -0.93296  -0.93184
 Alpha  occ. eigenvalues --   -0.83511  -0.83276  -0.81282  -0.79698  -0.78616
 Alpha  occ. eigenvalues --   -0.74031  -0.71579  -0.69813  -0.68282  -0.66740
 Alpha  occ. eigenvalues --   -0.66116  -0.65433  -0.63870  -0.63380  -0.61957
 Alpha  occ. eigenvalues --   -0.60954  -0.60269  -0.58601  -0.54836  -0.53931
 Alpha  occ. eigenvalues --   -0.53364  -0.52264  -0.51581  -0.49835  -0.48047
 Alpha  occ. eigenvalues --   -0.47584  -0.45958  -0.45788  -0.45123  -0.42938
 Alpha  occ. eigenvalues --   -0.41792  -0.40835  -0.40624  -0.40199  -0.40016
 Alpha  occ. eigenvalues --   -0.39237  -0.38148  -0.38021  -0.37806  -0.37505
 Alpha  occ. eigenvalues --   -0.36921  -0.36559  -0.36450  -0.35104  -0.34418
 Alpha  occ. eigenvalues --   -0.34126  -0.33683  -0.33447  -0.32891  -0.32547
 Alpha  occ. eigenvalues --   -0.32369  -0.32206  -0.31616  -0.30435  -0.30270
 Alpha  occ. eigenvalues --   -0.30133  -0.29972  -0.29844  -0.29477  -0.29153
 Alpha  occ. eigenvalues --   -0.28968  -0.28759  -0.27818  -0.27239  -0.26984
 Alpha  occ. eigenvalues --   -0.25968  -0.25588  -0.24586  -0.24404  -0.24224
 Alpha  occ. eigenvalues --   -0.22665  -0.19921  -0.19492  -0.18400  -0.17796
 Alpha  occ. eigenvalues --   -0.17592  -0.17071  -0.16744  -0.16216  -0.16081
 Alpha  occ. eigenvalues --   -0.15543  -0.14877  -0.13833  -0.10311  -0.05083
 Alpha virt. eigenvalues --    0.03516   0.04651   0.05805   0.06637   0.06794
 Alpha virt. eigenvalues --    0.07275   0.07470   0.08471   0.08663   0.09028
 Alpha virt. eigenvalues --    0.09090   0.09434   0.09908   0.10417   0.10513

  Beta  occ. eigenvalues --  -88.80129 -88.78040 -19.08512 -19.08292 -18.99109
  Beta  occ. eigenvalues --  -18.99007 -18.98882 -18.98739 -14.26339 -14.26105
  Beta  occ. eigenvalues --  -10.17751 -10.17525 -10.17496 -10.17487 -10.16283
  Beta  occ. eigenvalues --  -10.15855 -10.15810 -10.15096 -10.13389 -10.12639
  Beta  occ. eigenvalues --  -10.11904 -10.11886 -10.11019 -10.10385 -10.10171
  Beta  occ. eigenvalues --  -10.10155 -10.10089 -10.09976 -10.09000 -10.08611
  Beta  occ. eigenvalues --  -10.08341 -10.08311 -10.08295 -10.08157 -10.07810
  Beta  occ. eigenvalues --  -10.07749  -7.88685  -7.86600  -5.84993  -5.84611
  Beta  occ. eigenvalues --   -5.84253  -5.82924  -5.82533  -5.82135  -1.00087
  Beta  occ. eigenvalues --   -0.99677  -0.95123  -0.95022  -0.92955  -0.92835
  Beta  occ. eigenvalues --   -0.83390  -0.83157  -0.81272  -0.79593  -0.78522
  Beta  occ. eigenvalues --   -0.73709  -0.71265  -0.69735  -0.68256  -0.66670
  Beta  occ. eigenvalues --   -0.65975  -0.65000  -0.63819  -0.63325  -0.61941
  Beta  occ. eigenvalues --   -0.60901  -0.60042  -0.58292  -0.54689  -0.53736
  Beta  occ. eigenvalues --   -0.53258  -0.52121  -0.51534  -0.49779  -0.48034
  Beta  occ. eigenvalues --   -0.47523  -0.45951  -0.45658  -0.44995  -0.42777
  Beta  occ. eigenvalues --   -0.41688  -0.40819  -0.40594  -0.40200  -0.39994
  Beta  occ. eigenvalues --   -0.39078  -0.37978  -0.37903  -0.37617  -0.37483
  Beta  occ. eigenvalues --   -0.36832  -0.36434  -0.36398  -0.35026  -0.34282
  Beta  occ. eigenvalues --   -0.34026  -0.33589  -0.33377  -0.32860  -0.32383
  Beta  occ. eigenvalues --   -0.32127  -0.31934  -0.31494  -0.30161  -0.30076
  Beta  occ. eigenvalues --   -0.30018  -0.29730  -0.29633  -0.29026  -0.28909
  Beta  occ. eigenvalues --   -0.28627  -0.28121  -0.27787  -0.26998  -0.26712
  Beta  occ. eigenvalues --   -0.25937  -0.25565  -0.24525  -0.24326  -0.24125
  Beta  occ. eigenvalues --   -0.21806  -0.19813  -0.18484  -0.18207  -0.17461
  Beta  occ. eigenvalues --   -0.17064  -0.16706  -0.16658  -0.15895  -0.15606
  Beta  occ. eigenvalues --   -0.15338  -0.14795  -0.12261  -0.10234
  Beta virt. eigenvalues --   -0.00490   0.03590   0.05794   0.05818   0.06739
  Beta virt. eigenvalues --    0.07127   0.07329   0.08293   0.08527   0.08714
  Beta virt. eigenvalues --    0.09040   0.09102   0.09438   0.09919   0.10419

 Mulliken charges and spin densities:
               1          2
     1  C    0.358086   0.017323
     2  C   -0.065797   0.133700
     3  C    0.108103  -0.041755
     4  C    0.255737   0.112022
     5  C    0.204937   0.018473
     6  C   -0.623896   0.045285
     7  C    0.171262  -0.038063
     8  C   -0.049782   0.146271
     9  C    0.342548   0.070821
    10  C   -0.267359   0.016052
    11  C    0.260964   0.019571
    12  C    0.214841   0.117809
    13  C   -0.517131   0.058994
    14  C   -0.664520   0.066918
    15  H    0.130120  -0.004800
    16  H    0.131544  -0.004275
    17  H    0.138531  -0.002995
    18  N   -0.117854  -0.020505
    19  N   -0.142978  -0.020905
    20  O   -0.355306   0.077258
    21  O   -0.350181   0.072093
    22  O   -0.351012   0.071889
    23  O   -0.236465   0.083512
    24  C   -0.185003   0.001328
    25  H    0.153995  -0.001108
    26  H    0.159318  -0.000801
    27  H    0.169723  -0.000380
    28  C   -0.191775   0.001333
    29  H    0.153575  -0.000955
    30  H    0.152113  -0.000948
    31  H    0.169302  -0.000364
    32  C    0.396013  -0.028366
    33  C   -0.632986   0.024660
    34  S   -0.381204   0.013460
    35  C   -0.203026  -0.008403
    36  H    0.108376  -0.000260
    37  C    0.360651  -0.005085
    38  O   -0.121184  -0.000171
    39  C    0.893419   0.003265
    40  C   -0.251161   0.000600
    41  C   -0.058292   0.004901
    42  S   -0.268202   0.000319
    43  H    0.148723  -0.000011
    44  H    0.149975  -0.000020
    45  H    0.142232  -0.000007
    46  C   -0.390223  -0.000090
    47  O   -0.133092  -0.000199
    48  C   -0.330197   0.002567
    49  H    0.113294   0.000048
    50  C   -0.262595   0.000066
    51  H    0.140799  -0.000150
    52  H    0.123283   0.000036
    53  H    0.158442   0.000009
    54  H    0.141312   0.000032
 Sum of Mulliken charges =  -1.00000   1.00000

 Dipole moment (field-independent basis, Debye):
    X=            -11.3979    Y=             -0.6836    Z=             -0.1938  Tot=             11.4200
 Quadrupole moment (field-independent basis, Debye-Ang):
   XX=           -316.2979   YY=           -271.2817   ZZ=           -215.0483
   XY=             -6.8263   XZ=            -12.1706   YZ=             16.0638

 Normal termination of Gaussian 16 at Tue Oct  5 20:06:16 2021.
