 Gaussian 16, Revision C.01,
 Gaussian 16:  ES64L-G16RevC.01  3-Jul-2019

 -------------------------------------
 # opt=modredundant b3lyp/6-311+g(d,p)
 -------------------------------------

 ------------
 NDI_-100.pdb
 ------------
 Symbolic Z-matrix:
 Charge = -1 Multiplicity = 2

 SCF Done:  E(UB3LYP) =  -2359.41915702     A.U. after   23 cycles
 SCF Done:  E(UB3LYP) =  -2359.42638735     A.U. after   19 cycles
 SCF Done:  E(UB3LYP) =  -2359.42742371     A.U. after   19 cycles
 SCF Done:  E(UB3LYP) =  -2359.42738727     A.U. after   16 cycles
 SCF Done:  E(UB3LYP) =  -2359.42771054     A.U. after   17 cycles
 SCF Done:  E(UB3LYP) =  -2359.42772333     A.U. after   16 cycles
 SCF Done:  E(UB3LYP) =  -2359.42773864     A.U. after   14 cycles
 SCF Done:  E(UB3LYP) =  -2359.42774106     A.U. after   12 cycles
 SCF Done:  E(UB3LYP) =  -2359.42774377     A.U. after   12 cycles
 SCF Done:  E(UB3LYP) =  -2359.42774722     A.U. after   13 cycles
 SCF Done:  E(UB3LYP) =  -2359.42776759     A.U. after   12 cycles
 SCF Done:  E(UB3LYP) =  -2359.42776826     A.U. after   11 cycles
 SCF Done:  E(UB3LYP) =  -2359.42776964     A.U. after   11 cycles
 SCF Done:  E(UB3LYP) =  -2359.42777179     A.U. after   12 cycles
 SCF Done:  E(UB3LYP) =  -2359.42777323     A.U. after   12 cycles
 SCF Done:  E(UB3LYP) =  -2359.42777450     A.U. after   12 cycles
 SCF Done:  E(UB3LYP) =  -2359.42777620     A.U. after   11 cycles
 SCF Done:  E(UB3LYP) =  -2359.42777733     A.U. after   12 cycles
 SCF Done:  E(UB3LYP) =  -2359.42777787     A.U. after   11 cycles
 SCF Done:  E(UB3LYP) =  -2359.42777803     A.U. after   10 cycles
 Optimization completed.
    -- Stationary point found.

                         Standard orientation:
 ---------------------------------------------------------------------
 Center     Atomic      Atomic             Coordinates (Angstroms)
 Number     Number       Type             X           Y           Z
 ---------------------------------------------------------------------
      1          6           0        3.341543   -2.807476   -0.027472
      2          6           0        2.686679   -1.507154    0.059013
      3          6           0        3.439838   -0.318283   -0.079359
      4          6           0        4.835695   -0.362375   -0.309391
      5          6           0        5.527548   -1.644527   -0.409102
      6          6           0        1.301857   -1.436730    0.271867
      7          6           0        2.770024    0.947142    0.021767
      8          6           0        1.366573    0.994510    0.256760
      9          6           0        0.631689   -0.223717    0.368234
     10          6           0        0.721376    2.297707    0.415290
     11          6           0        2.912704    3.442090   -0.011420
     12          6           0        3.540651    2.130036   -0.113220
     13          6           0        4.928349    2.054308   -0.345115
     14          6           0        5.565838    0.834217   -0.441773
     15          1           0        6.631946    0.767234   -0.618225
     16          1           0        5.475060    2.983691   -0.443171
     17          1           0        0.750230   -2.364838    0.351771
     18          7           0        1.532358    3.438955    0.245047
     19          7           0        4.728170   -2.796229   -0.261006
     20          8           0        2.757380   -3.886588    0.090834
     21          8           0        6.739658   -1.748926   -0.609276
     22          8           0        3.527890    4.504590   -0.131747
     23          8           0       -0.467484    2.463584    0.688108
     24          6           0        0.851646    4.727227    0.383698
     25          1           0        0.016256    4.781734   -0.315828
     26          1           0        0.448639    4.833739    1.393053
     27          1           0        1.579357    5.507428    0.180529
     28          6           0        5.374630   -4.105801   -0.350635
     29          1           0        5.238202   -4.655014    0.583054
     30          1           0        4.920042   -4.691180   -1.151874
     31          1           0        6.430123   -3.940646   -0.546260
     32          6           0       -0.836543   -0.285314    0.576934
     33          6           0       -1.507417   -0.501862    1.749636
     34         16           0       -1.934002   -0.212861   -0.770546
     35          6           0       -2.915557   -0.574011    1.575148
     36          1           0       -0.999614   -0.575105    2.700104
     37          6           0       -3.341362   -0.435971    0.265034
     38          8           0       -3.837773   -0.771955    2.567114
     39          6           0       -4.694062   -0.454155   -0.235373
     40          6           0       -3.374824   -0.747081    3.909068
     41          6           0       -5.128218   -0.334430   -1.547280
     42         16           0       -6.095551   -0.625404    0.817074
     43          1           0       -4.259644   -0.860870    4.535076
     44          1           0       -2.683077   -1.573217    4.107780
     45          1           0       -2.882148    0.203237    4.140650
     46          6           0       -6.542561   -0.367869   -1.706996
     47          8           0       -4.208769   -0.219416   -2.553074
     48          6           0       -7.194552   -0.518644   -0.515133
     49          1           0       -7.050375   -0.286343   -2.657715
     50          6           0       -4.673726    0.168479   -3.834213
     51          1           0       -8.258050   -0.576839   -0.342397
     52          1           0       -5.219895    1.117891   -3.789491
     53          1           0       -3.785284    0.290986   -4.452639
     54          1           0       -5.316726   -0.600925   -4.278629
 ---------------------------------------------------------------------

 The electronic state is 2-A.
 Alpha  occ. eigenvalues --  -88.80119 -88.78111 -19.08582 -19.08236 -18.99267
 Alpha  occ. eigenvalues --  -18.99177 -18.99071 -18.98972 -14.26258 -14.26075
 Alpha  occ. eigenvalues --  -10.17766 -10.17546 -10.17543 -10.17539 -10.16353
 Alpha  occ. eigenvalues --  -10.15882 -10.15758 -10.15049 -10.13363 -10.12623
 Alpha  occ. eigenvalues --  -10.11865 -10.11850 -10.11022 -10.10359 -10.10181
 Alpha  occ. eigenvalues --  -10.10157 -10.10119 -10.09926 -10.09245 -10.08554
 Alpha  occ. eigenvalues --  -10.08480 -10.08478 -10.08462 -10.08185 -10.07890
 Alpha  occ. eigenvalues --  -10.07821  -7.88674  -7.86669  -5.84983  -5.84600
 Alpha  occ. eigenvalues --   -5.84243  -5.82995  -5.82602  -5.82209  -1.00162
 Alpha  occ. eigenvalues --   -0.99619  -0.95338  -0.95280  -0.93261  -0.93185
 Alpha  occ. eigenvalues --   -0.83485  -0.83278  -0.81276  -0.79685  -0.78611
 Alpha  occ. eigenvalues --   -0.74014  -0.71574  -0.69795  -0.68305  -0.66737
 Alpha  occ. eigenvalues --   -0.66060  -0.65436  -0.63872  -0.63376  -0.61960
 Alpha  occ. eigenvalues --   -0.60944  -0.60263  -0.58587  -0.54832  -0.53913
 Alpha  occ. eigenvalues --   -0.53356  -0.52221  -0.51600  -0.49834  -0.48092
 Alpha  occ. eigenvalues --   -0.47553  -0.45945  -0.45772  -0.45117  -0.42916
 Alpha  occ. eigenvalues --   -0.41701  -0.40890  -0.40737  -0.40157  -0.40011
 Alpha  occ. eigenvalues --   -0.39236  -0.38129  -0.38001  -0.37800  -0.37504
 Alpha  occ. eigenvalues --   -0.36917  -0.36537  -0.36456  -0.35015  -0.34480
 Alpha  occ. eigenvalues --   -0.34114  -0.33689  -0.33407  -0.32926  -0.32531
 Alpha  occ. eigenvalues --   -0.32316  -0.32241  -0.31608  -0.30429  -0.30195
 Alpha  occ. eigenvalues --   -0.30100  -0.30031  -0.29817  -0.29426  -0.29132
 Alpha  occ. eigenvalues --   -0.29011  -0.28766  -0.27802  -0.27150  -0.27030
 Alpha  occ. eigenvalues --   -0.25966  -0.25626  -0.24593  -0.24327  -0.24209
 Alpha  occ. eigenvalues --   -0.22714  -0.19847  -0.19544  -0.18363  -0.17764
 Alpha  occ. eigenvalues --   -0.17590  -0.17083  -0.16684  -0.16278  -0.16041
 Alpha  occ. eigenvalues --   -0.15468  -0.14926  -0.13835  -0.10285  -0.05087
 Alpha virt. eigenvalues --    0.03651   0.04631   0.05772   0.06665   0.06818
 Alpha virt. eigenvalues --    0.07276   0.07486   0.08364   0.08632   0.08990
 Alpha virt. eigenvalues --    0.09112   0.09470   0.09833   0.10355   0.10542

  Beta  occ. eigenvalues --  -88.80119 -88.78106 -19.08582 -19.08235 -18.99071
  Beta  occ. eigenvalues --  -18.98969 -18.98877 -18.98746 -14.26311 -14.26128
  Beta  occ. eigenvalues --  -10.17716 -10.17503 -10.17495 -10.17492 -10.16353
  Beta  occ. eigenvalues --  -10.15882 -10.15758 -10.15048 -10.13362 -10.12623
  Beta  occ. eigenvalues --  -10.11872 -10.11849 -10.11022 -10.10358 -10.10177
  Beta  occ. eigenvalues --  -10.10156 -10.10076 -10.09982 -10.09054 -10.08546
  Beta  occ. eigenvalues --  -10.08317 -10.08298 -10.08292 -10.08124 -10.07802
  Beta  occ. eigenvalues --  -10.07738  -7.88674  -7.86663  -5.84982  -5.84600
  Beta  occ. eigenvalues --   -5.84243  -5.82987  -5.82594  -5.82204  -1.00161
  Beta  occ. eigenvalues --   -0.99618  -0.95089  -0.95023  -0.92917  -0.92831
  Beta  occ. eigenvalues --   -0.83361  -0.83158  -0.81268  -0.79580  -0.78517
  Beta  occ. eigenvalues --   -0.73689  -0.71258  -0.69722  -0.68279  -0.66664
  Beta  occ. eigenvalues --   -0.65922  -0.65000  -0.63823  -0.63320  -0.61947
  Beta  occ. eigenvalues --   -0.60892  -0.60034  -0.58276  -0.54685  -0.53712
  Beta  occ. eigenvalues --   -0.53256  -0.52059  -0.51568  -0.49781  -0.48081
  Beta  occ. eigenvalues --   -0.47490  -0.45938  -0.45646  -0.44989  -0.42751
  Beta  occ. eigenvalues --   -0.41588  -0.40877  -0.40717  -0.40155  -0.39992
  Beta  occ. eigenvalues --   -0.39074  -0.37958  -0.37883  -0.37609  -0.37484
  Beta  occ. eigenvalues --   -0.36825  -0.36416  -0.36400  -0.34944  -0.34342
  Beta  occ. eigenvalues --   -0.34006  -0.33602  -0.33336  -0.32905  -0.32367
  Beta  occ. eigenvalues --   -0.32087  -0.31945  -0.31492  -0.30093  -0.30040
  Beta  occ. eigenvalues --   -0.30005  -0.29735  -0.29634  -0.29036  -0.28889
  Beta  occ. eigenvalues --   -0.28608  -0.28124  -0.27780  -0.26931  -0.26729
  Beta  occ. eigenvalues --   -0.25955  -0.25605  -0.24543  -0.24269  -0.24112
  Beta  occ. eigenvalues --   -0.21789  -0.19809  -0.18497  -0.18170  -0.17434
  Beta  occ. eigenvalues --   -0.17038  -0.16705  -0.16632  -0.15849  -0.15638
  Beta  occ. eigenvalues --   -0.15278  -0.14852  -0.12228  -0.10267
  Beta virt. eigenvalues --   -0.00441   0.03662   0.05770   0.05832   0.06745
  Beta virt. eigenvalues --    0.07212   0.07352   0.08340   0.08378   0.08651
  Beta virt. eigenvalues --    0.08994   0.09121   0.09473   0.09841   0.10359

 Mulliken charges and spin densities:
               1          2
     1  C    0.359141   0.016473
     2  C    0.025545   0.136686
     3  C    0.152283  -0.042605
     4  C    0.214750   0.114768
     5  C    0.203252   0.018030
     6  C   -0.762411   0.043468
     7  C    0.193612  -0.037437
     8  C   -0.085841   0.143546
     9  C    0.528780   0.079170
    10  C   -0.320408   0.016657
    11  C    0.202337   0.019781
    12  C    0.234682   0.118361
    13  C   -0.570157   0.058404
    14  C   -0.631796   0.067678
    15  H    0.129874  -0.004792
    16  H    0.131349  -0.004359
    17  H    0.134998  -0.003215
    18  N   -0.154803  -0.020937
    19  N   -0.146825  -0.020942
    20  O   -0.352857   0.077683
    21  O   -0.350133   0.073023
    22  O   -0.347808   0.072831
    23  O   -0.197337   0.085079
    24  C   -0.208280   0.001309
    25  H    0.157855  -0.000907
    26  H    0.152891  -0.001052
    27  H    0.170260  -0.000375
    28  C   -0.191914   0.001420
    29  H    0.152026  -0.000966
    30  H    0.153603  -0.000948
    31  H    0.169127  -0.000369
    32  C    0.381553  -0.035259
    33  C   -0.714163   0.024798
    34  S   -0.178059   0.011590
    35  C   -0.315229  -0.006130
    36  H    0.101985  -0.000015
    37  C    0.286815  -0.008728
    38  O   -0.127479  -0.000064
    39  C    0.937225   0.003912
    40  C   -0.248992   0.001022
    41  C    0.041118   0.002712
    42  S   -0.282904   0.000105
    43  H    0.148143  -0.000013
    44  H    0.139522  -0.000004
    45  H    0.153514   0.000044
    46  C   -0.427020   0.000597
    47  O   -0.135330  -0.000184
    48  C   -0.331471   0.000006
    49  H    0.114411  -0.000002
    50  C   -0.253505   0.000136
    51  H    0.140564   0.000009
    52  H    0.139823  -0.000002
    53  H    0.159187   0.000004
    54  H    0.124499   0.000005
 Sum of Mulliken charges =  -1.00000   1.00000

 Dipole moment (field-independent basis, Debye):
    X=            -11.4441    Y=             -0.4919    Z=              0.2788  Tot=             11.4580
 Quadrupole moment (field-independent basis, Debye-Ang):
   XX=           -317.4713   YY=           -277.6127   ZZ=           -207.9367
   XY=             -3.6028   XZ=             12.6536   YZ=             -3.2547

 Normal termination of Gaussian 16 at Tue Oct  5 09:29:50 2021.
