 Gaussian 16, Revision C.01,
 Gaussian 16:  ES64L-G16RevC.01  3-Jul-2019

 -------------------------------------
 # opt=modredundant b3lyp/6-311+g(d,p)
 -------------------------------------

 ----------
 NDI_85.pdb
 ----------
 Symbolic Z-matrix:
 Charge = -1 Multiplicity = 2

 SCF Done:  E(UB3LYP) =  -2359.41928297     A.U. after   22 cycles
 SCF Done:  E(UB3LYP) =  -2359.42598946     A.U. after   17 cycles
 SCF Done:  E(UB3LYP) =  -2359.42728424     A.U. after   17 cycles
 SCF Done:  E(UB3LYP) =  -2359.42742023     A.U. after   16 cycles
 SCF Done:  E(UB3LYP) =  -2359.42759119     A.U. after   16 cycles
 SCF Done:  E(UB3LYP) =  -2359.42763400     A.U. after   15 cycles
 SCF Done:  E(UB3LYP) =  -2359.42766695     A.U. after   13 cycles
 SCF Done:  E(UB3LYP) =  -2359.42768520     A.U. after   12 cycles
 SCF Done:  E(UB3LYP) =  -2359.42769663     A.U. after   12 cycles
 SCF Done:  E(UB3LYP) =  -2359.42771712     A.U. after   12 cycles
 SCF Done:  E(UB3LYP) =  -2359.42773412     A.U. after   14 cycles
 SCF Done:  E(UB3LYP) =  -2359.42774236     A.U. after   12 cycles
 SCF Done:  E(UB3LYP) =  -2359.42780560     A.U. after   14 cycles
 SCF Done:  E(UB3LYP) =  -2359.42774798     A.U. after   11 cycles
 SCF Done:  E(UB3LYP) =  -2359.42774845     A.U. after   11 cycles
 SCF Done:  E(UB3LYP) =  -2359.42774853     A.U. after   10 cycles
 SCF Done:  E(UB3LYP) =  -2359.42774854     A.U. after    9 cycles
 SCF Done:  E(UB3LYP) =  -2359.42774854     A.U. after    8 cycles
 Optimization completed.
    -- Stationary point found.

                         Standard orientation:
 ---------------------------------------------------------------------
 Center     Atomic      Atomic             Coordinates (Angstroms)
 Number     Number       Type             X           Y           Z
 ---------------------------------------------------------------------
      1          6           0       -3.194158   -2.834481    0.411008
      2          6           0       -2.606778   -1.505862    0.277914
      3          6           0       -3.425594   -0.388543   -0.005961
      4          6           0       -4.823917   -0.533347   -0.170531
      5          6           0       -5.450122   -1.847090   -0.047917
      6          6           0       -1.224095   -1.335994    0.441134
      7          6           0       -2.819619    0.906896   -0.128185
      8          6           0       -1.413234    1.055834    0.039620
      9          6           0       -0.616963   -0.090464    0.339253
     10          6           0       -0.821877    2.385690   -0.110671
     11          6           0       -3.093166    3.353519   -0.559309
     12          6           0       -3.655189    2.015600   -0.418041
     13          6           0       -5.044246    1.840449   -0.576188
     14          6           0       -5.620168    0.592300   -0.455015
     15          1           0       -6.686500    0.448551   -0.575338
     16          1           0       -5.641162    2.716546   -0.796154
     17          1           0       -0.626611   -2.210798    0.664524
     18          7           0       -1.701948    3.449881   -0.398421
     19          7           0       -4.586572   -2.924218    0.236607
     20          8           0       -2.549783   -3.854566    0.663039
     21          8           0       -6.661199   -2.037202   -0.179161
     22          8           0       -3.769203    4.355539   -0.806001
     23          8           0        0.378742    2.637179   -0.006689
     24          6           0       -1.078513    4.766111   -0.543512
     25          1           0       -0.564183    5.040613    0.379424
     26          1           0       -0.336327    4.741118   -1.343285
     27          1           0       -1.865400    5.479448   -0.770410
     28          6           0       -5.165414   -4.261343    0.369983
     29          1           0       -4.711102   -4.937918   -0.356132
     30          1           0       -4.964663   -4.657887    1.367179
     31          1           0       -6.234814   -4.176971    0.200011
     32          6           0        0.849268   -0.036795    0.565068
     33          6           0        1.518452    0.243775    1.724885
     34         16           0        1.951455   -0.486638   -0.702499
     35          6           0        2.927209    0.130132    1.590640
     36          1           0        1.008947    0.548396    2.627095
     37          6           0        3.357993   -0.260124    0.333425
     38          8           0        3.847319    0.353725    2.579172
     39          6           0        4.712869   -0.458947   -0.118960
     40          6           0        3.386620    0.957509    3.779301
     41          6           0        5.152204   -0.863622   -1.371201
     42         16           0        6.110847   -0.185728    0.916281
     43          1           0        4.272497    1.124798    4.391722
     44          1           0        2.893920    1.914220    3.576802
     45          1           0        2.695608    0.298876    4.317135
     46          6           0        6.567366   -0.947723   -1.501940
     47          8           0        4.235395   -1.146298   -2.345490
     48          6           0        7.214929   -0.609389   -0.346386
     49          1           0        7.079745   -1.244776   -2.406020
     50          6           0        4.717478   -1.474316   -3.636110
     51          1           0        8.277989   -0.587443   -0.162918
     52          1           0        5.314857   -2.393932   -3.619860
     53          1           0        3.835281   -1.631337   -4.255557
     54          1           0        5.316558   -0.658972   -4.058820
 ---------------------------------------------------------------------

 The electronic state is 2-A.
 Alpha  occ. eigenvalues --  -88.80110 -88.78201 -19.08654 -19.08172 -18.99275
 Alpha  occ. eigenvalues --  -18.99178 -18.99080 -18.98969 -14.26263 -14.26094
 Alpha  occ. eigenvalues --  -10.17774 -10.17569 -10.17550 -10.17542 -10.16416
 Alpha  occ. eigenvalues --  -10.15915 -10.15684 -10.15012 -10.13345 -10.12606
 Alpha  occ. eigenvalues --  -10.11837 -10.11835 -10.11028 -10.10362 -10.10206
 Alpha  occ. eigenvalues --  -10.10180 -10.10134 -10.09930 -10.09273 -10.08487
 Alpha  occ. eigenvalues --  -10.08485 -10.08483 -10.08468 -10.08186 -10.07894
 Alpha  occ. eigenvalues --  -10.07825  -7.88665  -7.86756  -5.84973  -5.84590
 Alpha  occ. eigenvalues --   -5.84234  -5.83080  -5.82686  -5.82300  -1.00240
 Alpha  occ. eigenvalues --   -0.99553  -0.95348  -0.95292  -0.93271  -0.93193
 Alpha  occ. eigenvalues --   -0.83494  -0.83287  -0.81277  -0.79692  -0.78618
 Alpha  occ. eigenvalues --   -0.74014  -0.71580  -0.69793  -0.68333  -0.66750
 Alpha  occ. eigenvalues --   -0.66006  -0.65456  -0.63885  -0.63387  -0.61970
 Alpha  occ. eigenvalues --   -0.60954  -0.60270  -0.58566  -0.54855  -0.53910
 Alpha  occ. eigenvalues --   -0.53370  -0.52212  -0.51602  -0.49836  -0.48141
 Alpha  occ. eigenvalues --   -0.47525  -0.45926  -0.45774  -0.45126  -0.42927
 Alpha  occ. eigenvalues --   -0.41668  -0.40901  -0.40849  -0.40104  -0.39979
 Alpha  occ. eigenvalues --   -0.39243  -0.38134  -0.37983  -0.37810  -0.37501
 Alpha  occ. eigenvalues --   -0.36927  -0.36530  -0.36480  -0.34954  -0.34507
 Alpha  occ. eigenvalues --   -0.34110  -0.33706  -0.33373  -0.32961  -0.32539
 Alpha  occ. eigenvalues --   -0.32311  -0.32265  -0.31594  -0.30441  -0.30173
 Alpha  occ. eigenvalues --   -0.30118  -0.30052  -0.29802  -0.29401  -0.29138
 Alpha  occ. eigenvalues --   -0.29073  -0.28774  -0.27793  -0.27133  -0.27052
 Alpha  occ. eigenvalues --   -0.25982  -0.25637  -0.24786  -0.24226  -0.24151
 Alpha  occ. eigenvalues --   -0.22786  -0.19864  -0.19546  -0.18364  -0.17765
 Alpha  occ. eigenvalues --   -0.17610  -0.17098  -0.16706  -0.16277  -0.16039
 Alpha  occ. eigenvalues --   -0.15511  -0.14861  -0.13844  -0.10252  -0.05091
 Alpha virt. eigenvalues --    0.03653   0.04651   0.05743   0.06655   0.06801
 Alpha virt. eigenvalues --    0.07330   0.07483   0.08406   0.08635   0.08991
 Alpha virt. eigenvalues --    0.09138   0.09487   0.09790   0.10279   0.10630

  Beta  occ. eigenvalues --  -88.80110 -88.78197 -19.08653 -19.08172 -18.99080
  Beta  occ. eigenvalues --  -18.98971 -18.98886 -18.98743 -14.26316 -14.26147
  Beta  occ. eigenvalues --  -10.17724 -10.17526 -10.17502 -10.17496 -10.16416
  Beta  occ. eigenvalues --  -10.15913 -10.15684 -10.15013 -10.13345 -10.12605
  Beta  occ. eigenvalues --  -10.11845 -10.11832 -10.11028 -10.10361 -10.10192
  Beta  occ. eigenvalues --  -10.10179 -10.10100 -10.09987 -10.09083 -10.08474
  Beta  occ. eigenvalues --  -10.08324 -10.08303 -10.08299 -10.08126 -10.07806
  Beta  occ. eigenvalues --  -10.07742  -7.88664  -7.86751  -5.84973  -5.84590
  Beta  occ. eigenvalues --   -5.84234  -5.83073  -5.82680  -5.82297  -1.00239
  Beta  occ. eigenvalues --   -0.99552  -0.95100  -0.95034  -0.92928  -0.92839
  Beta  occ. eigenvalues --   -0.83370  -0.83167  -0.81268  -0.79587  -0.78523
  Beta  occ. eigenvalues --   -0.73690  -0.71265  -0.69721  -0.68305  -0.66672
  Beta  occ. eigenvalues --   -0.65875  -0.65024  -0.63831  -0.63331  -0.61957
  Beta  occ. eigenvalues --   -0.60902  -0.60038  -0.58259  -0.54709  -0.53706
  Beta  occ. eigenvalues --   -0.53277  -0.52033  -0.51582  -0.49786  -0.48130
  Beta  occ. eigenvalues --   -0.47461  -0.45920  -0.45648  -0.44997  -0.42763
  Beta  occ. eigenvalues --   -0.41549  -0.40892  -0.40833  -0.40101  -0.39961
  Beta  occ. eigenvalues --   -0.39078  -0.37939  -0.37890  -0.37618  -0.37483
  Beta  occ. eigenvalues --   -0.36833  -0.36436  -0.36398  -0.34888  -0.34366
  Beta  occ. eigenvalues --   -0.33999  -0.33616  -0.33305  -0.32944  -0.32374
  Beta  occ. eigenvalues --   -0.32095  -0.31948  -0.31485  -0.30078  -0.30020
  Beta  occ. eigenvalues --   -0.30011  -0.29751  -0.29644  -0.29058  -0.28899
  Beta  occ. eigenvalues --   -0.28617  -0.28144  -0.27772  -0.26929  -0.26737
  Beta  occ. eigenvalues --   -0.25978  -0.25615  -0.24721  -0.24134  -0.24126
  Beta  occ. eigenvalues --   -0.21845  -0.19808  -0.18508  -0.18173  -0.17441
  Beta  occ. eigenvalues --   -0.17052  -0.16717  -0.16631  -0.15853  -0.15670
  Beta  occ. eigenvalues --   -0.15325  -0.14770  -0.12242  -0.10228
  Beta virt. eigenvalues --   -0.00455   0.03678   0.05743   0.05838   0.06768
  Beta virt. eigenvalues --    0.07225   0.07356   0.08282   0.08458   0.08666
  Beta virt. eigenvalues --    0.08994   0.09147   0.09490   0.09796   0.10284

 Mulliken charges and spin densities:
               1          2
     1  C    0.368060   0.016444
     2  C    0.000650   0.133105
     3  C    0.193574  -0.041179
     4  C    0.206214   0.113459
     5  C    0.193578   0.019553
     6  C   -0.579567   0.048265
     7  C    0.197116  -0.037625
     8  C   -0.030414   0.141416
     9  C    0.524004   0.076902
    10  C   -0.416564   0.019092
    11  C    0.117084   0.019687
    12  C    0.233916   0.115437
    13  C   -0.514068   0.060905
    14  C   -0.634882   0.066813
    15  H    0.129804  -0.004746
    16  H    0.131002  -0.004392
    17  H    0.137947  -0.003186
    18  N   -0.168494  -0.021098
    19  N   -0.146785  -0.020889
    20  O   -0.353214   0.077623
    21  O   -0.349439   0.072857
    22  O   -0.347480   0.072850
    23  O   -0.178639   0.084718
    24  C   -0.213400   0.001366
    25  H    0.151859  -0.000979
    26  H    0.156035  -0.000985
    27  H    0.170029  -0.000373
    28  C   -0.192090   0.001433
    29  H    0.153034  -0.000937
    30  H    0.152579  -0.000968
    31  H    0.168187  -0.000368
    32  C    0.155958  -0.026037
    33  C   -0.530162   0.008595
    34  S   -0.153961   0.005349
    35  C   -0.140319  -0.000603
    36  H    0.100255  -0.000457
    37  C    0.281340   0.009150
    38  O   -0.143268  -0.000106
    39  C    0.812566  -0.000523
    40  C   -0.239743   0.000502
    41  C    0.023981  -0.000351
    42  S   -0.307986   0.000308
    43  H    0.147229  -0.000011
    44  H    0.156060   0.000072
    45  H    0.136799  -0.000029
    46  C   -0.529293  -0.001216
    47  O   -0.134623   0.000455
    48  C   -0.334207   0.000601
    49  H    0.115642   0.000015
    50  C   -0.240432   0.000096
    51  H    0.140319  -0.000035
    52  H    0.128060   0.000002
    53  H    0.161024   0.000012
    54  H    0.135125   0.000011
 Sum of Mulliken charges =  -1.00000   1.00000

 Dipole moment (field-independent basis, Debye):
    X=             11.4483    Y=             -0.4025    Z=              0.3452  Tot=             11.4605
 Quadrupole moment (field-independent basis, Debye-Ang):
   XX=           -318.0743   YY=           -274.6176   ZZ=           -210.2832
   XY=             -0.7238   XZ=            -11.8393   YZ=             14.1601

 Normal termination of Gaussian 16 at Tue Oct  5 15:50:31 2021.
