 Gaussian 16, Revision C.01,
 Gaussian 16:  ES64L-G16RevC.01  3-Jul-2019

 -------------------------------------
 # opt=modredundant b3lyp/6-311+g(d,p)
 -------------------------------------

 ----------
 NDI_65.pdb
 ----------
 Symbolic Z-matrix:
 Charge = -1 Multiplicity = 2

 SCF Done:  E(UB3LYP) =  -2359.42008611     A.U. after   23 cycles
 SCF Done:  E(UB3LYP) =  -2359.42638195     A.U. after   18 cycles
 SCF Done:  E(UB3LYP) =  -2359.42761609     A.U. after   20 cycles
 SCF Done:  E(UB3LYP) =  -2359.42793106     A.U. after   17 cycles
 SCF Done:  E(UB3LYP) =  -2359.42808239     A.U. after   17 cycles
 SCF Done:  E(UB3LYP) =  -2359.42819753     A.U. after   14 cycles
 SCF Done:  E(UB3LYP) =  -2359.42827357     A.U. after   17 cycles
 SCF Done:  E(UB3LYP) =  -2359.42832473     A.U. after   16 cycles
 SCF Done:  E(UB3LYP) =  -2359.42834876     A.U. after   15 cycles
 SCF Done:  E(UB3LYP) =  -2359.42836355     A.U. after   15 cycles
 SCF Done:  E(UB3LYP) =  -2359.42846848     A.U. after   12 cycles
 SCF Done:  E(UB3LYP) =  -2359.42846857     A.U. after   11 cycles
 SCF Done:  E(UB3LYP) =  -2359.42846865     A.U. after   11 cycles
 SCF Done:  E(UB3LYP) =  -2359.42846871     A.U. after   11 cycles
 SCF Done:  E(UB3LYP) =  -2359.42846877     A.U. after   10 cycles
 SCF Done:  E(UB3LYP) =  -2359.42846885     A.U. after   10 cycles
 SCF Done:  E(UB3LYP) =  -2359.42846893     A.U. after   11 cycles
 SCF Done:  E(UB3LYP) =  -2359.42846899     A.U. after   11 cycles
 SCF Done:  E(UB3LYP) =  -2359.42846903     A.U. after   10 cycles
 SCF Done:  E(UB3LYP) =  -2359.42846905     A.U. after   11 cycles
 Optimization completed.
    -- Stationary point found.

                         Standard orientation:
 ---------------------------------------------------------------------
 Center     Atomic      Atomic             Coordinates (Angstroms)
 Number     Number       Type             X           Y           Z
 ---------------------------------------------------------------------
      1          6           0       -2.928909   -2.881552    0.597158
      2          6           0       -2.461302   -1.521678    0.349745
      3          6           0       -3.384624   -0.489362    0.063343
      4          6           0       -4.773962   -0.751177    0.009314
      5          6           0       -5.282666   -2.099195    0.252178
      6          6           0       -1.092451   -1.234313    0.422094
      7          6           0       -2.892162    0.836852   -0.180771
      8          6           0       -1.492695    1.103706   -0.125999
      9          6           0       -0.590609    0.047740    0.217804
     10          6           0       -1.022423    2.444298   -0.478882
     11          6           0       -3.394346    3.216073   -0.759621
     12          6           0       -3.833673    1.854141   -0.481869
     13          6           0       -5.211734    1.564724   -0.524216
     14          6           0       -5.676706    0.288307   -0.283076
     15          1           0       -6.733648    0.056282   -0.316339
     16          1           0       -5.890037    2.376365   -0.755189
     17          1           0       -0.419665   -2.041483    0.682236
     18          7           0       -2.006672    3.420408   -0.746686
     19          7           0       -4.318186   -3.088127    0.530479
     20          8           0       -2.188686   -3.832300    0.855423
     21          8           0       -6.480616   -2.388040    0.221718
     22          8           0       -4.166509    4.146624   -1.004335
     23          8           0        0.159030    2.780147   -0.565841
     24          6           0       -1.502832    4.755238   -1.073208
     25          1           0       -0.889982    5.134010   -0.253307
     26          1           0       -0.875011    4.710983   -1.965035
     27          1           0       -2.361660    5.398780   -1.239946
     28          6           0       -4.776855   -4.455229    0.778959
     29          1           0       -4.321850   -5.137349    0.058497
     30          1           0       -4.475123   -4.774841    1.778286
     31          1           0       -5.858854   -4.463130    0.685126
     32          6           0        0.865246    0.230398    0.402526
     33          6           0        1.528494    0.958958    1.354639
     34         16           0        1.982667   -0.677686   -0.577414
     35          6           0        2.935268    0.809408    1.285746
     36          1           0        1.013371    1.596814    2.056854
     37          6           0        3.379255   -0.049590    0.291588
     38          8           0        3.846363    1.415859    2.107305
     39          6           0        4.737686   -0.401975   -0.035973
     40          6           0        3.378531    2.470995    2.936366
     41          6           0        5.188810   -1.269932   -1.020504
     42         16           0        6.126498    0.267810    0.815196
     43          1           0        4.261075    2.884795    3.423956
     44          1           0        2.884898    3.248551    2.344623
     45          1           0        2.685832    2.099915    3.699948
     46          6           0        6.604697   -1.396438   -1.092871
     47          8           0        4.281083   -1.906619   -1.820544
     48          6           0        7.241784   -0.624033   -0.161745
     49          1           0        7.125172   -2.027742   -1.799094
     50          6           0        4.767307   -2.856999   -2.751420
     51          1           0        8.303035   -0.528741    0.008115
     52          1           0        5.307342   -3.668645   -2.249503
     53          1           0        3.889458   -3.264082   -3.251641
     54          1           0        5.422908   -2.389992   -3.496295
 ---------------------------------------------------------------------

 The electronic state is 2-A.
 Alpha  occ. eigenvalues --  -88.80111 -88.78288 -19.08667 -19.08103 -18.99363
 Alpha  occ. eigenvalues --  -18.99249 -18.99108 -18.98938 -14.26327 -14.26120
 Alpha  occ. eigenvalues --  -10.17861 -10.17624 -10.17612 -10.17571 -10.16406
 Alpha  occ. eigenvalues --  -10.15925 -10.15552 -10.14996 -10.13359 -10.12610
 Alpha  occ. eigenvalues --  -10.11886 -10.11784 -10.11032 -10.10416 -10.10328
 Alpha  occ. eigenvalues --  -10.10241 -10.10196 -10.09946 -10.09294 -10.08556
 Alpha  occ. eigenvalues --  -10.08522 -10.08498 -10.08419 -10.08216 -10.07919
 Alpha  occ. eigenvalues --  -10.07855  -7.88665  -7.86844  -5.84974  -5.84591
 Alpha  occ. eigenvalues --   -5.84235  -5.83165  -5.82773  -5.82393  -1.00252
 Alpha  occ. eigenvalues --   -0.99483  -0.95432  -0.95320  -0.93358  -0.93210
 Alpha  occ. eigenvalues --   -0.83562  -0.83305  -0.81290  -0.79720  -0.78636
 Alpha  occ. eigenvalues --   -0.74046  -0.71611  -0.69805  -0.68339  -0.66799
 Alpha  occ. eigenvalues --   -0.65937  -0.65519  -0.63903  -0.63431  -0.61970
 Alpha  occ. eigenvalues --   -0.60997  -0.60310  -0.58531  -0.54931  -0.53939
 Alpha  occ. eigenvalues --   -0.53433  -0.52262  -0.51575  -0.49847  -0.48146
 Alpha  occ. eigenvalues --   -0.47491  -0.45897  -0.45806  -0.45164  -0.42996
 Alpha  occ. eigenvalues --   -0.41746  -0.40898  -0.40833  -0.40014  -0.39874
 Alpha  occ. eigenvalues --   -0.39272  -0.38179  -0.37968  -0.37849  -0.37501
 Alpha  occ. eigenvalues --   -0.36958  -0.36557  -0.36525  -0.34969  -0.34430
 Alpha  occ. eigenvalues --   -0.34140  -0.33742  -0.33346  -0.32954  -0.32589
 Alpha  occ. eigenvalues --   -0.32421  -0.32250  -0.31547  -0.30489  -0.30318
 Alpha  occ. eigenvalues --   -0.30179  -0.29982  -0.29830  -0.29439  -0.29204
 Alpha  occ. eigenvalues --   -0.29140  -0.28762  -0.27800  -0.27228  -0.27042
 Alpha  occ. eigenvalues --   -0.26032  -0.25616  -0.24912  -0.24279  -0.24094
 Alpha  occ. eigenvalues --   -0.22872  -0.20037  -0.19491  -0.18433  -0.17827
 Alpha  occ. eigenvalues --   -0.17667  -0.17135  -0.16844  -0.16224  -0.16076
 Alpha  occ. eigenvalues --   -0.15703  -0.14662  -0.13878  -0.10232  -0.05109
 Alpha virt. eigenvalues --    0.03410   0.04683   0.05751   0.06517   0.06802
 Alpha virt. eigenvalues --    0.07328   0.07451   0.08577   0.08820   0.09002
 Alpha virt. eigenvalues --    0.09159   0.09464   0.09856   0.10217   0.10677

  Beta  occ. eigenvalues --  -88.80111 -88.78284 -19.08663 -19.08105 -18.99173
  Beta  occ. eigenvalues --  -18.99044 -18.98918 -18.98721 -14.26378 -14.26173
  Beta  occ. eigenvalues --  -10.17813 -10.17577 -10.17567 -10.17524 -10.16406
  Beta  occ. eigenvalues --  -10.15915 -10.15551 -10.15007 -10.13366 -10.12601
  Beta  occ. eigenvalues --  -10.11862 -10.11806 -10.11036 -10.10415 -10.10252
  Beta  occ. eigenvalues --  -10.10240 -10.10218 -10.10002 -10.09109 -10.08397
  Beta  occ. eigenvalues --  -10.08392 -10.08341 -10.08335 -10.08163 -10.07834
  Beta  occ. eigenvalues --  -10.07772  -7.88664  -7.86839  -5.84973  -5.84590
  Beta  occ. eigenvalues --   -5.84232  -5.83160  -5.82768  -5.82385  -1.00243
  Beta  occ. eigenvalues --   -0.99488  -0.95188  -0.95069  -0.93022  -0.92866
  Beta  occ. eigenvalues --   -0.83442  -0.83188  -0.81274  -0.79615  -0.78541
  Beta  occ. eigenvalues --   -0.73727  -0.71302  -0.69726  -0.68305  -0.66716
  Beta  occ. eigenvalues --   -0.65816  -0.65103  -0.63834  -0.63374  -0.61949
  Beta  occ. eigenvalues --   -0.60945  -0.60071  -0.58238  -0.54787  -0.53736
  Beta  occ. eigenvalues --   -0.53344  -0.52078  -0.51553  -0.49800  -0.48131
  Beta  occ. eigenvalues --   -0.47427  -0.45888  -0.45679  -0.45039  -0.42835
  Beta  occ. eigenvalues --   -0.41634  -0.40884  -0.40810  -0.40013  -0.39856
  Beta  occ. eigenvalues --   -0.39108  -0.37943  -0.37920  -0.37659  -0.37480
  Beta  occ. eigenvalues --   -0.36864  -0.36495  -0.36414  -0.34897  -0.34301
  Beta  occ. eigenvalues --   -0.34028  -0.33644  -0.33287  -0.32920  -0.32424
  Beta  occ. eigenvalues --   -0.32190  -0.31950  -0.31446  -0.30143  -0.30115
  Beta  occ. eigenvalues --   -0.30054  -0.29742  -0.29662  -0.29096  -0.28953
  Beta  occ. eigenvalues --   -0.28662  -0.28209  -0.27768  -0.27005  -0.26757
  Beta  occ. eigenvalues --   -0.26004  -0.25590  -0.24838  -0.24174  -0.24076
  Beta  occ. eigenvalues --   -0.22020  -0.19841  -0.18527  -0.18246  -0.17505
  Beta  occ. eigenvalues --   -0.17142  -0.16760  -0.16692  -0.15945  -0.15689
  Beta  occ. eigenvalues --   -0.15472  -0.14538  -0.12351  -0.10086
  Beta virt. eigenvalues --   -0.00590   0.03562   0.05751   0.05787   0.06802
  Beta virt. eigenvalues --    0.06995   0.07346   0.08215   0.08591   0.08975
  Beta virt. eigenvalues --    0.09013   0.09167   0.09468   0.09865   0.10223

 Mulliken charges and spin densities:
               1          2
     1  C    0.360698   0.016079
     2  C   -0.133799   0.133815
     3  C    0.117795  -0.040554
     4  C    0.192252   0.111144
     5  C    0.204963   0.017412
     6  C   -0.770620   0.044956
     7  C    0.195321  -0.035316
     8  C    0.144375   0.137368
     9  C    0.662150   0.073177
    10  C   -0.434141   0.020571
    11  C    0.249955   0.019713
    12  C    0.136768   0.110354
    13  C   -0.532238   0.061982
    14  C   -0.618890   0.064663
    15  H    0.129862  -0.004593
    16  H    0.131368  -0.004376
    17  H    0.151030  -0.002838
    18  N   -0.153712  -0.020868
    19  N   -0.145372  -0.020529
    20  O   -0.354158   0.076961
    21  O   -0.348091   0.071005
    22  O   -0.350729   0.071322
    23  O   -0.198441   0.081546
    24  C   -0.190139   0.001319
    25  H    0.151933  -0.000903
    26  H    0.157457  -0.001017
    27  H    0.170561  -0.000366
    28  C   -0.190439   0.001300
    29  H    0.153100  -0.000910
    30  H    0.153170  -0.000952
    31  H    0.169289  -0.000354
    32  C    0.142530  -0.025186
    33  C   -0.380798   0.014684
    34  S   -0.415123   0.007744
    35  C   -0.410674  -0.003695
    36  H    0.106716  -0.001438
    37  C    0.556403   0.022558
    38  O   -0.127130  -0.000513
    39  C    0.895785  -0.006205
    40  C   -0.249514   0.000354
    41  C   -0.010700   0.005519
    42  S   -0.278950   0.000845
    43  H    0.146657  -0.000005
    44  H    0.159802   0.000016
    45  H    0.135936  -0.000069
    46  C   -0.490742  -0.003761
    47  O   -0.124303   0.001146
    48  C   -0.305750   0.006872
    49  H    0.115639   0.000139
    50  C   -0.241975   0.000119
    51  H    0.140543  -0.000426
    52  H    0.133202   0.000085
    53  H    0.161618   0.000016
    54  H    0.129548   0.000088
 Sum of Mulliken charges =  -1.00000   1.00000

 Dipole moment (field-independent basis, Debye):
    X=             11.3625    Y=             -0.3334    Z=              0.4321  Tot=             11.3756
 Quadrupole moment (field-independent basis, Debye-Ang):
   XX=           -318.0540   YY=           -264.5808   ZZ=           -220.1717
   XY=             -4.0763   XZ=             -8.1805   YZ=             21.7836

 Normal termination of Gaussian 16 at Wed Oct  6 03:00:23 2021.
