 Gaussian 16, Revision C.01,
 Gaussian 16:  ES64L-G16RevC.01  3-Jul-2019

 -------------------------------------
 # opt=modredundant b3lyp/6-311+g(d,p)
 -------------------------------------

 ----------
 NDI_15.pdb
 ----------
 Symbolic Z-matrix:
 Charge = -1 Multiplicity = 2

 SCF Done:  E(UB3LYP) =  -2359.40655849     A.U. after   23 cycles
 SCF Done:  E(UB3LYP) =  -2359.40492869     A.U. after   23 cycles
 SCF Done:  E(UB3LYP) =  -2359.42121881     A.U. after   18 cycles
 SCF Done:  E(UB3LYP) =  -2359.42375732     A.U. after   20 cycles
 SCF Done:  E(UB3LYP) =  -2359.42394856     A.U. after   18 cycles
 SCF Done:  E(UB3LYP) =  -2359.42408415     A.U. after   16 cycles
 SCF Done:  E(UB3LYP) =  -2359.42419387     A.U. after   15 cycles
 SCF Done:  E(UB3LYP) =  -2359.42422973     A.U. after   16 cycles
 SCF Done:  E(UB3LYP) =  -2359.42428078     A.U. after   14 cycles
 SCF Done:  E(UB3LYP) =  -2359.42430194     A.U. after   22 cycles
 SCF Done:  E(UB3LYP) =  -2359.42663437     A.U. after   14 cycles
 SCF Done:  E(UB3LYP) =  -2359.42663473     A.U. after   12 cycles
 SCF Done:  E(UB3LYP) =  -2359.42663497     A.U. after   12 cycles
 SCF Done:  E(UB3LYP) =  -2359.42663521     A.U. after   12 cycles
 SCF Done:  E(UB3LYP) =  -2359.42663552     A.U. after   14 cycles
 SCF Done:  E(UB3LYP) =  -2359.42663575     A.U. after   14 cycles
 SCF Done:  E(UB3LYP) =  -2359.42663598     A.U. after   13 cycles
 SCF Done:  E(UB3LYP) =  -2359.42663614     A.U. after   12 cycles
 SCF Done:  E(UB3LYP) =  -2359.42663619     A.U. after   13 cycles
 SCF Done:  E(UB3LYP) =  -2359.42663620     A.U. after    8 cycles
 Optimization completed.
    -- Stationary point found.

                         Standard orientation:
 ---------------------------------------------------------------------
 Center     Atomic      Atomic             Coordinates (Angstroms)
 Number     Number       Type             X           Y           Z
 ---------------------------------------------------------------------
      1          6           0       -2.572184   -3.021755    0.104960
      2          6           0       -2.272000   -1.595489    0.008306
      3          6           0       -3.312111   -0.637871    0.060109
      4          6           0       -4.656951   -1.038577    0.215127
      5          6           0       -5.000274   -2.457361    0.319615
      6          6           0       -0.946236   -1.176082   -0.063159
      7          6           0       -2.971925    0.751125   -0.057367
      8          6           0       -1.610544    1.158580   -0.220338
      9          6           0       -0.560718    0.166752   -0.153207
     10          6           0       -1.376429    2.551220   -0.600456
     11          6           0       -3.781277    3.114821   -0.171772
     12          6           0       -4.037476    1.688717   -0.019274
     13          6           0       -5.368821    1.263840    0.153747
     14          6           0       -5.680162   -0.074771    0.268430
     15          1           0       -6.701339   -0.411420    0.393084
     16          1           0       -6.137664    2.025524    0.184810
     17          1           0       -0.196521   -1.953554    0.010172
     18          7           0       -2.456139    3.453875   -0.466337
     19          7           0       -3.926999   -3.366970    0.249334
     20          8           0       -1.722532   -3.912502    0.068372
     21          8           0       -6.153962   -2.865244    0.458626
     22          8           0       -4.653757    3.982795   -0.083857
     23          8           0       -0.318488    3.004980   -1.044644
     24          6           0       -2.157847    4.853806   -0.771707
     25          1           0       -1.313970    5.192888   -0.169424
     26          1           0       -1.882659    4.963037   -1.822911
     27          1           0       -3.049018    5.434145   -0.550849
     28          6           0       -4.220244   -4.797610    0.342934
     29          1           0       -3.846058   -5.311998   -0.543837
     30          1           0       -3.720771   -5.225964    1.214176
     31          1           0       -5.297178   -4.909776    0.427493
     32          6           0        0.872211    0.435053    0.022049
     33          6           0        1.536013    1.572707    0.427201
     34         16           0        2.039211   -0.837861   -0.332258
     35          6           0        2.937769    1.421383    0.486988
     36          1           0        1.026203    2.490634    0.656927
     37          6           0        3.408546    0.171867    0.108705
     38          8           0        3.828082    2.384347    0.874212
     39          6           0        4.771061   -0.286922    0.062766
     40          6           0        3.317949    3.689049    1.120344
     41          6           0        5.248853   -1.536536   -0.312854
     42         16           0        6.135375    0.736122    0.507664
     43          1           0        4.184817    4.313625    1.335099
     44          1           0        2.787971    4.078323    0.245607
     45          1           0        2.643875    3.694273    1.983832
     46          6           0        6.663221   -1.672910   -0.242239
     47          8           0        4.366601   -2.497245   -0.718384
     48          6           0        7.273933   -0.526533    0.185889
     49          1           0        7.201616   -2.574777   -0.497256
     50          6           0        4.860311   -3.808177   -0.932021
     51          1           0        8.328713   -0.350170    0.329264
     52          1           0        5.336656   -4.207146   -0.028746
     53          1           0        3.993478   -4.418162   -1.182669
     54          1           0        5.574893   -3.837005   -1.763499
 ---------------------------------------------------------------------

 The electronic state is 2-A.
 Alpha  occ. eigenvalues --  -88.80161 -88.78039 -19.08646 -19.08028 -18.99672
 Alpha  occ. eigenvalues --  -18.99529 -18.99118 -18.98969 -14.26558 -14.26156
 Alpha  occ. eigenvalues --  -10.18166 -10.17888 -10.17712 -10.17551 -10.16299
 Alpha  occ. eigenvalues --  -10.16019 -10.15292 -10.14929 -10.13411 -10.12695
 Alpha  occ. eigenvalues --  -10.12073 -10.11842 -10.11069 -10.10694 -10.10617
 Alpha  occ. eigenvalues --  -10.10395 -10.10306 -10.09923 -10.09295 -10.08745
 Alpha  occ. eigenvalues --  -10.08626 -10.08533 -10.08401 -10.08110 -10.07964
 Alpha  occ. eigenvalues --  -10.07898  -7.88714  -7.86609  -5.85023  -5.84640
 Alpha  occ. eigenvalues --   -5.84285  -5.82933  -5.82543  -5.82156  -1.00259
 Alpha  occ. eigenvalues --   -0.99403  -0.95736  -0.95396  -0.93676  -0.93246
 Alpha  occ. eigenvalues --   -0.83818  -0.83365  -0.81314  -0.79669  -0.78601
 Alpha  occ. eigenvalues --   -0.74098  -0.71680  -0.69825  -0.68355  -0.66914
 Alpha  occ. eigenvalues --   -0.65778  -0.65645  -0.63913  -0.63549  -0.61906
 Alpha  occ. eigenvalues --   -0.61124  -0.60404  -0.58444  -0.55139  -0.54040
 Alpha  occ. eigenvalues --   -0.53576  -0.52414  -0.51498  -0.49892  -0.48138
 Alpha  occ. eigenvalues --   -0.47416  -0.46037  -0.45746  -0.45253  -0.43170
 Alpha  occ. eigenvalues --   -0.42005  -0.40855  -0.40712  -0.39795  -0.39660
 Alpha  occ. eigenvalues --   -0.39334  -0.38360  -0.38002  -0.37921  -0.37492
 Alpha  occ. eigenvalues --   -0.37045  -0.36702  -0.36563  -0.35094  -0.34277
 Alpha  occ. eigenvalues --   -0.34203  -0.33786  -0.33189  -0.33094  -0.32717
 Alpha  occ. eigenvalues --   -0.32601  -0.32261  -0.31298  -0.30717  -0.30571
 Alpha  occ. eigenvalues --   -0.30358  -0.30155  -0.29896  -0.29633  -0.29403
 Alpha  occ. eigenvalues --   -0.28985  -0.28513  -0.27701  -0.27456  -0.27019
 Alpha  occ. eigenvalues --   -0.26091  -0.25538  -0.25231  -0.24976  -0.23514
 Alpha  occ. eigenvalues --   -0.22783  -0.20377  -0.19418  -0.18675  -0.17952
 Alpha  occ. eigenvalues --   -0.17826  -0.17276  -0.16980  -0.16461  -0.15997
 Alpha  occ. eigenvalues --   -0.15809  -0.14721  -0.13840  -0.10207  -0.05113
 Alpha virt. eigenvalues --    0.02580   0.04638   0.05798   0.06263   0.06889
 Alpha virt. eigenvalues --    0.07366   0.07526   0.08600   0.08911   0.09124
 Alpha virt. eigenvalues --    0.09583   0.09908   0.10262   0.10290   0.10640

  Beta  occ. eigenvalues --  -88.80158 -88.78023 -19.08632 -19.08037 -18.99503
  Beta  occ. eigenvalues --  -18.99337 -18.98938 -18.98762 -14.26604 -14.26207
  Beta  occ. eigenvalues --  -10.18123 -10.17848 -10.17656 -10.17507 -10.16299
  Beta  occ. eigenvalues --  -10.15982 -10.15292 -10.14963 -10.13437 -10.12659
  Beta  occ. eigenvalues --  -10.11995 -10.11897 -10.11083 -10.10616 -10.10553
  Beta  occ. eigenvalues --  -10.10394 -10.10356 -10.09980 -10.09122 -10.08604
  Beta  occ. eigenvalues --  -10.08455 -10.08384 -10.08372 -10.08045 -10.07888
  Beta  occ. eigenvalues --  -10.07818  -7.88711  -7.86595  -5.85021  -5.84639
  Beta  occ. eigenvalues --   -5.84276  -5.82925  -5.82534  -5.82107  -1.00228
  Beta  occ. eigenvalues --   -0.99423  -0.95514  -0.95156  -0.93369  -0.92917
  Beta  occ. eigenvalues --   -0.83711  -0.83250  -0.81279  -0.79550  -0.78510
  Beta  occ. eigenvalues --   -0.73790  -0.71391  -0.69728  -0.68302  -0.66817
  Beta  occ. eigenvalues --   -0.65672  -0.65270  -0.63818  -0.63487  -0.61857
  Beta  occ. eigenvalues --   -0.61075  -0.60150  -0.58189  -0.54992  -0.53851
  Beta  occ. eigenvalues --   -0.53482  -0.52248  -0.51449  -0.49845  -0.48112
  Beta  occ. eigenvalues --   -0.47354  -0.45962  -0.45671  -0.45138  -0.43020
  Beta  occ. eigenvalues --   -0.41911  -0.40814  -0.40667  -0.39810  -0.39621
  Beta  occ. eigenvalues --   -0.39177  -0.38149  -0.37922  -0.37774  -0.37459
  Beta  occ. eigenvalues --   -0.36937  -0.36642  -0.36467  -0.34999  -0.34172
  Beta  occ. eigenvalues --   -0.34092  -0.33703  -0.33112  -0.32993  -0.32553
  Beta  occ. eigenvalues --   -0.32357  -0.32033  -0.31173  -0.30441  -0.30296
  Beta  occ. eigenvalues --   -0.30197  -0.30064  -0.29630  -0.29235  -0.29079
  Beta  occ. eigenvalues --   -0.28481  -0.28296  -0.27623  -0.27219  -0.26775
  Beta  occ. eigenvalues --   -0.25993  -0.25483  -0.25075  -0.24877  -0.23408
  Beta  occ. eigenvalues --   -0.22217  -0.19947  -0.18551  -0.18486  -0.17649
  Beta  occ. eigenvalues --   -0.17395  -0.16973  -0.16701  -0.16249  -0.15739
  Beta  occ. eigenvalues --   -0.15422  -0.14456  -0.12592  -0.09715
  Beta virt. eigenvalues --   -0.00876   0.02979   0.05613   0.05800   0.06683
  Beta virt. eigenvalues --    0.06894   0.07524   0.08108   0.08605   0.08913
  Beta virt. eigenvalues --    0.09131   0.09593   0.10087   0.10279   0.10348

 Mulliken charges and spin densities:
               1          2
     1  C    0.224994   0.014918
     2  C   -0.084001   0.128909
     3  C    0.196708  -0.038029
     4  C    0.206534   0.096300
     5  C    0.170411   0.017981
     6  C    0.043236   0.013415
     7  C    0.246297  -0.028772
     8  C    0.512458   0.131488
     9  C    0.141155   0.093539
    10  C   -0.912309   0.011639
    11  C    0.178124   0.018956
    12  C    0.145440   0.097474
    13  C   -0.484526   0.054129
    14  C   -0.576595   0.062880
    15  H    0.129815  -0.004329
    16  H    0.132698  -0.003937
    17  H    0.149341  -0.000552
    18  N   -0.054985  -0.020385
    19  N   -0.140050  -0.018782
    20  O   -0.358165   0.071788
    21  O   -0.341381   0.063077
    22  O   -0.351266   0.067519
    23  O   -0.310480   0.077742
    24  C   -0.154324   0.001849
    25  H    0.146710  -0.000776
    26  H    0.157523  -0.001088
    27  H    0.169707  -0.000373
    28  C   -0.191645   0.001074
    29  H    0.153597  -0.000820
    30  H    0.153795  -0.000874
    31  H    0.168305  -0.000316
    32  C   -0.162703  -0.034983
    33  C   -0.248053   0.059355
    34  S   -0.704413   0.023247
    35  C   -0.312103  -0.020390
    36  H    0.141261  -0.003358
    37  C    0.699244   0.044510
    38  O   -0.130778  -0.001357
    39  C    0.921345  -0.016684
    40  C   -0.244173   0.000026
    41  C   -0.008710   0.025325
    42  S   -0.268347   0.002012
    43  H    0.146852   0.000006
    44  H    0.164975  -0.000207
    45  H    0.137787  -0.000267
    46  C   -0.598192  -0.010428
    47  O   -0.119255   0.002232
    48  C   -0.320557   0.025982
    49  H    0.115927   0.000509
    50  C   -0.245723  -0.000296
    51  H    0.141543  -0.001620
    52  H    0.135772   0.000443
    53  H    0.166100  -0.000004
    54  H    0.125078   0.000305
 Sum of Mulliken charges =  -1.00000   1.00000

 Dipole moment (field-independent basis, Debye):
    X=             11.2415    Y=             -0.4010    Z=              0.6169  Tot=             11.2655
 Quadrupole moment (field-independent basis, Debye-Ang):
   XX=           -315.2694   YY=           -255.6127   ZZ=           -230.2559
   XY=             -5.3935   XZ=              2.7379   YZ=              9.6381

 Normal termination of Gaussian 16 at Wed Oct  6 03:08:42 2021.
