 Gaussian 16, Revision C.01,
 Gaussian 16:  ES64L-G16RevC.01  3-Jul-2019

 -------------------------------------
 # opt=modredundant b3lyp/6-311+g(d,p)
 -------------------------------------

 -----------
 NDI_-85.pdb
 -----------
 Symbolic Z-matrix:
 Charge = -1 Multiplicity = 2

 SCF Done:  E(UB3LYP) =  -2359.41996467     A.U. after   23 cycles
 SCF Done:  E(UB3LYP) =  -2359.42674986     A.U. after   20 cycles
 SCF Done:  E(UB3LYP) =  -2359.42751999     A.U. after   17 cycles
 SCF Done:  E(UB3LYP) =  -2359.42742876     A.U. after   17 cycles
 SCF Done:  E(UB3LYP) =  -2359.42772634     A.U. after   16 cycles
 SCF Done:  E(UB3LYP) =  -2359.42773201     A.U. after   14 cycles
 SCF Done:  E(UB3LYP) =  -2359.42773708     A.U. after   12 cycles
 SCF Done:  E(UB3LYP) =  -2359.42773813     A.U. after   11 cycles
 SCF Done:  E(UB3LYP) =  -2359.42773907     A.U. after   10 cycles
 SCF Done:  E(UB3LYP) =  -2359.42774047     A.U. after   11 cycles
 SCF Done:  E(UB3LYP) =  -2359.42780790     A.U. after   11 cycles
 SCF Done:  E(UB3LYP) =  -2359.42780827     A.U. after   11 cycles
 SCF Done:  E(UB3LYP) =  -2359.42780870     A.U. after   11 cycles
 SCF Done:  E(UB3LYP) =  -2359.42775040     A.U. after    9 cycles
 SCF Done:  E(UB3LYP) =  -2359.42775009     A.U. after   12 cycles
 SCF Done:  E(UB3LYP) =  -2359.42775053     A.U. after   11 cycles
 SCF Done:  E(UB3LYP) =  -2359.42775053     A.U. after    9 cycles
 SCF Done:  E(UB3LYP) =  -2359.42775054     A.U. after    9 cycles
 SCF Done:  E(UB3LYP) =  -2359.42775059     A.U. after    9 cycles
 SCF Done:  E(UB3LYP) =  -2359.42775058     A.U. after    8 cycles
 Optimization completed.
    -- Stationary point found.

                         Standard orientation:
 ---------------------------------------------------------------------
 Center     Atomic      Atomic             Coordinates (Angstroms)
 Number     Number       Type             X           Y           Z
 ---------------------------------------------------------------------
      1          6           0        3.200661   -2.834211    0.398314
      2          6           0        2.610240   -1.506457    0.271067
      3          6           0        3.426496   -0.386023   -0.008087
      4          6           0        4.825135   -0.526922   -0.173457
      5          6           0        5.454313   -1.839696   -0.057190
      6          6           0        1.227167   -1.340411    0.434929
      7          6           0        2.817583    0.908622   -0.124426
      8          6           0        1.410808    1.053547    0.043606
      9          6           0        0.617221   -0.095966    0.338155
     10          6           0        0.816262    2.382511   -0.101570
     11          6           0        3.085699    3.357974   -0.543124
     12          6           0        3.650638    2.020709   -0.408757
     13          6           0        5.040121    1.849362   -0.567605
     14          6           0        5.618780    0.601961   -0.452589
     15          1           0        6.685426    0.461354   -0.573797
     16          1           0        5.635287    2.727743   -0.783145
     17          1           0        0.631499   -2.217338    0.654836
     18          7           0        1.694043    3.450185   -0.383247
     19          7           0        4.593120   -2.920124    0.222035
     20          8           0        2.558811   -3.856840    0.646450
     21          8           0        6.665782   -2.026573   -0.189676
     22          8           0        3.759547    4.362962   -0.783782
     23          8           0       -0.385113    2.630580    0.002180
     24          6           0        1.067602    4.765603   -0.522822
     25          1           0        0.323533    4.741283   -1.320780
     26          1           0        0.554984    5.036515    0.402186
     27          1           0        1.852529    5.481264   -0.749189
     28          6           0        5.174909   -4.256703    0.348405
     29          1           0        4.981544   -4.656210    1.345939
     30          1           0        4.716628   -4.931938   -0.376355
     31          1           0        6.243081   -4.170220    0.171932
     32          6           0       -0.849052   -0.046333    0.564909
     33          6           0       -1.517397    0.227060    1.726941
     34         16           0       -1.951777   -0.490008   -0.704190
     35          6           0       -2.926109    0.112333    1.593486
     36          1           0       -1.007067    0.526365    2.630492
     37          6           0       -3.357521   -0.270729    0.334281
     38          8           0       -3.845562    0.329412    2.583972
     39          6           0       -4.712633   -0.465907   -0.118934
     40          6           0       -3.383025    0.918913    3.790371
     41          6           0       -5.152356   -0.861297   -1.373905
     42         16           0       -6.110301   -0.199730    0.918616
     43          1           0       -4.268152    1.080756    4.405328
     44          1           0       -2.692606    0.253240    4.320257
     45          1           0       -2.888974    1.877097    3.598335
     46          6           0       -6.567574   -0.942119   -1.505609
     47          8           0       -4.235949   -1.145072   -2.348392
     48          6           0       -7.214858   -0.611384   -0.347770
     49          1           0       -7.079979   -1.231827   -2.412098
     50          6           0       -4.714857   -1.389926   -3.658754
     51          1           0       -8.277928   -0.588314   -0.164541
     52          1           0       -5.289915   -0.537743   -4.039846
     53          1           0       -3.831567   -1.535672   -4.279429
     54          1           0       -5.334855   -2.293788   -3.697671
 ---------------------------------------------------------------------

 The electronic state is 2-A.
 Alpha  occ. eigenvalues --  -88.80110 -88.78204 -19.08635 -19.08180 -18.99276
 Alpha  occ. eigenvalues --  -18.99179 -18.99083 -18.98972 -14.26263 -14.26097
 Alpha  occ. eigenvalues --  -10.17775 -10.17573 -10.17553 -10.17543 -10.16400
 Alpha  occ. eigenvalues --  -10.15902 -10.15690 -10.15019 -10.13349 -10.12607
 Alpha  occ. eigenvalues --  -10.11838 -10.11837 -10.11024 -10.10361 -10.10208
 Alpha  occ. eigenvalues --  -10.10184 -10.10138 -10.09934 -10.09276 -10.08489
 Alpha  occ. eigenvalues --  -10.08489 -10.08486 -10.08471 -10.08187 -10.07896
 Alpha  occ. eigenvalues --  -10.07827  -7.88665  -7.86759  -5.84973  -5.84590
 Alpha  occ. eigenvalues --   -5.84234  -5.83083  -5.82689  -5.82303  -1.00218
 Alpha  occ. eigenvalues --   -0.99564  -0.95348  -0.95294  -0.93271  -0.93194
 Alpha  occ. eigenvalues --   -0.83493  -0.83289  -0.81277  -0.79695  -0.78621
 Alpha  occ. eigenvalues --   -0.74018  -0.71583  -0.69792  -0.68325  -0.66751
 Alpha  occ. eigenvalues --   -0.66013  -0.65460  -0.63883  -0.63389  -0.61968
 Alpha  occ. eigenvalues --   -0.60955  -0.60272  -0.58570  -0.54856  -0.53913
 Alpha  occ. eigenvalues --   -0.53372  -0.52214  -0.51602  -0.49837  -0.48127
 Alpha  occ. eigenvalues --   -0.47529  -0.45928  -0.45777  -0.45129  -0.42929
 Alpha  occ. eigenvalues --   -0.41671  -0.40912  -0.40821  -0.40110  -0.39977
 Alpha  occ. eigenvalues --   -0.39245  -0.38135  -0.37985  -0.37812  -0.37502
 Alpha  occ. eigenvalues --   -0.36930  -0.36532  -0.36480  -0.34956  -0.34509
 Alpha  occ. eigenvalues --   -0.34116  -0.33706  -0.33375  -0.32958  -0.32537
 Alpha  occ. eigenvalues --   -0.32311  -0.32267  -0.31593  -0.30442  -0.30175
 Alpha  occ. eigenvalues --   -0.30118  -0.30059  -0.29804  -0.29405  -0.29140
 Alpha  occ. eigenvalues --   -0.29074  -0.28772  -0.27797  -0.27134  -0.27056
 Alpha  occ. eigenvalues --   -0.25971  -0.25646  -0.24766  -0.24223  -0.24153
 Alpha  occ. eigenvalues --   -0.22787  -0.19867  -0.19548  -0.18366  -0.17767
 Alpha  occ. eigenvalues --   -0.17612  -0.17099  -0.16710  -0.16278  -0.16040
 Alpha  occ. eigenvalues --   -0.15513  -0.14867  -0.13847  -0.10259  -0.05095
 Alpha virt. eigenvalues --    0.03653   0.04647   0.05752   0.06655   0.06801
 Alpha virt. eigenvalues --    0.07329   0.07481   0.08396   0.08638   0.08991
 Alpha virt. eigenvalues --    0.09138   0.09485   0.09787   0.10295   0.10619

  Beta  occ. eigenvalues --  -88.80110 -88.78200 -19.08634 -19.08180 -18.99081
  Beta  occ. eigenvalues --  -18.98971 -18.98888 -18.98746 -14.26315 -14.26150
  Beta  occ. eigenvalues --  -10.17725 -10.17529 -10.17504 -10.17497 -10.16400
  Beta  occ. eigenvalues --  -10.15901 -10.15690 -10.15020 -10.13350 -10.12606
  Beta  occ. eigenvalues --  -10.11847 -10.11833 -10.11024 -10.10360 -10.10196
  Beta  occ. eigenvalues --  -10.10183 -10.10102 -10.09991 -10.09086 -10.08478
  Beta  occ. eigenvalues --  -10.08327 -10.08305 -10.08302 -10.08128 -10.07808
  Beta  occ. eigenvalues --  -10.07744  -7.88664  -7.86754  -5.84973  -5.84590
  Beta  occ. eigenvalues --   -5.84234  -5.83076  -5.82683  -5.82300  -1.00217
  Beta  occ. eigenvalues --   -0.99563  -0.95099  -0.95036  -0.92928  -0.92840
  Beta  occ. eigenvalues --   -0.83370  -0.83169  -0.81268  -0.79590  -0.78526
  Beta  occ. eigenvalues --   -0.73693  -0.71268  -0.69719  -0.68297  -0.66674
  Beta  occ. eigenvalues --   -0.65880  -0.65028  -0.63829  -0.63333  -0.61955
  Beta  occ. eigenvalues --   -0.60903  -0.60040  -0.58264  -0.54710  -0.53709
  Beta  occ. eigenvalues --   -0.53279  -0.52035  -0.51582  -0.49787  -0.48117
  Beta  occ. eigenvalues --   -0.47465  -0.45921  -0.45651  -0.45001  -0.42765
  Beta  occ. eigenvalues --   -0.41552  -0.40900  -0.40808  -0.40108  -0.39959
  Beta  occ. eigenvalues --   -0.39080  -0.37942  -0.37890  -0.37620  -0.37484
  Beta  occ. eigenvalues --   -0.36836  -0.36437  -0.36399  -0.34890  -0.34369
  Beta  occ. eigenvalues --   -0.34004  -0.33618  -0.33306  -0.32939  -0.32373
  Beta  occ. eigenvalues --   -0.32095  -0.31951  -0.31484  -0.30080  -0.30021
  Beta  occ. eigenvalues --   -0.30016  -0.29760  -0.29643  -0.29060  -0.28897
  Beta  occ. eigenvalues --   -0.28617  -0.28146  -0.27776  -0.26932  -0.26739
  Beta  occ. eigenvalues --   -0.25966  -0.25622  -0.24704  -0.24138  -0.24119
  Beta  occ. eigenvalues --   -0.21847  -0.19811  -0.18511  -0.18175  -0.17443
  Beta  occ. eigenvalues --   -0.17053  -0.16719  -0.16635  -0.15855  -0.15671
  Beta  occ. eigenvalues --   -0.15326  -0.14776  -0.12244  -0.10235
  Beta virt. eigenvalues --   -0.00459   0.03678   0.05752   0.05834   0.06768
  Beta virt. eigenvalues --    0.07225   0.07355   0.08281   0.08447   0.08669
  Beta virt. eigenvalues --    0.08994   0.09147   0.09489   0.09794   0.10300

 Mulliken charges and spin densities:
               1          2
     1  C    0.367286   0.016403
     2  C    0.002751   0.133252
     3  C    0.195825  -0.041211
     4  C    0.205677   0.113571
     5  C    0.194948   0.019489
     6  C   -0.578993   0.048167
     7  C    0.196056  -0.037598
     8  C   -0.025270   0.141336
     9  C    0.526120   0.076918
    10  C   -0.426213   0.019053
    11  C    0.118398   0.019681
    12  C    0.233701   0.115467
    13  C   -0.515096   0.060904
    14  C   -0.634499   0.066801
    15  H    0.129809  -0.004745
    16  H    0.131001  -0.004395
    17  H    0.137797  -0.003188
    18  N   -0.168410  -0.021109
    19  N   -0.146891  -0.020889
    20  O   -0.353150   0.077642
    21  O   -0.349488   0.072878
    22  O   -0.347527   0.072888
    23  O   -0.178447   0.084727
    24  C   -0.213196   0.001368
    25  H    0.156042  -0.000981
    26  H    0.151802  -0.000983
    27  H    0.170068  -0.000373
    28  C   -0.192163   0.001434
    29  H    0.152478  -0.000974
    30  H    0.153183  -0.000930
    31  H    0.168218  -0.000368
    32  C    0.154630  -0.025592
    33  C   -0.529673   0.008364
    34  S   -0.152569   0.005236
    35  C   -0.128300  -0.000642
    36  H    0.100443  -0.000454
    37  C    0.276131   0.009081
    38  O   -0.143285  -0.000105
    39  C    0.803161  -0.000509
    40  C   -0.238631   0.000488
    41  C    0.010086  -0.000385
    42  S   -0.306524   0.000304
    43  H    0.147331  -0.000012
    44  H    0.136953  -0.000029
    45  H    0.155912   0.000071
    46  C   -0.511071  -0.001169
    47  O   -0.134770   0.000430
    48  C   -0.336628   0.000592
    49  H    0.115284   0.000015
    50  C   -0.244837   0.000094
    51  H    0.140373  -0.000034
    52  H    0.137060   0.000011
    53  H    0.160496   0.000009
    54  H    0.126610   0.000001
 Sum of Mulliken charges =  -1.00000   1.00000

 Dipole moment (field-independent basis, Debye):
    X=            -11.4401    Y=             -0.3350    Z=              0.3337  Tot=             11.4499
 Quadrupole moment (field-independent basis, Debye-Ang):
   XX=           -318.1124   YY=           -275.0214   ZZ=           -209.9866
   XY=              0.2804   XZ=             11.8539   YZ=             13.5412

 Normal termination of Gaussian 16 at Tue Oct  5 14:38:16 2021.
