 Gaussian 16, Revision C.01,
 Gaussian 16:  ES64L-G16RevC.01  3-Jul-2019

 -------------------------------------
 # opt=modredundant b3lyp/6-311+g(d,p)
 -------------------------------------

 ----------
 NDI_40.pdb
 ----------
 Symbolic Z-matrix:
 Charge = -1 Multiplicity = 2

 SCF Done:  E(UB3LYP) =  -2359.42004811     A.U. after   22 cycles
 SCF Done:  E(UB3LYP) =  -2359.42136727     A.U. after   23 cycles
 SCF Done:  E(UB3LYP) =  -2359.42639265     A.U. after   20 cycles
 SCF Done:  E(UB3LYP) =  -2359.42692230     A.U. after   18 cycles
 SCF Done:  E(UB3LYP) =  -2359.42770356     A.U. after   18 cycles
 SCF Done:  E(UB3LYP) =  -2359.42813102     A.U. after   18 cycles
 SCF Done:  E(UB3LYP) =  -2359.42830628     A.U. after   22 cycles
 SCF Done:  E(UB3LYP) =  -2359.42866903     A.U. after   18 cycles
 SCF Done:  E(UB3LYP) =  -2359.42872489     A.U. after   17 cycles
 SCF Done:  E(UB3LYP) =  -2359.42883761     A.U. after   17 cycles
 SCF Done:  E(UB3LYP) =  -2359.42891493     A.U. after   13 cycles
 SCF Done:  E(UB3LYP) =  -2359.42891601     A.U. after   11 cycles
 SCF Done:  E(UB3LYP) =  -2359.42891680     A.U. after   12 cycles
 SCF Done:  E(UB3LYP) =  -2359.42891721     A.U. after   11 cycles
 SCF Done:  E(UB3LYP) =  -2359.42891741     A.U. after   12 cycles
 SCF Done:  E(UB3LYP) =  -2359.42891758     A.U. after   10 cycles
 SCF Done:  E(UB3LYP) =  -2359.42891776     A.U. after   11 cycles
 SCF Done:  E(UB3LYP) =  -2359.42891787     A.U. after   10 cycles
 SCF Done:  E(UB3LYP) =  -2359.42891795     A.U. after   10 cycles
 SCF Done:  E(UB3LYP) =  -2359.42891799     A.U. after   10 cycles
 Optimization completed.
    -- Stationary point found.

                         Standard orientation:
 ---------------------------------------------------------------------
 Center     Atomic      Atomic             Coordinates (Angstroms)
 Number     Number       Type             X           Y           Z
 ---------------------------------------------------------------------
      1          6           0       -2.708437   -2.968429    0.416186
      2          6           0       -2.342916   -1.569532    0.213944
      3          6           0       -3.344071   -0.579802    0.075727
      4          6           0       -4.714090   -0.923033    0.131602
      5          6           0       -5.122325   -2.312777    0.333330
      6          6           0       -0.995625   -1.202897    0.205356
      7          6           0       -2.945274    0.783939   -0.130111
      8          6           0       -1.561287    1.133567   -0.188060
      9          6           0       -0.569732    0.115696    0.032922
     10          6           0       -1.217838    2.502312   -0.577546
     11          6           0       -3.641426    3.152365   -0.528261
     12          6           0       -3.969767    1.753707   -0.283699
     13          6           0       -5.327319    1.385124   -0.214027
     14          6           0       -5.698148    0.072392   -0.009871
     15          1           0       -6.738921   -0.221136    0.039950
     16          1           0       -6.066628    2.167227   -0.331998
     17          1           0       -0.270071   -1.983806    0.392826
     18          7           0       -2.276888    3.433762   -0.670267
     19          7           0       -4.083846   -3.256198    0.458838
     20          8           0       -1.895514   -3.884676    0.547436
     21          8           0       -6.299788   -2.670717    0.392918
     22          8           0       -4.485790    4.046411   -0.628398
     23          8           0       -0.084103    2.907322   -0.840547
     24          6           0       -1.888960    4.803101   -1.011795
     25          1           0       -1.165173    5.177162   -0.285923
     26          1           0       -1.416275    4.826711   -1.995650
     27          1           0       -2.789565    5.410117   -1.006053
     28          6           0       -4.441051   -4.661135    0.658335
     29          1           0       -4.010204   -5.270834   -0.137786
     30          1           0       -4.038435   -5.018255    1.608226
     31          1           0       -5.524867   -4.730869    0.652581
     32          6           0        0.871581    0.360308    0.193561
     33          6           0        1.525682    1.361938    0.869173
     34         16           0        2.020751   -0.786486   -0.462661
     35          6           0        2.930299    1.210746    0.869781
     36          1           0        1.004931    2.184775    1.330371
     37          6           0        3.396618    0.091692    0.193220
     38          8           0        3.825133    2.052346    1.471722
     39          6           0        4.760728   -0.330788    0.011432
     40          6           0        3.329724    3.292234    1.960822
     41          6           0        5.233771   -1.452545   -0.656642
     42         16           0        6.131211    0.573977    0.649767
     43          1           0        4.201792    3.851686    2.298906
     44          1           0        2.814264    3.849755    1.172604
     45          1           0        2.647608    3.141818    2.804949
     46          6           0        6.650359   -1.587228   -0.654895
     47          8           0        4.345222   -2.300501   -1.256317
     48          6           0        7.267029   -0.566457    0.014057
     49          1           0        7.185648   -2.399190   -1.126606
     50          6           0        4.834279   -3.535733   -1.749198
     51          1           0        8.324279   -0.418115    0.170337
     52          1           0        5.323446   -4.115475   -0.957678
     53          1           0        3.963461   -4.081139   -2.110712
     54          1           0        5.536347   -3.387314   -2.578606
 ---------------------------------------------------------------------

 The electronic state is 2-A.
 Alpha  occ. eigenvalues --  -88.80124 -88.78197 -19.08635 -19.08038 -18.99524
 Alpha  occ. eigenvalues --  -18.99390 -18.99115 -18.98902 -14.26447 -14.26138
 Alpha  occ. eigenvalues --  -10.18020 -10.17749 -10.17674 -10.17565 -10.16333
 Alpha  occ. eigenvalues --  -10.15947 -10.15386 -10.14960 -10.13385 -10.12642
 Alpha  occ. eigenvalues --  -10.11989 -10.11723 -10.11039 -10.10522 -10.10517
 Alpha  occ. eigenvalues --  -10.10312 -10.10276 -10.09943 -10.09304 -10.08661
 Alpha  occ. eigenvalues --  -10.08572 -10.08520 -10.08313 -10.08272 -10.07942
 Alpha  occ. eigenvalues --  -10.07881  -7.88677  -7.86758  -5.84986  -5.84603
 Alpha  occ. eigenvalues --   -5.84247  -5.83079  -5.82690  -5.82309  -1.00226
 Alpha  occ. eigenvalues --   -0.99417  -0.95590  -0.95352  -0.93522  -0.93221
 Alpha  occ. eigenvalues --   -0.83695  -0.83322  -0.81295  -0.79703  -0.78623
 Alpha  occ. eigenvalues --   -0.74076  -0.71648  -0.69809  -0.68330  -0.66859
 Alpha  occ. eigenvalues --   -0.65844  -0.65589  -0.63906  -0.63491  -0.61935
 Alpha  occ. eigenvalues --   -0.61062  -0.60357  -0.58473  -0.55040  -0.53989
 Alpha  occ. eigenvalues --   -0.53513  -0.52350  -0.51518  -0.49861  -0.48121
 Alpha  occ. eigenvalues --   -0.47440  -0.45945  -0.45773  -0.45209  -0.43080
 Alpha  occ. eigenvalues --   -0.41893  -0.40870  -0.40730  -0.39877  -0.39737
 Alpha  occ. eigenvalues --   -0.39304  -0.38269  -0.37968  -0.37886  -0.37490
 Alpha  occ. eigenvalues --   -0.36993  -0.36631  -0.36550  -0.35032  -0.34274
 Alpha  occ. eigenvalues --   -0.34190  -0.33774  -0.33278  -0.32956  -0.32661
 Alpha  occ. eigenvalues --   -0.32555  -0.32251  -0.31410  -0.30584  -0.30500
 Alpha  occ. eigenvalues --   -0.30266  -0.29975  -0.29892  -0.29527  -0.29308
 Alpha  occ. eigenvalues --   -0.29120  -0.28663  -0.27756  -0.27358  -0.27035
 Alpha  occ. eigenvalues --   -0.26061  -0.25568  -0.25025  -0.24573  -0.23903
 Alpha  occ. eigenvalues --   -0.22855  -0.20243  -0.19445  -0.18557  -0.17906
 Alpha  occ. eigenvalues --   -0.17750  -0.17207  -0.16950  -0.16336  -0.15988
 Alpha  occ. eigenvalues --   -0.15858  -0.14540  -0.13880  -0.10214  -0.05121
 Alpha virt. eigenvalues --    0.02976   0.04665   0.05791   0.06361   0.06866
 Alpha virt. eigenvalues --    0.07379   0.07474   0.08615   0.08969   0.09155
 Alpha virt. eigenvalues --    0.09391   0.09555   0.10068   0.10216   0.10636

  Beta  occ. eigenvalues --  -88.80122 -88.78187 -19.08625 -19.08044 -18.99344
  Beta  occ. eigenvalues --  -18.99190 -18.98933 -18.98693 -14.26496 -14.26189
  Beta  occ. eigenvalues --  -10.17974 -10.17706 -10.17622 -10.17520 -10.16333
  Beta  occ. eigenvalues --  -10.15922 -10.15386 -10.14985 -10.13402 -10.12617
  Beta  occ. eigenvalues --  -10.11934 -10.11764 -10.11048 -10.10521 -10.10395
  Beta  occ. eigenvalues --  -10.10328 -10.10311 -10.10001 -10.09126 -10.08511
  Beta  occ. eigenvalues --  -10.08391 -10.08367 -10.08263 -10.08233 -10.07861
  Beta  occ. eigenvalues --  -10.07800  -7.88675  -7.86749  -5.84985  -5.84602
  Beta  occ. eigenvalues --   -5.84241  -5.83073  -5.82684  -5.82281  -1.00205
  Beta  occ. eigenvalues --   -0.99431  -0.95356  -0.95110  -0.93198  -0.92889
  Beta  occ. eigenvalues --   -0.83582  -0.83207  -0.81268  -0.79592  -0.78528
  Beta  occ. eigenvalues --   -0.73764  -0.71349  -0.69719  -0.68285  -0.66768
  Beta  occ. eigenvalues --   -0.65734  -0.65197  -0.63819  -0.63433  -0.61899
  Beta  occ. eigenvalues --   -0.61011  -0.60108  -0.58203  -0.54895  -0.53793
  Beta  occ. eigenvalues --   -0.53422  -0.52175  -0.51481  -0.49814  -0.48099
  Beta  occ. eigenvalues --   -0.47378  -0.45891  -0.45684  -0.45090  -0.42925
  Beta  occ. eigenvalues --   -0.41792  -0.40842  -0.40694  -0.39885  -0.39710
  Beta  occ. eigenvalues --   -0.39143  -0.38045  -0.37907  -0.37714  -0.37462
  Beta  occ. eigenvalues --   -0.36895  -0.36574  -0.36442  -0.34947  -0.34161
  Beta  occ. eigenvalues --   -0.34082  -0.33673  -0.33220  -0.32887  -0.32499
  Beta  occ. eigenvalues --   -0.32318  -0.31975  -0.31309  -0.30310  -0.30207
  Beta  occ. eigenvalues --   -0.30133  -0.29870  -0.29608  -0.29164  -0.29003
  Beta  occ. eigenvalues --   -0.28630  -0.28293  -0.27694  -0.27127  -0.26777
  Beta  occ. eigenvalues --   -0.25993  -0.25533  -0.24927  -0.24450  -0.23840
  Beta  occ. eigenvalues --   -0.22175  -0.19896  -0.18543  -0.18370  -0.17583
  Beta  occ. eigenvalues --   -0.17288  -0.16868  -0.16725  -0.16105  -0.15687
  Beta  occ. eigenvalues --   -0.15525  -0.14347  -0.12503  -0.09872
  Beta virt. eigenvalues --   -0.00774   0.03280   0.05688   0.05793   0.06774
  Beta virt. eigenvalues --    0.06877   0.07458   0.08156   0.08621   0.08976
  Beta virt. eigenvalues --    0.09163   0.09499   0.09673   0.10082   0.10223

 Mulliken charges and spin densities:
               1          2
     1  C    0.295938   0.015587
     2  C   -0.192769   0.131405
     3  C    0.107583  -0.039113
     4  C    0.204491   0.102943
     5  C    0.191264   0.017758
     6  C   -0.454193   0.032376
     7  C    0.203109  -0.032884
     8  C    0.315870   0.134771
     9  C    0.484770   0.085661
    10  C   -0.485748   0.019584
    11  C    0.171251   0.019390
    12  C    0.148312   0.101999
    13  C   -0.479223   0.059258
    14  C   -0.584761   0.062968
    15  H    0.129959  -0.004389
    16  H    0.131862  -0.004228
    17  H    0.158280  -0.001878
    18  N   -0.102693  -0.020524
    19  N   -0.141614  -0.019704
    20  O   -0.357205   0.074968
    21  O   -0.344387   0.067197
    22  O   -0.348968   0.068763
    23  O   -0.268333   0.078296
    24  C   -0.182006   0.001459
    25  H    0.148731  -0.000819
    26  H    0.156549  -0.001051
    27  H    0.169146  -0.000364
    28  C   -0.191153   0.001170
    29  H    0.153432  -0.000873
    30  H    0.153427  -0.000915
    31  H    0.168608  -0.000337
    32  C    0.108157  -0.038215
    33  C   -0.422128   0.034622
    34  S   -0.597555   0.018057
    35  C   -0.214815  -0.012104
    36  H    0.122748  -0.002838
    37  C    0.671273   0.035781
    38  O   -0.131603  -0.001013
    39  C    0.800172  -0.013077
    40  C   -0.243100   0.000301
    41  C   -0.062113   0.017052
    42  S   -0.288964   0.001694
    43  H    0.146066   0.000002
    44  H    0.163040  -0.000112
    45  H    0.136264  -0.000175
    46  C   -0.564495  -0.007276
    47  O   -0.120489   0.001654
    48  C   -0.295495   0.017375
    49  H    0.115270   0.000344
    50  C   -0.247545   0.000046
    51  H    0.140802  -0.001077
    52  H    0.136519   0.000280
    53  H    0.162993   0.000015
    54  H    0.125468   0.000191
 Sum of Mulliken charges =  -1.00000   1.00000

 Dipole moment (field-independent basis, Debye):
    X=             11.2678    Y=             -0.3504    Z=              0.5640  Tot=             11.2874
 Quadrupole moment (field-independent basis, Debye-Ang):
   XX=           -317.1698   YY=           -258.4220   ZZ=           -226.6457
   XY=             -5.2222   XZ=             -2.7943   YZ=             17.1887

 Normal termination of Gaussian 16 at Tue Oct  5 19:42:11 2021.
