 Gaussian 16, Revision C.01,
 Gaussian 16:  ES64L-G16RevC.01  3-Jul-2019

 -------------------------------------
 # opt=modredundant b3lyp/6-311+g(d,p)
 -------------------------------------

 -----------
 NDI_160.pdb
 -----------
 Symbolic Z-matrix:
 Charge = -1 Multiplicity = 2

 SCF Done:  E(UB3LYP) =  -2359.38897655     A.U. after   24 cycles
 SCF Done:  E(UB3LYP) =  -2359.40962567     A.U. after   23 cycles
 SCF Done:  E(UB3LYP) =  -2359.41872590     A.U. after   19 cycles
 SCF Done:  E(UB3LYP) =  -2359.42230816     A.U. after   19 cycles
 SCF Done:  E(UB3LYP) =  -2359.42333372     A.U. after   18 cycles
 SCF Done:  E(UB3LYP) =  -2359.42395771     A.U. after   20 cycles
 SCF Done:  E(UB3LYP) =  -2359.42424819     A.U. after   17 cycles
 SCF Done:  E(UB3LYP) =  -2359.42440812     A.U. after   17 cycles
 SCF Done:  E(UB3LYP) =  -2359.42457928     A.U. after   20 cycles
 SCF Done:  E(UB3LYP) =  -2359.42470668     A.U. after   17 cycles
 SCF Done:  E(UB3LYP) =  -2359.42554114     A.U. after   12 cycles
 SCF Done:  E(UB3LYP) =  -2359.42554124     A.U. after   10 cycles
 SCF Done:  E(UB3LYP) =  -2359.42554144     A.U. after   12 cycles
 SCF Done:  E(UB3LYP) =  -2359.42554166     A.U. after   13 cycles
 SCF Done:  E(UB3LYP) =  -2359.42554177     A.U. after   11 cycles
 SCF Done:  E(UB3LYP) =  -2359.42554183     A.U. after   10 cycles
 SCF Done:  E(UB3LYP) =  -2359.42554185     A.U. after    9 cycles
 SCF Done:  E(UB3LYP) =  -2359.42554188     A.U. after    9 cycles
 SCF Done:  E(UB3LYP) =  -2359.42554191     A.U. after    8 cycles
 SCF Done:  E(UB3LYP) =  -2359.42554192     A.U. after    9 cycles
 Optimization completed.
    -- Stationary point found.

                         Standard orientation:
 ---------------------------------------------------------------------
 Center     Atomic      Atomic             Coordinates (Angstroms)
 Number     Number       Type             X           Y           Z
 ---------------------------------------------------------------------
      1          6           0       -3.505337   -2.682207   -0.247855
      2          6           0       -2.775552   -1.442820   -0.000219
      3          6           0       -3.430255   -0.193288   -0.110018
      4          6           0       -4.794927   -0.115360   -0.465032
      5          6           0       -5.561003   -1.333580   -0.724205
      6          6           0       -1.409212   -1.491662    0.281141
      7          6           0       -2.680682    1.000173    0.154756
      8          6           0       -1.304210    0.921873    0.518448
      9          6           0       -0.639456   -0.351271    0.527357
     10          6           0       -0.668431    2.136629    1.024442
     11          6           0       -2.664076    3.492636    0.353271
     12          6           0       -3.357569    2.243532    0.058042
     13          6           0       -4.715610    2.293441   -0.310735
     14          6           0       -5.425918    1.138575   -0.568722
     15          1           0       -6.471871    1.167860   -0.846244
     16          1           0       -5.183031    3.267810   -0.377861
     17          1           0       -0.938397   -2.463923    0.238078
     18          7           0       -1.351084    3.356055    0.821949
     19          7           0       -4.861461   -2.550861   -0.592688
     20          8           0       -3.007098   -3.807255   -0.170769
     21          8           0       -6.751984   -1.331564   -1.038949
     22          8           0       -3.180005    4.606775    0.234976
     23          8           0        0.405837    2.168454    1.625037
     24          6           0       -0.644005    4.562959    1.252227
     25          1           0       -0.563663    4.591946    2.341820
     26          1           0        0.366065    4.558604    0.842942
     27          1           0       -1.209110    5.420305    0.897812
     28          6           0       -5.586560   -3.798118   -0.837499
     29          1           0       -5.123325   -4.344380   -1.661424
     30          1           0       -5.545556   -4.432744    0.049577
     31          1           0       -6.613841   -3.541457   -1.079086
     32          6           0        0.814809   -0.573388    0.597762
     33          6           0        1.425193   -1.750970    0.992661
     34         16           0        1.982865    0.480223   -0.157325
     35          6           0        2.807197   -1.794768    0.710795
     36          1           0        0.885040   -2.545259    1.485782
     37          6           0        3.296108   -0.668140    0.064016
     38          8           0        3.663272   -2.815591    1.027234
     39          6           0        4.654526   -0.392930   -0.327016
     40          6           0        3.114468   -3.962504    1.658256
     41          6           0        5.151742    0.722264   -0.988458
     42         16           0        5.983821   -1.503950   -0.003078
     43          1           0        3.946341   -4.650055    1.809423
     44          1           0        2.671142   -3.709710    2.627763
     45          1           0        2.357107   -4.440510    1.027442
     46          6           0        6.555632    0.694663   -1.219698
     47          8           0        4.293438    1.711130   -1.378347
     48          6           0        7.137633   -0.445952   -0.740791
     49          1           0        7.105514    1.479675   -1.719549
     50          6           0        4.848250    2.956524   -1.766113
     51          1           0        8.177924   -0.729227   -0.783516
     52          1           0        5.423166    2.868381   -2.695990
     53          1           0        4.003351    3.623961   -1.931031
     54          1           0        5.489762    3.368551   -0.978663
 ---------------------------------------------------------------------

 The electronic state is 2-A.
 Alpha  occ. eigenvalues --  -88.80111 -88.77892 -19.08496 -19.08233 -18.99559
 Alpha  occ. eigenvalues --  -18.99481 -18.99057 -18.98863 -14.26498 -14.25999
 Alpha  occ. eigenvalues --  -10.18054 -10.17826 -10.17507 -10.17470 -10.16206
 Alpha  occ. eigenvalues --  -10.15904 -10.15741 -10.14983 -10.13346 -10.12653
 Alpha  occ. eigenvalues --  -10.11942 -10.11936 -10.11002 -10.10573 -10.10489
 Alpha  occ. eigenvalues --  -10.10181 -10.10145 -10.09876 -10.09048 -10.08659
 Alpha  occ. eigenvalues --  -10.08641 -10.08568 -10.08478 -10.08388 -10.07926
 Alpha  occ. eigenvalues --  -10.07865  -7.88666  -7.86436  -5.84975  -5.84592
 Alpha  occ. eigenvalues --   -5.84237  -5.82763  -5.82362  -5.81980  -1.00112
 Alpha  occ. eigenvalues --   -0.99615  -0.95624  -0.95269  -0.93563  -0.93163
 Alpha  occ. eigenvalues --   -0.83728  -0.83272  -0.81266  -0.79688  -0.78610
 Alpha  occ. eigenvalues --   -0.74077  -0.71618  -0.69846  -0.68271  -0.66722
 Alpha  occ. eigenvalues --   -0.66215  -0.65465  -0.63860  -0.63429  -0.61946
 Alpha  occ. eigenvalues --   -0.61022  -0.60306  -0.58588  -0.54941  -0.54035
 Alpha  occ. eigenvalues --   -0.53401  -0.52459  -0.51429  -0.49790  -0.48037
 Alpha  occ. eigenvalues --   -0.47579  -0.46078  -0.45794  -0.45174  -0.43076
 Alpha  occ. eigenvalues --   -0.42124  -0.40750  -0.40346  -0.40145  -0.39854
 Alpha  occ. eigenvalues --   -0.39192  -0.38313  -0.38013  -0.37886  -0.37467
 Alpha  occ. eigenvalues --   -0.36974  -0.36627  -0.36502  -0.35341  -0.34335
 Alpha  occ. eigenvalues --   -0.33973  -0.33713  -0.33395  -0.32956  -0.32585
 Alpha  occ. eigenvalues --   -0.32502  -0.32269  -0.31552  -0.30560  -0.30442
 Alpha  occ. eigenvalues --   -0.30287  -0.29960  -0.29807  -0.29696  -0.29310
 Alpha  occ. eigenvalues --   -0.28887  -0.28552  -0.27696  -0.27588  -0.26923
 Alpha  occ. eigenvalues --   -0.25994  -0.25498  -0.25151  -0.24482  -0.23901
 Alpha  occ. eigenvalues --   -0.22674  -0.20189  -0.19382  -0.18608  -0.17910
 Alpha  occ. eigenvalues --   -0.17710  -0.17192  -0.16841  -0.16383  -0.15899
 Alpha  occ. eigenvalues --   -0.15862  -0.14500  -0.13824  -0.10179  -0.05055
 Alpha virt. eigenvalues --    0.02835   0.04782   0.05838   0.06200   0.06805
 Alpha virt. eigenvalues --    0.07401   0.07446   0.08603   0.08885   0.09105
 Alpha virt. eigenvalues --    0.09358   0.09700   0.10171   0.10420   0.10606

  Beta  occ. eigenvalues --  -88.80109 -88.77886 -19.08484 -19.08242 -18.99384
  Beta  occ. eigenvalues --  -18.99287 -18.98874 -18.98656 -14.26546 -14.26050
  Beta  occ. eigenvalues --  -10.18007 -10.17781 -10.17464 -10.17423 -10.16207
  Beta  occ. eigenvalues --  -10.15872 -10.15741 -10.15014 -10.13368 -10.12621
  Beta  occ. eigenvalues --  -10.11988 -10.11869 -10.11014 -10.10573 -10.10369
  Beta  occ. eigenvalues --  -10.10199 -10.10180 -10.09930 -10.08862 -10.08596
  Beta  occ. eigenvalues --  -10.08500 -10.08406 -10.08341 -10.08317 -10.07848
  Beta  occ. eigenvalues --  -10.07783  -7.88664  -7.86431  -5.84974  -5.84591
  Beta  occ. eigenvalues --   -5.84229  -5.82757  -5.82357  -5.81964  -1.00085
  Beta  occ. eigenvalues --   -0.99633  -0.95395  -0.95027  -0.93248  -0.92831
  Beta  occ. eigenvalues --   -0.83619  -0.83157  -0.81234  -0.79578  -0.78516
  Beta  occ. eigenvalues --   -0.73770  -0.71321  -0.69745  -0.68231  -0.66645
  Beta  occ. eigenvalues --   -0.66088  -0.65068  -0.63780  -0.63370  -0.61911
  Beta  occ. eigenvalues --   -0.60971  -0.60073  -0.58299  -0.54794  -0.53861
  Beta  occ. eigenvalues --   -0.53276  -0.52355  -0.51352  -0.49724  -0.48010
  Beta  occ. eigenvalues --   -0.47526  -0.46029  -0.45698  -0.45053  -0.42932
  Beta  occ. eigenvalues --   -0.42032  -0.40716  -0.40303  -0.40156  -0.39804
  Beta  occ. eigenvalues --   -0.39053  -0.38093  -0.37953  -0.37699  -0.37437
  Beta  occ. eigenvalues --   -0.36894  -0.36510  -0.36441  -0.35252  -0.34182
  Beta  occ. eigenvalues --   -0.33924  -0.33595  -0.33324  -0.32864  -0.32432
  Beta  occ. eigenvalues --   -0.32277  -0.32026  -0.31413  -0.30348  -0.30218
  Beta  occ. eigenvalues --   -0.30112  -0.29826  -0.29581  -0.29085  -0.29036
  Beta  occ. eigenvalues --   -0.28569  -0.28206  -0.27615  -0.27332  -0.26688
  Beta  occ. eigenvalues --   -0.25890  -0.25459  -0.25015  -0.24388  -0.23820
  Beta  occ. eigenvalues --   -0.22054  -0.19814  -0.18475  -0.18414  -0.17544
  Beta  occ. eigenvalues --   -0.17327  -0.16898  -0.16599  -0.16175  -0.15646
  Beta  occ. eigenvalues --   -0.15413  -0.14300  -0.12491  -0.09788
  Beta virt. eigenvalues --   -0.00756   0.03222   0.05777   0.05839   0.06584
  Beta virt. eigenvalues --    0.06808   0.07411   0.08191   0.08606   0.08890
  Beta virt. eigenvalues --    0.09126   0.09393   0.09899   0.10179   0.10429

 Mulliken charges and spin densities:
               1          2
     1  C    0.296660   0.018584
     2  C   -0.064826   0.123865
     3  C    0.124599  -0.038433
     4  C    0.243038   0.097209
     5  C    0.156871   0.019197
     6  C    0.032408   0.026538
     7  C    0.128954  -0.035353
     8  C    0.232158   0.140653
     9  C    0.233865   0.082408
    10  C   -0.585814   0.013518
    11  C    0.283985   0.018988
    12  C    0.084438   0.107191
    13  C   -0.483286   0.050705
    14  C   -0.575752   0.068688
    15  H    0.129777  -0.004756
    16  H    0.131918  -0.003785
    17  H    0.137135  -0.001468
    18  N   -0.029690  -0.019913
    19  N   -0.144033  -0.019752
    20  O   -0.360712   0.072371
    21  O   -0.344184   0.065546
    22  O   -0.352254   0.068623
    23  O   -0.283471   0.079202
    24  C   -0.176051   0.001589
    25  H    0.155347  -0.001117
    26  H    0.158469  -0.000680
    27  H    0.168348  -0.000389
    28  C   -0.185484   0.001269
    29  H    0.153533  -0.000906
    30  H    0.152312  -0.000868
    31  H    0.168840  -0.000331
    32  C    0.067605  -0.019273
    33  C   -0.687399   0.047103
    34  S   -0.701669   0.012291
    35  C   -0.205354  -0.022611
    36  H    0.124483  -0.002158
    37  C    0.723698   0.034801
    38  O   -0.138755  -0.001145
    39  C    0.862388  -0.014490
    40  C   -0.223857   0.000200
    41  C   -0.075914   0.021971
    42  S   -0.268705   0.001577
    43  H    0.149279  -0.000000
    44  H    0.141565  -0.000246
    45  H    0.147889  -0.000179
    46  C   -0.493469  -0.010062
    47  O   -0.118662   0.001943
    48  C   -0.312742   0.022542
    49  H    0.114226   0.000445
    50  C   -0.258412  -0.000311
    51  H    0.141202  -0.001401
    52  H    0.123926   0.000228
    53  H    0.161262   0.000032
    54  H    0.140317   0.000353
 Sum of Mulliken charges =  -1.00000   1.00000

 Dipole moment (field-independent basis, Debye):
    X=             11.1251    Y=             -1.3360    Z=             -0.2721  Tot=             11.2084
 Quadrupole moment (field-independent basis, Debye-Ang):
   XX=           -311.7756   YY=           -258.1902   ZZ=           -230.3562
   XY=             10.2470   XZ=            -12.6985   YZ=            -13.1335

 Normal termination of Gaussian 16 at Wed Oct  6 01:12:30 2021.
