 Gaussian 16, Revision C.01,
 Gaussian 16:  ES64L-G16RevC.01  3-Jul-2019

 -------------------------------------
 # opt=modredundant b3lyp/6-311+g(d,p)
 -------------------------------------

 -----------
 NDI_-75.pdb
 -----------
 Symbolic Z-matrix:
 Charge = -1 Multiplicity = 2

 SCF Done:  E(UB3LYP) =  -2359.42098998     A.U. after   23 cycles
 SCF Done:  E(UB3LYP) =  -2359.42707715     A.U. after   19 cycles
 SCF Done:  E(UB3LYP) =  -2359.42777379     A.U. after   17 cycles
 SCF Done:  E(UB3LYP) =  -2359.42772340     A.U. after   17 cycles
 SCF Done:  E(UB3LYP) =  -2359.42798459     A.U. after   16 cycles
 SCF Done:  E(UB3LYP) =  -2359.42798943     A.U. after   14 cycles
 SCF Done:  E(UB3LYP) =  -2359.42799377     A.U. after   13 cycles
 SCF Done:  E(UB3LYP) =  -2359.42799508     A.U. after   13 cycles
 SCF Done:  E(UB3LYP) =  -2359.42799601     A.U. after   11 cycles
 SCF Done:  E(UB3LYP) =  -2359.42799716     A.U. after   11 cycles
 SCF Done:  E(UB3LYP) =  -2359.42806474     A.U. after   11 cycles
 SCF Done:  E(UB3LYP) =  -2359.42806475     A.U. after   11 cycles
 SCF Done:  E(UB3LYP) =  -2359.42806476     A.U. after   10 cycles
 SCF Done:  E(UB3LYP) =  -2359.42806477     A.U. after   10 cycles
 SCF Done:  E(UB3LYP) =  -2359.42806478     A.U. after    9 cycles
 SCF Done:  E(UB3LYP) =  -2359.42806479     A.U. after    8 cycles
 SCF Done:  E(UB3LYP) =  -2359.42806480     A.U. after   10 cycles
 SCF Done:  E(UB3LYP) =  -2359.42806480     A.U. after    9 cycles
 SCF Done:  E(UB3LYP) =  -2359.42806480     A.U. after    9 cycles
 SCF Done:  E(UB3LYP) =  -2359.42806480     A.U. after    9 cycles
 Optimization completed.
    -- Stationary point found.

                         Standard orientation:
 ---------------------------------------------------------------------
 Center     Atomic      Atomic             Coordinates (Angstroms)
 Number     Number       Type             X           Y           Z
 ---------------------------------------------------------------------
      1          6           0        3.074168   -2.849353    0.556016
      2          6           0        2.540913   -1.508483    0.341724
      3          6           0        3.409176   -0.435390    0.034176
      4          6           0        4.805701   -0.637223   -0.074395
      5          6           0        5.379002   -1.964650    0.132488
      6          6           0        1.162691   -1.280717    0.459516
      7          6           0        2.854546    0.872230   -0.173570
      8          6           0        1.449169    1.078563   -0.063207
      9          6           0        0.604373   -0.019558    0.285089
     10          6           0        0.909259    2.408621   -0.348130
     11          6           0        3.232084    3.279973   -0.727759
     12          6           0        3.739586    1.933746   -0.492303
     13          6           0        5.125934    1.702877   -0.590893
     14          6           0        5.651890    0.443776   -0.386013
     15          1           0        6.715661    0.257243   -0.461701
     16          1           0        5.761314    2.545029   -0.834402
     17          1           0        0.529560   -2.119304    0.720314
     18          7           0        1.838974    3.428153   -0.643785
     19          7           0        4.467494   -2.996068    0.435416
     20          8           0        2.384731   -3.833222    0.831015
     21          8           0        6.586016   -2.202898    0.053518
     22          8           0        3.953260    4.245172   -0.992799
     23          8           0       -0.287481    2.697684   -0.353313
     24          6           0        1.267547    4.749261   -0.909183
     25          1           0        0.589965    4.699186   -1.763462
     26          1           0        0.690702    5.086908   -0.046282
     27          1           0        2.090358    5.428829   -1.110911
     28          6           0        4.991983   -4.344971    0.650931
     29          1           0        4.740428   -4.687438    1.656554
     30          1           0        4.540235   -5.038376   -0.060781
     31          1           0        6.069225   -4.305896    0.518197
     32          6           0       -0.857420    0.102632    0.498607
     33          6           0       -1.522038    0.637105    1.569305
     34         16           0       -1.967399   -0.609869   -0.635358
     35          6           0       -2.930185    0.501368    1.469018
     36          1           0       -1.008299    1.130988    2.380674
     37          6           0       -3.368508   -0.155883    0.330365
     38          8           0       -3.845007    0.940437    2.387530
     39          6           0       -4.725680   -0.442443   -0.062748
     40          6           0       -3.380506    1.810190    3.410182
     41          6           0       -5.171905   -1.108818   -1.195096
     42         16           0       -6.118311    0.054754    0.893553
     43          1           0       -4.264334    2.116731    3.969400
     44          1           0       -2.687100    1.296639    4.085502
     45          1           0       -2.889102    2.691827    2.985910
     46          6           0       -6.587651   -1.215539   -1.298221
     47          8           0       -4.260000   -1.596892   -2.089417
     48          6           0       -7.229126   -0.631509   -0.241451
     49          1           0       -7.104854   -1.700982   -2.113705
     50          6           0       -4.748774   -2.226050   -3.260308
     51          1           0       -8.291251   -0.566792   -0.062886
     52          1           0       -5.358448   -1.539049   -3.859294
     53          1           0       -3.869861   -2.519616   -3.832949
     54          1           0       -5.337628   -3.119427   -3.019833
 ---------------------------------------------------------------------

 The electronic state is 2-A.
 Alpha  occ. eigenvalues --  -88.80110 -88.78260 -19.08666 -19.08142 -18.99309
 Alpha  occ. eigenvalues --  -18.99203 -18.99098 -18.98962 -14.26285 -14.26109
 Alpha  occ. eigenvalues --  -10.17807 -10.17596 -10.17568 -10.17564 -10.16420
 Alpha  occ. eigenvalues --  -10.15918 -10.15629 -10.15007 -10.13349 -10.12604
 Alpha  occ. eigenvalues --  -10.11852 -10.11817 -10.11029 -10.10380 -10.10252
 Alpha  occ. eigenvalues --  -10.10212 -10.10162 -10.09941 -10.09283 -10.08516
 Alpha  occ. eigenvalues --  -10.08502 -10.08484 -10.08453 -10.08201 -10.07907
 Alpha  occ. eigenvalues --  -10.07840  -7.88664  -7.86815  -5.84972  -5.84589
 Alpha  occ. eigenvalues --   -5.84233  -5.83137  -5.82744  -5.82362  -1.00251
 Alpha  occ. eigenvalues --   -0.99524  -0.95378  -0.95306  -0.93303  -0.93204
 Alpha  occ. eigenvalues --   -0.83517  -0.83297  -0.81284  -0.79709  -0.78630
 Alpha  occ. eigenvalues --   -0.74030  -0.71595  -0.69799  -0.68339  -0.66772
 Alpha  occ. eigenvalues --   -0.65978  -0.65487  -0.63895  -0.63406  -0.61975
 Alpha  occ. eigenvalues --   -0.60973  -0.60288  -0.58554  -0.54888  -0.53923
 Alpha  occ. eigenvalues --   -0.53398  -0.52230  -0.51594  -0.49841  -0.48148
 Alpha  occ. eigenvalues --   -0.47513  -0.45913  -0.45791  -0.45145  -0.42958
 Alpha  occ. eigenvalues --   -0.41695  -0.40895  -0.40868  -0.40070  -0.39935
 Alpha  occ. eigenvalues --   -0.39256  -0.38150  -0.37976  -0.37828  -0.37502
 Alpha  occ. eigenvalues --   -0.36944  -0.36539  -0.36503  -0.34950  -0.34485
 Alpha  occ. eigenvalues --   -0.34125  -0.33723  -0.33360  -0.32973  -0.32558
 Alpha  occ. eigenvalues --   -0.32361  -0.32253  -0.31577  -0.30462  -0.30227
 Alpha  occ. eigenvalues --   -0.30149  -0.30028  -0.29810  -0.29412  -0.29159
 Alpha  occ. eigenvalues --   -0.29117  -0.28774  -0.27798  -0.27180  -0.27042
 Alpha  occ. eigenvalues --   -0.25995  -0.25645  -0.24869  -0.24248  -0.24098
 Alpha  occ. eigenvalues --   -0.22836  -0.19939  -0.19519  -0.18391  -0.17791
 Alpha  occ. eigenvalues --   -0.17635  -0.17113  -0.16774  -0.16243  -0.16058
 Alpha  occ. eigenvalues --   -0.15599  -0.14776  -0.13860  -0.10242  -0.05101
 Alpha virt. eigenvalues --    0.03564   0.04670   0.05741   0.06602   0.06781
 Alpha virt. eigenvalues --    0.07301   0.07466   0.08499   0.08675   0.08990
 Alpha virt. eigenvalues --    0.09151   0.09467   0.09800   0.10257   0.10671

  Beta  occ. eigenvalues --  -88.80109 -88.78256 -19.08664 -19.08143 -18.99116
  Beta  occ. eigenvalues --  -18.98996 -18.98905 -18.98740 -14.26337 -14.26162
  Beta  occ. eigenvalues --  -10.17758 -10.17551 -10.17522 -10.17517 -10.16420
  Beta  occ. eigenvalues --  -10.15914 -10.15629 -10.15011 -10.13352 -10.12600
  Beta  occ. eigenvalues --  -10.11839 -10.11831 -10.11031 -10.10379 -10.10219
  Beta  occ. eigenvalues --  -10.10211 -10.10145 -10.09998 -10.09095 -10.08436
  Beta  occ. eigenvalues --  -10.08354 -10.08321 -10.08318 -10.08144 -10.07820
  Beta  occ. eigenvalues --  -10.07757  -7.88663  -7.86810  -5.84972  -5.84589
  Beta  occ. eigenvalues --   -5.84232  -5.83131  -5.82739  -5.82358  -1.00247
  Beta  occ. eigenvalues --   -0.99525  -0.95132  -0.95051  -0.92963  -0.92853
  Beta  occ. eigenvalues --   -0.83395  -0.83178  -0.81272  -0.79604  -0.78535
  Beta  occ. eigenvalues --   -0.73708  -0.71282  -0.69724  -0.68308  -0.66692
  Beta  occ. eigenvalues --   -0.65851  -0.65062  -0.63834  -0.63350  -0.61959
  Beta  occ. eigenvalues --   -0.60920  -0.60053  -0.58254  -0.54742  -0.53718
  Beta  occ. eigenvalues --   -0.53307  -0.52046  -0.51576  -0.49793  -0.48136
  Beta  occ. eigenvalues --   -0.47449  -0.45907  -0.45663  -0.45017  -0.42795
  Beta  occ. eigenvalues --   -0.41577  -0.40884  -0.40850  -0.40068  -0.39917
  Beta  occ. eigenvalues --   -0.39091  -0.37931  -0.37909  -0.37636  -0.37483
  Beta  occ. eigenvalues --   -0.36850  -0.36462  -0.36403  -0.34883  -0.34348
  Beta  occ. eigenvalues --   -0.34012  -0.33630  -0.33294  -0.32949  -0.32393
  Beta  occ. eigenvalues --   -0.32134  -0.31947  -0.31473  -0.30097  -0.30056
  Beta  occ. eigenvalues --   -0.30027  -0.29753  -0.29662  -0.29076  -0.28921
  Beta  occ. eigenvalues --   -0.28638  -0.28172  -0.27774  -0.26965  -0.26741
  Beta  occ. eigenvalues --   -0.25983  -0.25621  -0.24801  -0.24147  -0.24087
  Beta  occ. eigenvalues --   -0.21925  -0.19819  -0.18518  -0.18202  -0.17469
  Beta  occ. eigenvalues --   -0.17086  -0.16735  -0.16660  -0.15888  -0.15683
  Beta  occ. eigenvalues --   -0.15396  -0.14670  -0.12285  -0.10172
  Beta virt. eigenvalues --   -0.00511   0.03643   0.05742   0.05818   0.06775
  Beta virt. eigenvalues --    0.07125   0.07318   0.08247   0.08543   0.08757
  Beta virt. eigenvalues --    0.08996   0.09160   0.09470   0.09807   0.10263

 Mulliken charges and spin densities:
               1          2
     1  C    0.361606   0.016201
     2  C   -0.059014   0.133633
     3  C    0.154610  -0.040569
     4  C    0.175063   0.113466
     5  C    0.215125   0.017339
     6  C   -0.720354   0.047915
     7  C    0.196400  -0.036659
     8  C    0.106765   0.140141
     9  C    0.643611   0.072942
    10  C   -0.460363   0.019500
    11  C    0.217543   0.019420
    12  C    0.165755   0.113881
    13  C   -0.537944   0.061606
    14  C   -0.622188   0.065933
    15  H    0.129761  -0.004686
    16  H    0.131082  -0.004396
    17  H    0.142349  -0.003059
    18  N   -0.162001  -0.021019
    19  N   -0.146799  -0.020753
    20  O   -0.353456   0.077417
    21  O   -0.349235   0.072182
    22  O   -0.349559   0.072338
    23  O   -0.174783   0.083399
    24  C   -0.199924   0.001337
    25  H    0.157062  -0.001012
    26  H    0.152748  -0.000941
    27  H    0.170681  -0.000371
    28  C   -0.190463   0.001372
    29  H    0.152954  -0.000962
    30  H    0.153198  -0.000924
    31  H    0.169305  -0.000361
    32  C    0.197950  -0.022171
    33  C   -0.565887   0.008160
    34  S   -0.282794   0.005279
    35  C   -0.419745  -0.001820
    36  H    0.101278  -0.000871
    37  C    0.450593   0.016304
    38  O   -0.130726  -0.000271
    39  C    0.934077  -0.003107
    40  C   -0.245766   0.000445
    41  C    0.030985   0.001621
    42  S   -0.285629   0.000531
    43  H    0.147016  -0.000009
    44  H    0.136520  -0.000042
    45  H    0.158114   0.000061
    46  C   -0.491653  -0.002328
    47  O   -0.129623   0.000838
    48  C   -0.314048   0.003040
    49  H    0.115694   0.000064
    50  C   -0.240828   0.000070
    51  H    0.140446  -0.000188
    52  H    0.134156   0.000044
    53  H    0.161304   0.000013
    54  H    0.129031   0.000028
 Sum of Mulliken charges =  -1.00000   1.00000

 Dipole moment (field-independent basis, Debye):
    X=            -11.4136    Y=             -0.3000    Z=              0.3647  Tot=             11.4233
 Quadrupole moment (field-independent basis, Debye-Ang):
   XX=           -318.1800   YY=           -269.7258   ZZ=           -215.0780
   XY=              2.4376   XZ=             10.3653   YZ=             19.9528

 Normal termination of Gaussian 16 at Tue Oct  5 13:13:34 2021.
