 Gaussian 16, Revision C.01,
 Gaussian 16:  ES64L-G16RevC.01  3-Jul-2019

 -------------------------------------
 # opt=modredundant b3lyp/6-311+g(d,p)
 -------------------------------------

 ------------
 NDI_-110.pdb
 ------------
 Symbolic Z-matrix:
 Charge = -1 Multiplicity = 2

 SCF Done:  E(UB3LYP) =  -2359.41859660     A.U. after   23 cycles
 SCF Done:  E(UB3LYP) =  -2359.42608014     A.U. after   23 cycles
 SCF Done:  E(UB3LYP) =  -2359.42725407     A.U. after   20 cycles
 SCF Done:  E(UB3LYP) =  -2359.42718167     A.U. after   18 cycles
 SCF Done:  E(UB3LYP) =  -2359.42776440     A.U. after   19 cycles
 SCF Done:  E(UB3LYP) =  -2359.42780064     A.U. after   18 cycles
 SCF Done:  E(UB3LYP) =  -2359.42782125     A.U. after   14 cycles
 SCF Done:  E(UB3LYP) =  -2359.42782565     A.U. after   13 cycles
 SCF Done:  E(UB3LYP) =  -2359.42782724     A.U. after   12 cycles
 SCF Done:  E(UB3LYP) =  -2359.42783320     A.U. after   13 cycles
 SCF Done:  E(UB3LYP) =  -2359.42786912     A.U. after   12 cycles
 SCF Done:  E(UB3LYP) =  -2359.42787095     A.U. after   12 cycles
 SCF Done:  E(UB3LYP) =  -2359.42787174     A.U. after   12 cycles
 SCF Done:  E(UB3LYP) =  -2359.42787388     A.U. after   12 cycles
 SCF Done:  E(UB3LYP) =  -2359.42787644     A.U. after   13 cycles
 SCF Done:  E(UB3LYP) =  -2359.42787730     A.U. after   12 cycles
 SCF Done:  E(UB3LYP) =  -2359.42787825     A.U. after   13 cycles
 SCF Done:  E(UB3LYP) =  -2359.42787904     A.U. after   11 cycles
 SCF Done:  E(UB3LYP) =  -2359.42787932     A.U. after   11 cycles
 SCF Done:  E(UB3LYP) =  -2359.42787936     A.U. after   11 cycles
 Optimization completed.
    -- Stationary point found.

                         Standard orientation:
 ---------------------------------------------------------------------
 Center     Atomic      Atomic             Coordinates (Angstroms)
 Number     Number       Type             X           Y           Z
 ---------------------------------------------------------------------
      1          6           0       -3.403592   -2.764636    0.281549
      2          6           0       -2.719735   -1.494012    0.069587
      3          6           0       -3.442320   -0.278964    0.112637
      4          6           0       -4.834238   -0.267168    0.367546
      5          6           0       -5.554101   -1.517663    0.593365
      6          6           0       -1.335872   -1.476750   -0.157864
      7          6           0       -2.745198    0.954612   -0.115610
      8          6           0       -1.345759    0.945291   -0.377215
      9          6           0       -0.637308   -0.293762   -0.368037
     10          6           0       -0.685164    2.205488   -0.716309
     11          6           0       -2.830384    3.443749   -0.321777
     12          6           0       -3.485913    2.163418   -0.081010
     13          6           0       -4.870073    2.144094    0.181101
     14          6           0       -5.533770    0.954321    0.401480
     15          1           0       -6.597726    0.930345    0.600523
     16          1           0       -5.393260    3.091814    0.200815
     17          1           0       -0.805197   -2.420215   -0.144063
     18          7           0       -1.460570    3.380034   -0.622234
     19          7           0       -4.785139   -2.697833    0.534947
     20          8           0       -2.847359   -3.864420    0.250385
     21          8           0       -6.764236   -1.573222    0.822441
     22          8           0       -3.416139    4.528672   -0.282594
     23          8           0        0.485910    2.307601   -1.081060
     24          6           0       -0.760197    4.629281   -0.923917
     25          1           0        0.130064    4.712301   -0.299425
     26          1           0       -0.437899    4.640347   -1.967595
     27          1           0       -1.448614    5.447260   -0.732584
     28          6           0       -5.460760   -3.977595    0.750982
     29          1           0       -5.350230   -4.612132   -0.130535
     30          1           0       -5.008976   -4.499173    1.596707
     31          1           0       -6.509192   -3.769470    0.943546
     32          6           0        0.829589   -0.410909   -0.544502
     33          6           0        1.498473   -0.927269   -1.621988
     34         16           0        1.928216   -0.018313    0.746530
     35          6           0        2.905127   -0.974699   -1.428718
     36          1           0        0.989611   -1.231551   -2.524837
     37          6           0        3.331825   -0.516556   -0.193847
     38          8           0        3.825314   -1.426283   -2.335820
     39          6           0        4.683817   -0.426171    0.300234
     40          6           0        3.356328   -1.779401   -3.628341
     41          6           0        5.118975    0.016908    1.540458
     42         16           0        6.083275   -0.880518   -0.667666
     43          1           0        4.238098   -2.067981   -4.200082
     44          1           0        2.661517   -2.625336   -3.583185
     45          1           0        2.865087   -0.931425   -4.117544
     46          6           0        6.532555    0.005175    1.709571
     47          8           0        4.201340    0.392247    2.482474
     48          6           0        7.182968   -0.453233    0.598336
     49          1           0        7.040535    0.318607    2.610796
     50          6           0        4.663132    1.140524    3.594252
     51          1           0        8.245591   -0.568337    0.450511
     52          1           0        5.200842    2.040014    3.273003
     53          1           0        3.773877    1.430253    4.152934
     54          1           0        5.312907    0.539389    4.241824
 ---------------------------------------------------------------------

 The electronic state is 2-A.
 Alpha  occ. eigenvalues --  -88.80126 -88.78062 -19.08543 -19.08274 -18.99285
 Alpha  occ. eigenvalues --  -18.99196 -18.99070 -18.98965 -14.26274 -14.26059
 Alpha  occ. eigenvalues --  -10.17784 -10.17556 -10.17541 -10.17532 -10.16313
 Alpha  occ. eigenvalues --  -10.15869 -10.15796 -10.15077 -10.13376 -10.12635
 Alpha  occ. eigenvalues --  -10.11880 -10.11876 -10.11019 -10.10374 -10.10183
 Alpha  occ. eigenvalues --  -10.10152 -10.10112 -10.09920 -10.09210 -10.08600
 Alpha  occ. eigenvalues --  -10.08489 -10.08483 -10.08461 -10.08200 -10.07893
 Alpha  occ. eigenvalues --  -10.07826  -7.88681  -7.86621  -5.84990  -5.84607
 Alpha  occ. eigenvalues --   -5.84250  -5.82949  -5.82556  -5.82159  -1.00122
 Alpha  occ. eigenvalues --   -0.99658  -0.95354  -0.95275  -0.93279  -0.93182
 Alpha  occ. eigenvalues --   -0.83498  -0.83275  -0.81280  -0.79691  -0.78612
 Alpha  occ. eigenvalues --   -0.74022  -0.71575  -0.69806  -0.68293  -0.66737
 Alpha  occ. eigenvalues --   -0.66097  -0.65431  -0.63870  -0.63376  -0.61959
 Alpha  occ. eigenvalues --   -0.60948  -0.60265  -0.58595  -0.54831  -0.53922
 Alpha  occ. eigenvalues --   -0.53358  -0.52245  -0.51588  -0.49834  -0.48066
 Alpha  occ. eigenvalues --   -0.47573  -0.45955  -0.45780  -0.45118  -0.42926
 Alpha  occ. eigenvalues --   -0.41756  -0.40857  -0.40668  -0.40187  -0.40019
 Alpha  occ. eigenvalues --   -0.39235  -0.38138  -0.38013  -0.37801  -0.37504
 Alpha  occ. eigenvalues --   -0.36917  -0.36549  -0.36449  -0.35071  -0.34439
 Alpha  occ. eigenvalues --   -0.34119  -0.33683  -0.33432  -0.32905  -0.32539
 Alpha  occ. eigenvalues --   -0.32349  -0.32215  -0.31613  -0.30430  -0.30240
 Alpha  occ. eigenvalues --   -0.30118  -0.29991  -0.29834  -0.29457  -0.29140
 Alpha  occ. eigenvalues --   -0.28978  -0.28765  -0.27812  -0.27204  -0.26997
 Alpha  occ. eigenvalues --   -0.25967  -0.25597  -0.24502  -0.24472  -0.24217
 Alpha  occ. eigenvalues --   -0.22679  -0.19889  -0.19510  -0.18383  -0.17782
 Alpha  occ. eigenvalues --   -0.17586  -0.17074  -0.16718  -0.16238  -0.16064
 Alpha  occ. eigenvalues --   -0.15509  -0.14899  -0.13831  -0.10300  -0.05083
 Alpha virt. eigenvalues --    0.03573   0.04643   0.05791   0.06653   0.06805
 Alpha virt. eigenvalues --    0.07273   0.07478   0.08429   0.08647   0.09016
 Alpha virt. eigenvalues --    0.09096   0.09449   0.09882   0.10402   0.10513

  Beta  occ. eigenvalues --  -88.80126 -88.78056 -19.08541 -19.08275 -18.99091
  Beta  occ. eigenvalues --  -18.98989 -18.98878 -18.98741 -14.26326 -14.26112
  Beta  occ. eigenvalues --  -10.17734 -10.17509 -10.17494 -10.17490 -10.16313
  Beta  occ. eigenvalues --  -10.15867 -10.15796 -10.15078 -10.13377 -10.12633
  Beta  occ. eigenvalues --  -10.11891 -10.11871 -10.11020 -10.10373 -10.10171
  Beta  occ. eigenvalues --  -10.10151 -10.10079 -10.09976 -10.09018 -10.08589
  Beta  occ. eigenvalues --  -10.08329 -10.08303 -10.08292 -10.08140 -10.07805
  Beta  occ. eigenvalues --  -10.07743  -7.88681  -7.86615  -5.84990  -5.84607
  Beta  occ. eigenvalues --   -5.84250  -5.82940  -5.82548  -5.82152  -1.00119
  Beta  occ. eigenvalues --   -0.99659  -0.95106  -0.95020  -0.92937  -0.92831
  Beta  occ. eigenvalues --   -0.83376  -0.83156  -0.81271  -0.79586  -0.78518
  Beta  occ. eigenvalues --   -0.73700  -0.71260  -0.69731  -0.68267  -0.66667
  Beta  occ. eigenvalues --   -0.65956  -0.64996  -0.63820  -0.63321  -0.61944
  Beta  occ. eigenvalues --   -0.60895  -0.60038  -0.58285  -0.54684  -0.53726
  Beta  occ. eigenvalues --   -0.53255  -0.52096  -0.51546  -0.49780  -0.48055
  Beta  occ. eigenvalues --   -0.47512  -0.45948  -0.45651  -0.44990  -0.42763
  Beta  occ. eigenvalues --   -0.41650  -0.40842  -0.40641  -0.40187  -0.39998
  Beta  occ. eigenvalues --   -0.39075  -0.37970  -0.37893  -0.37611  -0.37483
  Beta  occ. eigenvalues --   -0.36827  -0.36424  -0.36397  -0.34995  -0.34302
  Beta  occ. eigenvalues --   -0.34017  -0.33592  -0.33361  -0.32879  -0.32375
  Beta  occ. eigenvalues --   -0.32110  -0.31936  -0.31493  -0.30133  -0.30062
  Beta  occ. eigenvalues --   -0.30011  -0.29726  -0.29635  -0.29027  -0.28901
  Beta  occ. eigenvalues --   -0.28618  -0.28119  -0.27785  -0.26969  -0.26717
  Beta  occ. eigenvalues --   -0.25945  -0.25575  -0.24477  -0.24368  -0.24120
  Beta  occ. eigenvalues --   -0.21792  -0.19809  -0.18487  -0.18190  -0.17448
  Beta  occ. eigenvalues --   -0.17050  -0.16702  -0.16646  -0.15874  -0.15615
  Beta  occ. eigenvalues --   -0.15309  -0.14823  -0.12244  -0.10248
  Beta virt. eigenvalues --   -0.00467   0.03620   0.05786   0.05822   0.06740
  Beta virt. eigenvalues --    0.07165   0.07338   0.08309   0.08482   0.08679
  Beta virt. eigenvalues --    0.09024   0.09107   0.09453   0.09892   0.10404

 Mulliken charges and spin densities:
               1          2
     1  C    0.359221   0.017078
     2  C   -0.030699   0.134889
     3  C    0.117732  -0.042313
     4  C    0.245232   0.113247
     5  C    0.199779   0.018344
     6  C   -0.686744   0.044736
     7  C    0.179432  -0.038012
     8  C   -0.077064   0.145652
     9  C    0.398073   0.073807
    10  C   -0.264924   0.016091
    11  C    0.247080   0.019746
    12  C    0.226937   0.118333
    13  C   -0.541309   0.058660
    14  C   -0.654427   0.067182
    15  H    0.130044  -0.004798
    16  H    0.131499  -0.004308
    17  H    0.137094  -0.003101
    18  N   -0.131743  -0.020643
    19  N   -0.144175  -0.020945
    20  O   -0.354383   0.077467
    21  O   -0.350288   0.072521
    22  O   -0.350062   0.072269
    23  O   -0.224396   0.084177
    24  C   -0.193436   0.001308
    25  H    0.158888  -0.000841
    26  H    0.153655  -0.001092
    27  H    0.169898  -0.000378
    28  C   -0.191999   0.001360
    29  H    0.151986  -0.000957
    30  H    0.153603  -0.000953
    31  H    0.169248  -0.000366
    32  C    0.417421  -0.032287
    33  C   -0.665067   0.026080
    34  S   -0.321960   0.013376
    35  C   -0.223003  -0.008096
    36  H    0.105826  -0.000103
    37  C    0.343924  -0.007900
    38  O   -0.122846  -0.000112
    39  C    0.898907   0.004269
    40  C   -0.251233   0.000780
    41  C   -0.030038   0.003969
    42  S   -0.273527   0.000214
    43  H    0.148574  -0.000012
    44  H    0.141351  -0.000003
    45  H    0.151005   0.000002
    46  C   -0.407692   0.000430
    47  O   -0.133649  -0.000257
    48  C   -0.330397   0.001405
    49  H    0.113778   0.000025
    50  C   -0.258950   0.000093
    51  H    0.140695  -0.000077
    52  H    0.140695   0.000015
    53  H    0.158719   0.000006
    54  H    0.123717   0.000024
 Sum of Mulliken charges =  -1.00000   1.00000

 Dipole moment (field-independent basis, Debye):
    X=             11.4220    Y=             -0.6289    Z=             -0.2159  Tot=             11.4414
 Quadrupole moment (field-independent basis, Debye-Ang):
   XX=           -316.7539   YY=           -273.8602   ZZ=           -212.1478
   XY=              5.8790   XZ=             12.4128   YZ=             13.0418

 Normal termination of Gaussian 16 at Tue Oct  5 13:28:28 2021.
