 Gaussian 16, Revision C.01,
 Gaussian 16:  ES64L-G16RevC.01  3-Jul-2019

 ---------------------------------------------------------------
 # opt=modredundant b3lyp/6-311+g(d,p) scrf=(pcm, solvent=water)
 ---------------------------------------------------------------

 ------------
 NDI_-130.pdb
 ------------
 Symbolic Z-matrix:
 Charge =  0 Multiplicity = 1

 SCF Done:  E(RB3LYP) =  -2359.34854685     A.U. after   17 cycles
 SCF Done:  E(RB3LYP) =  -2359.34920196     A.U. after   17 cycles
 SCF Done:  E(RB3LYP) =  -2359.35532082     A.U. after   16 cycles
 SCF Done:  E(RB3LYP) =  -2359.35652264     A.U. after   13 cycles
 SCF Done:  E(RB3LYP) =  -2359.35772496     A.U. after   16 cycles
 SCF Done:  E(RB3LYP) =  -2359.35837329     A.U. after   16 cycles
 SCF Done:  E(RB3LYP) =  -2359.35893102     A.U. after   14 cycles
 SCF Done:  E(RB3LYP) =  -2359.35909971     A.U. after   13 cycles
 SCF Done:  E(RB3LYP) =  -2359.35916703     A.U. after   11 cycles
 SCF Done:  E(RB3LYP) =  -2359.35920032     A.U. after   12 cycles
 SCF Done:  E(RB3LYP) =  -2359.35933362     A.U. after   11 cycles
 SCF Done:  E(RB3LYP) =  -2359.35933887     A.U. after   10 cycles
 SCF Done:  E(RB3LYP) =  -2359.35934170     A.U. after   10 cycles
 SCF Done:  E(RB3LYP) =  -2359.35934331     A.U. after   10 cycles
 SCF Done:  E(RB3LYP) =  -2359.35934571     A.U. after   10 cycles
 SCF Done:  E(RB3LYP) =  -2359.35934621     A.U. after   10 cycles
 SCF Done:  E(RB3LYP) =  -2359.35934709     A.U. after    9 cycles
 SCF Done:  E(RB3LYP) =  -2359.35934742     A.U. after    8 cycles
 SCF Done:  E(RB3LYP) =  -2359.35934738     A.U. after    8 cycles
 SCF Done:  E(RB3LYP) =  -2359.35934736     A.U. after    8 cycles
 Optimization completed.
    -- Stationary point found.

                         Standard orientation:
 ---------------------------------------------------------------------
 Center     Atomic      Atomic             Coordinates (Angstroms)
 Number     Number       Type             X           Y           Z
 ---------------------------------------------------------------------
      1          6           0       -3.524359   -2.691670    0.450867
      2          6           0       -2.768614   -1.454246    0.133629
      3          6           0       -3.428033   -0.204696    0.120174
      4          6           0       -4.803627   -0.112209    0.420847
      5          6           0       -5.579466   -1.335057    0.753233
      6          6           0       -1.416727   -1.520634   -0.110101
      7          6           0       -2.687489    0.961807   -0.209345
      8          6           0       -1.301923    0.869621   -0.515134
      9          6           0       -0.643906   -0.365389   -0.399579
     10          6           0       -0.633204    2.077353   -1.071002
     11          6           0       -2.632467    3.452049   -0.549893
     12          6           0       -3.362790    2.206424   -0.217863
     13          6           0       -4.711596    2.276476    0.090611
     14          6           0       -5.435959    1.119555    0.407352
     15          1           0       -6.490394    1.179397    0.641965
     16          1           0       -5.200518    3.241789    0.083493
     17          1           0       -0.918782   -2.479036   -0.043400
     18          7           0       -1.300571    3.305367   -0.932655
     19          7           0       -4.884263   -2.551862    0.737397
     20          8           0       -3.002980   -3.795837    0.467310
     21          8           0       -6.768502   -1.292406    1.025573
     22          8           0       -3.163963    4.552598   -0.514385
     23          8           0        0.436605    2.044709   -1.655363
     24          6           0       -0.572653    4.506065   -1.371354
     25          1           0        0.467451    4.418409   -1.068461
     26          1           0       -0.620278    4.607943   -2.457399
     27          1           0       -1.034145    5.370903   -0.905657
     28          6           0       -5.616200   -3.789292    1.050502
     29          1           0       -5.537077   -4.482770    0.213909
     30          1           0       -5.189652   -4.255173    1.938733
     31          1           0       -6.654650   -3.531360    1.226737
     32          6           0        0.806266   -0.571445   -0.499523
     33          6           0        1.454637   -1.497478   -1.281831
     34         16           0        1.926778    0.285604    0.525975
     35          6           0        2.858791   -1.495543   -1.089858
     36          1           0        0.938437   -2.132724   -1.987228
     37          6           0        3.302500   -0.591742   -0.128408
     38          8           0        3.760963   -2.277432   -1.739514
     39          6           0        4.649437   -0.376042    0.331932
     40          6           0        3.266284   -3.225585   -2.692521
     41          6           0        5.088775    0.526846    1.293901
     42         16           0        6.029386   -1.278570   -0.290737
     43          1           0        4.141714   -3.746111   -3.074779
     44          1           0        2.592114   -3.942415   -2.216149
     45          1           0        2.752971   -2.720129   -3.514939
     46          6           0        6.494229    0.497864    1.523606
     47          8           0        4.188712    1.331012    1.917266
     48          6           0        7.124084   -0.426762    0.739517
     49          1           0        7.011425    1.128178    2.232056
     50          6           0        4.676635    2.263883    2.889272
     51          1           0        8.177659   -0.658667    0.705220
     52          1           0        5.379581    2.967566    2.435886
     53          1           0        3.802100    2.801888    3.248702
     54          1           0        5.154811    1.743179    3.723035
 ---------------------------------------------------------------------

 The electronic state is 1-A.
 Alpha  occ. eigenvalues --  -88.88570 -88.88429 -19.16872 -19.16816 -19.12975
 Alpha  occ. eigenvalues --  -19.12957 -19.12629 -19.12593 -14.38940 -14.38601
 Alpha  occ. eigenvalues --  -10.31554 -10.31394 -10.31290 -10.31109 -10.24736
 Alpha  occ. eigenvalues --  -10.24686 -10.23669 -10.22893 -10.22784 -10.22770
 Alpha  occ. eigenvalues --  -10.22768 -10.22634 -10.22411 -10.22393 -10.22281
 Alpha  occ. eigenvalues --  -10.22268 -10.22237 -10.21783 -10.21605 -10.21255
 Alpha  occ. eigenvalues --  -10.21201 -10.20937 -10.20839 -10.20749 -10.19105
 Alpha  occ. eigenvalues --  -10.18675  -7.97130  -7.96988  -5.93453  -5.93297
 Alpha  occ. eigenvalues --   -5.93065  -5.92911  -5.92665  -5.92557  -1.09061
 Alpha  occ. eigenvalues --   -1.08830  -1.08247  -1.08161  -1.07257  -1.06968
 Alpha  occ. eigenvalues --   -0.96581  -0.96252  -0.92631  -0.90419  -0.88798
 Alpha  occ. eigenvalues --   -0.86810  -0.84460  -0.80563  -0.78622  -0.77596
 Alpha  occ. eigenvalues --   -0.76220  -0.75354  -0.75092  -0.73228  -0.72657
 Alpha  occ. eigenvalues --   -0.71685  -0.70165  -0.68829  -0.67494  -0.66109
 Alpha  occ. eigenvalues --   -0.65564  -0.65091  -0.61096  -0.59876  -0.58709
 Alpha  occ. eigenvalues --   -0.57653  -0.56742  -0.55849  -0.55167  -0.54633
 Alpha  occ. eigenvalues --   -0.53904  -0.51860  -0.50421  -0.50191  -0.49903
 Alpha  occ. eigenvalues --   -0.49609  -0.49266  -0.48646  -0.48201  -0.47897
 Alpha  occ. eigenvalues --   -0.47809  -0.47451  -0.47036  -0.46717  -0.45826
 Alpha  occ. eigenvalues --   -0.45500  -0.45382  -0.45140  -0.44359  -0.43934
 Alpha  occ. eigenvalues --   -0.42922  -0.42656  -0.42235  -0.42076  -0.41827
 Alpha  occ. eigenvalues --   -0.41737  -0.41519  -0.41188  -0.40753  -0.40137
 Alpha  occ. eigenvalues --   -0.39701  -0.39145  -0.38751  -0.37849  -0.37536
 Alpha  occ. eigenvalues --   -0.36262  -0.35892  -0.34227  -0.33832  -0.33768
 Alpha  occ. eigenvalues --   -0.33584  -0.32294  -0.31641  -0.30805  -0.30025
 Alpha  occ. eigenvalues --   -0.29703  -0.29339  -0.29246  -0.28656  -0.27764
 Alpha  occ. eigenvalues --   -0.26319  -0.25129  -0.24714  -0.19513
 Alpha virt. eigenvalues --   -0.13371  -0.07260  -0.06412  -0.04988  -0.04364
 Alpha virt. eigenvalues --   -0.00853  -0.00620   0.00104   0.00379   0.00459
 Alpha virt. eigenvalues --    0.00736   0.01043   0.01210   0.01291   0.02101

 Mulliken charges:
               1
     1  C    0.450416
     2  C   -0.097872
     3  C    0.135315
     4  C    0.232536
     5  C    0.300783
     6  C   -0.322001
     7  C    0.148147
     8  C    0.166952
     9  C    0.332345
    10  C   -0.433110
    11  C    0.322742
    12  C    0.095925
    13  C   -0.454344
    14  C   -0.615642
    15  H    0.166764
    16  H    0.166855
    17  H    0.163263
    18  N    0.002926
    19  N   -0.109767
    20  O   -0.341859
    21  O   -0.334718
    22  O   -0.349986
    23  O   -0.265287
    24  C   -0.198066
    25  H    0.182287
    26  H    0.192760
    27  H    0.181201
    28  C   -0.213909
    29  H    0.182610
    30  H    0.185245
    31  H    0.180659
    32  C    0.341817
    33  C   -0.551538
    34  S   -0.539206
    35  C   -0.132661
    36  H    0.162340
    37  C    0.453719
    38  O   -0.161159
    39  C    0.812900
    40  C   -0.237392
    41  C    0.024490
    42  S   -0.242492
    43  H    0.176794
    44  H    0.165991
    45  H    0.163881
    46  C   -0.593942
    47  O   -0.166119
    48  C   -0.327791
    49  H    0.161841
    50  C   -0.251401
    51  H    0.189595
    52  H    0.161422
    53  H    0.174467
    54  H    0.161272
 Sum of Mulliken charges =  -0.00000

 Dipole moment (field-independent basis, Debye):
    X=              3.0466    Y=             -0.5410    Z=              0.8839  Tot=              3.2180
 Quadrupole moment (field-independent basis, Debye-Ang):
   XX=           -213.3140   YY=           -223.4508   ZZ=           -208.5682
   XY=             10.7421   XZ=             15.1588   YZ=             18.6351

 Normal termination of Gaussian 16 at Wed Oct 27 20:04:50 2021.
