 Gaussian 16, Revision C.01,
 Gaussian 16:  ES64L-G16RevC.01  3-Jul-2019

 ---------------------------------------------------------------
 # opt=modredundant b3lyp/6-311+g(d,p) scrf=(pcm, solvent=water)
 ---------------------------------------------------------------

 -----------
 NDI_145.pdb
 -----------
 Symbolic Z-matrix:
 Charge =  0 Multiplicity = 1

 SCF Done:  E(RB3LYP) =  -2359.34056252     A.U. after   17 cycles
 SCF Done:  E(RB3LYP) =  -2359.34539084     A.U. after   18 cycles
 SCF Done:  E(RB3LYP) =  -2359.35312872     A.U. after   14 cycles
 SCF Done:  E(RB3LYP) =  -2359.35787955     A.U. after   16 cycles
 SCF Done:  E(RB3LYP) =  -2359.35878502     A.U. after   15 cycles
 SCF Done:  E(RB3LYP) =  -2359.35905360     A.U. after   13 cycles
 SCF Done:  E(RB3LYP) =  -2359.35919378     A.U. after   13 cycles
 SCF Done:  E(RB3LYP) =  -2359.35925868     A.U. after   12 cycles
 SCF Done:  E(RB3LYP) =  -2359.35929374     A.U. after   11 cycles
 SCF Done:  E(RB3LYP) =  -2359.35930922     A.U. after   11 cycles
 SCF Done:  E(RB3LYP) =  -2359.35941113     A.U. after   11 cycles
 SCF Done:  E(RB3LYP) =  -2359.35941528     A.U. after   10 cycles
 SCF Done:  E(RB3LYP) =  -2359.35941937     A.U. after   10 cycles
 SCF Done:  E(RB3LYP) =  -2359.35942034     A.U. after   10 cycles
 SCF Done:  E(RB3LYP) =  -2359.35942225     A.U. after    9 cycles
 SCF Done:  E(RB3LYP) =  -2359.35942453     A.U. after   11 cycles
 SCF Done:  E(RB3LYP) =  -2359.35942499     A.U. after    9 cycles
 SCF Done:  E(RB3LYP) =  -2359.35942586     A.U. after    9 cycles
 SCF Done:  E(RB3LYP) =  -2359.35942598     A.U. after    8 cycles
 SCF Done:  E(RB3LYP) =  -2359.35942602     A.U. after    8 cycles
 Optimization completed.
    -- Stationary point found.

                         Standard orientation:
 ---------------------------------------------------------------------
 Center     Atomic      Atomic             Coordinates (Angstroms)
 Number     Number       Type             X           Y           Z
 ---------------------------------------------------------------------
      1          6           0        3.527861   -2.686015    0.376539
      2          6           0        2.769541   -1.446152    0.075950
      3          6           0        3.418847   -0.190697    0.115067
      4          6           0        4.784618   -0.095692    0.451435
      5          6           0        5.562616   -1.321097    0.767414
      6          6           0        1.424588   -1.517169   -0.193746
      7          6           0        2.673687    0.976949   -0.199606
      8          6           0        1.295632    0.881996   -0.539561
      9          6           0        0.639865   -0.361999   -0.465194
     10          6           0        0.646951    2.091595   -1.108413
     11          6           0        2.608773    3.473669   -0.478993
     12          6           0        3.339170    2.226408   -0.158545
     13          6           0        4.680096    2.299384    0.186326
     14          6           0        5.407145    1.141884    0.488983
     15          1           0        6.454891    1.203635    0.751232
     16          1           0        5.159310    3.269124    0.217135
     17          1           0        0.939326   -2.483059   -0.151002
     18          7           0        1.295042    3.323595   -0.917360
     19          7           0        4.879377   -2.543154    0.698648
     20          8           0        3.016249   -3.794800    0.350142
     21          8           0        6.744315   -1.277104    1.070488
     22          8           0        3.126227    4.578862   -0.393004
     23          8           0       -0.390055    2.060692   -1.751166
     24          6           0        0.575435    4.526023   -1.364344
     25          1           0        0.674312    4.653405   -2.444296
     26          1           0       -0.477050    4.420832   -1.114590
     27          1           0        1.003806    5.384963   -0.857771
     28          6           0        5.614935   -3.782727    0.993920
     29          1           0        5.176831   -4.273829    1.862818
     30          1           0        5.555327   -4.455687    0.139212
     31          1           0        6.648192   -3.522008    1.194848
     32          6           0       -0.804135   -0.581008   -0.543347
     33          6           0       -1.435586   -1.661847   -1.125501
     34         16           0       -1.946259    0.405254    0.334888
     35          6           0       -2.830963   -1.675253   -0.907893
     36          1           0       -0.910375   -2.399872   -1.714356
     37          6           0       -3.293659   -0.627463   -0.111724
     38          8           0       -3.714784   -2.589287   -1.385883
     39          6           0       -4.639523   -0.378532    0.326686
     40          6           0       -3.200597   -3.684724   -2.152762
     41          6           0       -5.096862    0.663321    1.128794
     42         16           0       -5.996632   -1.416842   -0.107443
     43          1           0       -4.063481   -4.291557   -2.418249
     44          1           0       -2.710354   -3.327337   -3.062277
     45          1           0       -2.500830   -4.280400   -1.560502
     46          6           0       -6.497021    0.630963    1.384545
     47          8           0       -4.216853    1.587138    1.589176
     48          6           0       -7.104357   -0.434018    0.781106
     49          1           0       -7.026737    1.356577    1.984080
     50          6           0       -4.723429    2.667268    2.384120
     51          1           0       -8.149928   -0.700850    0.807119
     52          1           0       -5.181324    2.292088    3.302886
     53          1           0       -3.861108    3.282697    2.630794
     54          1           0       -5.448052    3.259186    1.819231
 ---------------------------------------------------------------------

 The electronic state is 1-A.
 Alpha  occ. eigenvalues --  -88.88694 -88.88576 -19.17070 -19.16924 -19.12920
 Alpha  occ. eigenvalues --  -19.12897 -19.12450 -19.12447 -14.38888 -14.38483
 Alpha  occ. eigenvalues --  -10.31491 -10.31334 -10.31131 -10.30957 -10.24951
 Alpha  occ. eigenvalues --  -10.24892 -10.23690 -10.22852 -10.22822 -10.22772
 Alpha  occ. eigenvalues --  -10.22652 -10.22511 -10.22472 -10.22400 -10.22293
 Alpha  occ. eigenvalues --  -10.22269 -10.22088 -10.21956 -10.21569 -10.21103
 Alpha  occ. eigenvalues --  -10.21029 -10.20956 -10.20910 -10.20793 -10.19334
 Alpha  occ. eigenvalues --  -10.18804  -7.97257  -7.97134  -5.93579  -5.93443
 Alpha  occ. eigenvalues --   -5.93189  -5.93057  -5.92793  -5.92702  -1.09001
 Alpha  occ. eigenvalues --   -1.08674  -1.08452  -1.08314  -1.07195  -1.06799
 Alpha  occ. eigenvalues --   -0.96517  -0.96131  -0.92514  -0.90572  -0.88924
 Alpha  occ. eigenvalues --   -0.86745  -0.84339  -0.80617  -0.78524  -0.77677
 Alpha  occ. eigenvalues --   -0.76345  -0.75333  -0.75215  -0.73349  -0.72606
 Alpha  occ. eigenvalues --   -0.71627  -0.70294  -0.68886  -0.67408  -0.66026
 Alpha  occ. eigenvalues --   -0.65498  -0.65045  -0.61149  -0.59972  -0.58720
 Alpha  occ. eigenvalues --   -0.57592  -0.56783  -0.55992  -0.55047  -0.54793
 Alpha  occ. eigenvalues --   -0.53895  -0.51773  -0.50376  -0.50149  -0.49832
 Alpha  occ. eigenvalues --   -0.49623  -0.49210  -0.48607  -0.48306  -0.47991
 Alpha  occ. eigenvalues --   -0.47914  -0.47333  -0.47012  -0.46618  -0.45823
 Alpha  occ. eigenvalues --   -0.45506  -0.45365  -0.45149  -0.44338  -0.43855
 Alpha  occ. eigenvalues --   -0.42883  -0.42613  -0.42199  -0.42092  -0.41918
 Alpha  occ. eigenvalues --   -0.41780  -0.41561  -0.41149  -0.40743  -0.40106
 Alpha  occ. eigenvalues --   -0.39660  -0.39207  -0.38833  -0.37855  -0.37539
 Alpha  occ. eigenvalues --   -0.36401  -0.36079  -0.34298  -0.33988  -0.33821
 Alpha  occ. eigenvalues --   -0.33652  -0.32154  -0.31565  -0.30758  -0.30090
 Alpha  occ. eigenvalues --   -0.29685  -0.29319  -0.29196  -0.28658  -0.27637
 Alpha  occ. eigenvalues --   -0.26210  -0.25211  -0.24769  -0.19612
 Alpha virt. eigenvalues --   -0.13305  -0.07529  -0.06475  -0.04882  -0.04129
 Alpha virt. eigenvalues --   -0.00832  -0.00608   0.00105   0.00331   0.00406
 Alpha virt. eigenvalues --    0.00768   0.01151   0.01248   0.01445   0.02062

 Mulliken charges:
               1
     1  C    0.441129
     2  C   -0.095109
     3  C    0.127661
     4  C    0.255136
     5  C    0.290167
     6  C   -0.170067
     7  C    0.131511
     8  C    0.231906
     9  C    0.303873
    10  C   -0.478192
    11  C    0.347359
    12  C    0.074611
    13  C   -0.482130
    14  C   -0.593354
    15  H    0.165715
    16  H    0.165861
    17  H    0.166373
    18  N    0.021959
    19  N   -0.111913
    20  O   -0.344814
    21  O   -0.334649
    22  O   -0.354318
    23  O   -0.282923
    24  C   -0.204421
    25  H    0.192042
    26  H    0.182454
    27  H    0.181021
    28  C   -0.211875
    29  H    0.185267
    30  H    0.182007
    31  H    0.180313
    32  C    0.220456
    33  C   -0.640049
    34  S   -0.665550
    35  C   -0.096211
    36  H    0.167638
    37  C    0.612641
    38  O   -0.162596
    39  C    0.843915
    40  C   -0.239379
    41  C    0.010663
    42  S   -0.230453
    43  H    0.177728
    44  H    0.163037
    45  H    0.167234
    46  C   -0.618566
    47  O   -0.160325
    48  C   -0.314227
    49  H    0.162917
    50  C   -0.253369
    51  H    0.191235
    52  H    0.162245
    53  H    0.175425
    54  H    0.162991
 Sum of Mulliken charges =  -0.00000

 Dipole moment (field-independent basis, Debye):
    X=             -4.4321    Y=             -0.8800    Z=              1.1583  Tot=              4.6647
 Quadrupole moment (field-independent basis, Debye-Ang):
   XX=           -210.2221   YY=           -218.6152   ZZ=           -214.8391
   XY=            -12.4275   XZ=            -15.5462   YZ=             17.4242

 Normal termination of Gaussian 16 at Thu Oct 28 05:02:48 2021.
