 Gaussian 16, Revision C.01,
 Gaussian 16:  ES64L-G16RevC.01  3-Jul-2019

 ---------------------------------------------------------------
 # opt=modredundant b3lyp/6-311+g(d,p) scrf=(pcm, solvent=water)
 ---------------------------------------------------------------

 -----------
 NDI_120.pdb
 -----------
 Symbolic Z-matrix:
 Charge =  0 Multiplicity = 1

 SCF Done:  E(RB3LYP) =  -2359.35408797     A.U. after   17 cycles
 SCF Done:  E(RB3LYP) =  -2359.35688215     A.U. after   16 cycles
 SCF Done:  E(RB3LYP) =  -2359.35820142     A.U. after   13 cycles
 SCF Done:  E(RB3LYP) =  -2359.35857641     A.U. after   13 cycles
 SCF Done:  E(RB3LYP) =  -2359.35872081     A.U. after   13 cycles
 SCF Done:  E(RB3LYP) =  -2359.35874435     A.U. after   11 cycles
 SCF Done:  E(RB3LYP) =  -2359.35876570     A.U. after   11 cycles
 SCF Done:  E(RB3LYP) =  -2359.35878126     A.U. after   11 cycles
 SCF Done:  E(RB3LYP) =  -2359.35879047     A.U. after   10 cycles
 SCF Done:  E(RB3LYP) =  -2359.35880093     A.U. after   11 cycles
 SCF Done:  E(RB3LYP) =  -2359.35884416     A.U. after   10 cycles
 SCF Done:  E(RB3LYP) =  -2359.35884845     A.U. after   10 cycles
 SCF Done:  E(RB3LYP) =  -2359.35884978     A.U. after   10 cycles
 SCF Done:  E(RB3LYP) =  -2359.35885079     A.U. after   10 cycles
 SCF Done:  E(RB3LYP) =  -2359.35885258     A.U. after   10 cycles
 SCF Done:  E(RB3LYP) =  -2359.35885389     A.U. after   10 cycles
 SCF Done:  E(RB3LYP) =  -2359.35885451     A.U. after    9 cycles
 SCF Done:  E(RB3LYP) =  -2359.35885522     A.U. after   10 cycles
 SCF Done:  E(RB3LYP) =  -2359.35885550     A.U. after    8 cycles
 SCF Done:  E(RB3LYP) =  -2359.35885564     A.U. after    8 cycles
 Optimization completed.
    -- Stationary point found.

                         Standard orientation:
 ---------------------------------------------------------------------
 Center     Atomic      Atomic             Coordinates (Angstroms)
 Number     Number       Type             X           Y           Z
 ---------------------------------------------------------------------
      1          6           0        3.491246   -2.715384    0.442595
      2          6           0        2.752153   -1.464451    0.138137
      3          6           0        3.431198   -0.226611    0.118910
      4          6           0        4.813356   -0.158540    0.399433
      5          6           0        5.573536   -1.395360    0.716830
      6          6           0        1.396795   -1.508125   -0.096435
      7          6           0        2.706110    0.954153   -0.193838
      8          6           0        1.315018    0.886388   -0.479527
      9          6           0        0.643083   -0.339881   -0.376498
     10          6           0        0.642655    2.118733   -0.978042
     11          6           0        2.688582    3.448517   -0.519370
     12          6           0        3.401976    2.187469   -0.206528
     13          6           0        4.756082    2.232849    0.079327
     14          6           0        5.465583    1.061695    0.380128
     15          1           0        6.524432    1.103052    0.598408
     16          1           0        5.261835    3.189363    0.067962
     17          1           0        0.883511   -2.458947   -0.037931
     18          7           0        1.343010    3.329921   -0.862977
     19          7           0        4.857089   -2.599612    0.710817
     20          8           0        2.950918   -3.810166    0.463968
     21          8           0        6.767268   -1.373276    0.969833
     22          8           0        3.244549    4.536741   -0.496001
     23          8           0       -0.462237    2.119730   -1.492606
     24          6           0        0.618598    4.546180   -1.263711
     25          1           0        0.560964    4.614425   -2.351596
     26          1           0       -0.389202    4.509544   -0.857125
     27          1           0        1.156145    5.403525   -0.872422
     28          6           0        5.572060   -3.849949    1.011786
     29          1           0        5.145272   -4.313191    1.901194
     30          1           0        5.475591   -4.538011    0.172494
     31          1           0        6.615832   -3.609144    1.180695
     32          6           0       -0.812524   -0.526551   -0.507162
     33          6           0       -1.467733   -1.302049   -1.429102
     34         16           0       -1.923277    0.184300    0.632690
     35          6           0       -2.875952   -1.303894   -1.244631
     36          1           0       -0.956442   -1.827256   -2.222989
     37          6           0       -3.311420   -0.551612   -0.159855
     38          8           0       -3.785150   -1.961492   -2.012895
     39          6           0       -4.659068   -0.383093    0.322825
     40          6           0       -3.297283   -2.768890   -3.090474
     41          6           0       -5.090928    0.374099    1.404995
     42         16           0       -6.048642   -1.159998   -0.433126
     43          1           0       -4.177744   -3.210131   -3.552715
     44          1           0       -2.765270   -2.158986   -3.825545
     45          1           0       -2.641981   -3.561432   -2.719163
     46          6           0       -6.498609    0.334566    1.621940
     47          8           0       -4.182574    1.062884    2.146230
     48          6           0       -7.138205   -0.452466    0.706824
     49          1           0       -7.010318    0.861666    2.413834
     50          6           0       -4.665996    1.861404    3.232650
     51          1           0       -8.195037   -0.658820    0.633153
     52          1           0       -5.165084    1.240528    3.981352
     53          1           0       -3.786727    2.326898    3.672892
     54          1           0       -5.349838    2.635362    2.874126
 ---------------------------------------------------------------------

 The electronic state is 1-A.
 Alpha  occ. eigenvalues --  -88.88465 -88.88328 -19.16733 -19.16721 -19.13013
 Alpha  occ. eigenvalues --  -19.13003 -19.12718 -19.12685 -14.38978 -14.38685
 Alpha  occ. eigenvalues --  -10.31597 -10.31439 -10.31372 -10.31217 -10.24597
 Alpha  occ. eigenvalues --  -10.24508 -10.23695 -10.23009 -10.22961 -10.22741
 Alpha  occ. eigenvalues --  -10.22724 -10.22713 -10.22488 -10.22475 -10.22387
 Alpha  occ. eigenvalues --  -10.22124 -10.22013 -10.21666 -10.21620 -10.21358
 Alpha  occ. eigenvalues --  -10.21305 -10.20956 -10.20852 -10.20610 -10.18927
 Alpha  occ. eigenvalues --  -10.18586  -7.97022  -7.96888  -5.93346  -5.93197
 Alpha  occ. eigenvalues --   -5.92959  -5.92811  -5.92558  -5.92457  -1.09105
 Alpha  occ. eigenvalues --   -1.08932  -1.08112  -1.08030  -1.07302  -1.07078
 Alpha  occ. eigenvalues --   -0.96629  -0.96327  -0.92707  -0.90296  -0.88705
 Alpha  occ. eigenvalues --   -0.86844  -0.84538  -0.80522  -0.78687  -0.77532
 Alpha  occ. eigenvalues --   -0.76125  -0.75397  -0.74968  -0.73138  -0.72683
 Alpha  occ. eigenvalues --   -0.71723  -0.70067  -0.68785  -0.67550  -0.66166
 Alpha  occ. eigenvalues --   -0.65618  -0.65117  -0.61057  -0.59810  -0.58695
 Alpha  occ. eigenvalues --   -0.57692  -0.56696  -0.55745  -0.55258  -0.54516
 Alpha  occ. eigenvalues --   -0.53903  -0.51919  -0.50451  -0.50235  -0.49948
 Alpha  occ. eigenvalues --   -0.49555  -0.49303  -0.48678  -0.48134  -0.47827
 Alpha  occ. eigenvalues --   -0.47736  -0.47525  -0.47042  -0.46785  -0.45844
 Alpha  occ. eigenvalues --   -0.45471  -0.45379  -0.45105  -0.44369  -0.43985
 Alpha  occ. eigenvalues --   -0.42948  -0.42705  -0.42321  -0.42022  -0.41789
 Alpha  occ. eigenvalues --   -0.41676  -0.41434  -0.41218  -0.40754  -0.40147
 Alpha  occ. eigenvalues --   -0.39753  -0.39099  -0.38676  -0.37845  -0.37483
 Alpha  occ. eigenvalues --   -0.36148  -0.35786  -0.34180  -0.33731  -0.33710
 Alpha  occ. eigenvalues --   -0.33490  -0.32396  -0.31677  -0.30829  -0.30020
 Alpha  occ. eigenvalues --   -0.29718  -0.29420  -0.29220  -0.28603  -0.27839
 Alpha  occ. eigenvalues --   -0.26416  -0.25051  -0.24652  -0.19434
 Alpha virt. eigenvalues --   -0.13421  -0.07144  -0.06292  -0.05056  -0.04557
 Alpha virt. eigenvalues --   -0.00811  -0.00619   0.00111   0.00405   0.00507
 Alpha virt. eigenvalues --    0.00733   0.00971   0.01153   0.01237   0.02116

 Mulliken charges:
               1
     1  C    0.452002
     2  C   -0.065808
     3  C    0.155617
     4  C    0.218834
     5  C    0.306233
     6  C   -0.401289
     7  C    0.169687
     8  C    0.089988
     9  C    0.331576
    10  C   -0.378705
    11  C    0.323364
    12  C    0.124751
    13  C   -0.460012
    14  C   -0.641273
    15  H    0.167486
    16  H    0.167603
    17  H    0.161517
    18  N   -0.027785
    19  N   -0.108779
    20  O   -0.339822
    21  O   -0.334288
    22  O   -0.345746
    23  O   -0.246256
    24  C   -0.198798
    25  H    0.192554
    26  H    0.182462
    27  H    0.181298
    28  C   -0.215029
    29  H    0.185098
    30  H    0.183189
    31  H    0.180936
    32  C    0.368986
    33  C   -0.486177
    34  S   -0.441105
    35  C   -0.171570
    36  H    0.156073
    37  C    0.373381
    38  O   -0.161150
    39  C    0.792989
    40  C   -0.236543
    41  C    0.024179
    42  S   -0.249215
    43  H    0.176163
    44  H    0.163855
    45  H    0.165146
    46  C   -0.572056
    47  O   -0.169833
    48  C   -0.338149
    49  H    0.161025
    50  C   -0.249610
    51  H    0.188527
    52  H    0.160274
    53  H    0.173605
    54  H    0.160598
 Sum of Mulliken charges =  -0.00000

 Dipole moment (field-independent basis, Debye):
    X=             -2.0624    Y=             -0.3322    Z=              0.6310  Tot=              2.1822
 Quadrupole moment (field-independent basis, Debye-Ang):
   XX=           -215.4951   YY=           -227.6548   ZZ=           -203.2775
   XY=             -9.1812   XZ=            -15.0089   YZ=             17.6611

 Normal termination of Gaussian 16 at Thu Oct 28 03:43:47 2021.
