 Gaussian 16, Revision C.01,
 Gaussian 16:  ES64L-G16RevC.01  3-Jul-2019

 ---------------------------------------------------------------
 # opt=modredundant b3lyp/6-311+g(d,p) scrf=(pcm, solvent=water)
 ---------------------------------------------------------------

 ------------
 NDI_-125.pdb
 ------------
 Symbolic Z-matrix:
 Charge =  0 Multiplicity = 1

 SCF Done:  E(RB3LYP) =  -2359.35010481     A.U. after   17 cycles
 SCF Done:  E(RB3LYP) =  -2359.35335493     A.U. after   18 cycles
 SCF Done:  E(RB3LYP) =  -2359.35707446     A.U. after   16 cycles
 SCF Done:  E(RB3LYP) =  -2359.35761398     A.U. after   14 cycles
 SCF Done:  E(RB3LYP) =  -2359.35848905     A.U. after   15 cycles
 SCF Done:  E(RB3LYP) =  -2359.35880466     A.U. after   13 cycles
 SCF Done:  E(RB3LYP) =  -2359.35892386     A.U. after   12 cycles
 SCF Done:  E(RB3LYP) =  -2359.35897678     A.U. after   12 cycles
 SCF Done:  E(RB3LYP) =  -2359.35900108     A.U. after   11 cycles
 SCF Done:  E(RB3LYP) =  -2359.35901993     A.U. after   11 cycles
 SCF Done:  E(RB3LYP) =  -2359.35911492     A.U. after   10 cycles
 SCF Done:  E(RB3LYP) =  -2359.35911746     A.U. after    9 cycles
 SCF Done:  E(RB3LYP) =  -2359.35912077     A.U. after    9 cycles
 SCF Done:  E(RB3LYP) =  -2359.35912489     A.U. after   10 cycles
 SCF Done:  E(RB3LYP) =  -2359.35912645     A.U. after   11 cycles
 SCF Done:  E(RB3LYP) =  -2359.35912730     A.U. after    9 cycles
 SCF Done:  E(RB3LYP) =  -2359.35912744     A.U. after    9 cycles
 SCF Done:  E(RB3LYP) =  -2359.35912747     A.U. after    8 cycles
 SCF Done:  E(RB3LYP) =  -2359.35912749     A.U. after    7 cycles
 SCF Done:  E(RB3LYP) =  -2359.35912750     A.U. after    7 cycles
 Optimization completed.
    -- Stationary point found.

                         Standard orientation:
 ---------------------------------------------------------------------
 Center     Atomic      Atomic             Coordinates (Angstroms)
 Number     Number       Type             X           Y           Z
 ---------------------------------------------------------------------
      1          6           0       -3.509756   -2.701499    0.454204
      2          6           0       -2.761365   -1.458712    0.139916
      3          6           0       -3.429761   -0.214555    0.120140
      4          6           0       -4.808656   -0.132401    0.410644
      5          6           0       -5.577635   -1.360813    0.738862
      6          6           0       -1.407655   -1.515345   -0.098913
      7          6           0       -2.696146    0.957681   -0.204474
      8          6           0       -1.307909    0.875808   -0.500446
      9          6           0       -0.643699   -0.354842   -0.387009
     10          6           0       -0.636963    2.093412   -1.033663
     11          6           0       -2.657697    3.449071   -0.544171
     12          6           0       -3.380756    2.197206   -0.218325
     13          6           0       -4.732194    2.256802    0.078951
     14          6           0       -5.450023    1.094080    0.390965
     15          1           0       -6.506676    1.146096    0.617386
     16          1           0       -5.228829    3.218106    0.067288
     17          1           0       -0.902497   -2.470069   -0.033340
     18          7           0       -1.319019    3.314299   -0.907607
     19          7           0       -4.872660   -2.571935    0.731085
     20          8           0       -2.979691   -3.801347    0.476226
     21          8           0       -6.769054   -1.326853    1.001560
     22          8           0       -3.200328    4.544169   -0.517363
     23          8           0        0.448859    2.074282   -1.587594
     24          6           0       -0.592491    4.521296   -1.331411
     25          1           0        0.436267    4.453999   -0.986814
     26          1           0       -0.598537    4.609215   -2.419603
     27          1           0       -1.085443    5.383657   -0.894548
     28          6           0       -5.597103   -3.814497    1.041389
     29          1           0       -5.509283   -4.507794    0.205493
     30          1           0       -5.171191   -4.276746    1.931782
     31          1           0       -6.638185   -3.563950    1.212703
     32          6           0        0.809246   -0.551948   -0.501373
     33          6           0        1.461686   -1.408310   -1.353429
     34         16           0        1.924300    0.239575    0.580469
     35          6           0        2.867969   -1.406574   -1.165716
     36          1           0        0.948507   -1.993562   -2.102883
     37          6           0        3.306935   -0.571941   -0.143054
     38          8           0        3.774159   -2.130620   -1.874872
     39          6           0        4.654145   -0.377114    0.328317
     40          6           0        3.282831   -3.018031   -2.886182
     41          6           0        5.088579    0.454456    1.353945
     42         16           0        6.040433   -1.214743   -0.366513
     43          1           0        4.161002   -3.501928   -3.308282
     44          1           0        2.619860   -3.772817   -2.454726
     45          1           0        2.758140   -2.464507   -3.669576
     46          6           0        6.495528    0.423246    1.575485
     47          8           0        4.182999    1.199220    2.041345
     48          6           0        7.131717   -0.431890    0.720977
     49          1           0        7.009123    1.003359    2.328089
     50          6           0        4.668123    2.069022    3.071176
     51          1           0        8.187449   -0.649206    0.664930
     52          1           0        5.358734    2.811007    2.661831
     53          1           0        3.790471    2.570202    3.473767
     54          1           0        5.159859    1.498630    3.863609
 ---------------------------------------------------------------------

 The electronic state is 1-A.
 Alpha  occ. eigenvalues --  -88.88519 -88.88378 -19.16803 -19.16772 -19.12994
 Alpha  occ. eigenvalues --  -19.12980 -19.12677 -19.12640 -14.38959 -14.38643
 Alpha  occ. eigenvalues --  -10.31576 -10.31417 -10.31334 -10.31162 -10.24668
 Alpha  occ. eigenvalues --  -10.24595 -10.23680 -10.22942 -10.22882 -10.22748
 Alpha  occ. eigenvalues --  -10.22742 -10.22688 -10.22450 -10.22435 -10.22329
 Alpha  occ. eigenvalues --  -10.22181 -10.22147 -10.21724 -10.21614 -10.21307
 Alpha  occ. eigenvalues --  -10.21255 -10.20946 -10.20848 -10.20678 -10.19016
 Alpha  occ. eigenvalues --  -10.18629  -7.97078  -7.96938  -5.93401  -5.93247
 Alpha  occ. eigenvalues --   -5.93014  -5.92861  -5.92613  -5.92507  -1.09083
 Alpha  occ. eigenvalues --   -1.08883  -1.08179  -1.08097  -1.07280  -1.07025
 Alpha  occ. eigenvalues --   -0.96605  -0.96291  -0.92670  -0.90358  -0.88751
 Alpha  occ. eigenvalues --   -0.86828  -0.84500  -0.80542  -0.78655  -0.77565
 Alpha  occ. eigenvalues --   -0.76173  -0.75376  -0.75030  -0.73183  -0.72671
 Alpha  occ. eigenvalues --   -0.71704  -0.70117  -0.68807  -0.67522  -0.66138
 Alpha  occ. eigenvalues --   -0.65590  -0.65105  -0.61077  -0.59843  -0.58704
 Alpha  occ. eigenvalues --   -0.57673  -0.56721  -0.55797  -0.55211  -0.54575
 Alpha  occ. eigenvalues --   -0.53904  -0.51890  -0.50436  -0.50212  -0.49926
 Alpha  occ. eigenvalues --   -0.49586  -0.49285  -0.48661  -0.48167  -0.47861
 Alpha  occ. eigenvalues --   -0.47773  -0.47490  -0.47040  -0.46752  -0.45834
 Alpha  occ. eigenvalues --   -0.45487  -0.45383  -0.45123  -0.44364  -0.43961
 Alpha  occ. eigenvalues --   -0.42936  -0.42679  -0.42274  -0.42051  -0.41799
 Alpha  occ. eigenvalues --   -0.41717  -0.41479  -0.41202  -0.40754  -0.40144
 Alpha  occ. eigenvalues --   -0.39725  -0.39123  -0.38710  -0.37848  -0.37516
 Alpha  occ. eigenvalues --   -0.36207  -0.35838  -0.34202  -0.33785  -0.33741
 Alpha  occ. eigenvalues --   -0.33534  -0.32345  -0.31662  -0.30819  -0.30018
 Alpha  occ. eigenvalues --   -0.29710  -0.29374  -0.29236  -0.28635  -0.27804
 Alpha  occ. eigenvalues --   -0.26366  -0.25092  -0.24686  -0.19475
 Alpha virt. eigenvalues --   -0.13395  -0.07194  -0.06360  -0.05022  -0.04460
 Alpha virt. eigenvalues --   -0.00837  -0.00619   0.00107   0.00394   0.00482
 Alpha virt. eigenvalues --    0.00733   0.01006   0.01187   0.01254   0.02110

 Mulliken charges:
               1
     1  C    0.451905
     2  C   -0.085742
     3  C    0.143298
     4  C    0.225245
     5  C    0.303107
     6  C   -0.362775
     7  C    0.157600
     8  C    0.132557
     9  C    0.333855
    10  C   -0.409605
    11  C    0.322209
    12  C    0.107790
    13  C   -0.452434
    14  C   -0.629349
    15  H    0.167132
    16  H    0.167236
    17  H    0.162319
    18  N   -0.009951
    19  N   -0.109188
    20  O   -0.340838
    21  O   -0.334569
    22  O   -0.348088
    23  O   -0.256602
    24  C   -0.197503
    25  H    0.182316
    26  H    0.192832
    27  H    0.181216
    28  C   -0.214470
    29  H    0.182876
    30  H    0.185190
    31  H    0.180805
    32  C    0.367078
    33  C   -0.522267
    34  S   -0.491942
    35  C   -0.153904
    36  H    0.159276
    37  C    0.410390
    38  O   -0.161006
    39  C    0.803455
    40  C   -0.237007
    41  C    0.026600
    42  S   -0.245763
    43  H    0.176489
    44  H    0.165567
    45  H    0.163906
    46  C   -0.583078
    47  O   -0.167975
    48  C   -0.333960
    49  H    0.161427
    50  C   -0.250547
    51  H    0.189053
    52  H    0.161066
    53  H    0.174017
    54  H    0.160750
 Sum of Mulliken charges =  -0.00000

 Dipole moment (field-independent basis, Debye):
    X=              2.5522    Y=             -0.4412    Z=              0.7711  Tot=              2.7024
 Quadrupole moment (field-independent basis, Debye-Ang):
   XX=           -214.4252   YY=           -225.4760   ZZ=           -206.0054
   XY=              9.9789   XZ=             15.1129   YZ=             18.3853

 Normal termination of Gaussian 16 at Wed Oct 27 19:45:56 2021.
