 Gaussian 16, Revision C.01,
 Gaussian 16:  ES64L-G16RevC.01  3-Jul-2019

 ---------------------------------------------------------------
 # opt=modredundant b3lyp/6-311+g(d,p) scrf=(pcm, solvent=water)
 ---------------------------------------------------------------

 -----------
 NDI_-95.pdb
 -----------
 Symbolic Z-matrix:
 Charge =  0 Multiplicity = 1

 SCF Done:  E(RB3LYP) =  -2359.35291969     A.U. after   17 cycles
 SCF Done:  E(RB3LYP) =  -2359.35693523     A.U. after   15 cycles
 SCF Done:  E(RB3LYP) =  -2359.35730566     A.U. after   12 cycles
 SCF Done:  E(RB3LYP) =  -2359.35735162     A.U. after   13 cycles
 SCF Done:  E(RB3LYP) =  -2359.35747901     A.U. after   12 cycles
 SCF Done:  E(RB3LYP) =  -2359.35748806     A.U. after   12 cycles
 SCF Done:  E(RB3LYP) =  -2359.35750355     A.U. after   11 cycles
 SCF Done:  E(RB3LYP) =  -2359.35750857     A.U. after   11 cycles
 SCF Done:  E(RB3LYP) =  -2359.35751361     A.U. after   10 cycles
 SCF Done:  E(RB3LYP) =  -2359.35751872     A.U. after   10 cycles
 SCF Done:  E(RB3LYP) =  -2359.35752125     A.U. after   10 cycles
 SCF Done:  E(RB3LYP) =  -2359.35752425     A.U. after   10 cycles
 SCF Done:  E(RB3LYP) =  -2359.35752556     A.U. after   10 cycles
 SCF Done:  E(RB3LYP) =  -2359.35752590     A.U. after    9 cycles
 SCF Done:  E(RB3LYP) =  -2359.35752595     A.U. after    9 cycles
 SCF Done:  E(RB3LYP) =  -2359.35752587     A.U. after    9 cycles
 SCF Done:  E(RB3LYP) =  -2359.35752587     A.U. after    8 cycles
 Optimization completed.
    -- Stationary point found.

                         Standard orientation:
 ---------------------------------------------------------------------
 Center     Atomic      Atomic             Coordinates (Angstroms)
 Number     Number       Type             X           Y           Z
 ---------------------------------------------------------------------
      1          6           0        3.247479   -2.849625    0.121960
      2          6           0        2.621993   -1.502934    0.135510
      3          6           0        3.412931   -0.351201   -0.055159
      4          6           0        4.806428   -0.462121   -0.264074
      5          6           0        5.456046   -1.799008   -0.286777
      6          6           0        1.264820   -1.378095    0.333942
      7          6           0        2.792638    0.926540   -0.033449
      8          6           0        1.390539    1.038120    0.173844
      9          6           0        0.622441   -0.116608    0.355381
     10          6           0        0.782050    2.400768    0.201041
     11          6           0        3.008776    3.429838   -0.203007
     12          6           0        3.604312    2.071670   -0.222000
     13          6           0        4.966519    1.940496   -0.425488
     14          6           0        5.571104    0.674520   -0.447697
     15          1           0        6.637050    0.579474   -0.607168
     16          1           0        5.562888    2.832014   -0.567536
     17          1           0        0.669315   -2.270153    0.476958
     18          7           0        1.633042    3.499700    0.012091
     19          7           0        4.626609   -2.910446   -0.088475
     20          8           0        2.603977   -3.873970    0.285420
     21          8           0        6.655513   -1.930845   -0.467705
     22          8           0        3.681579    4.436464   -0.364551
     23          8           0       -0.405958    2.601078    0.379098
     24          6           0        0.991383    4.823767    0.047937
     25          1           0        0.241467    4.891163   -0.739778
     26          1           0        0.505530    4.970658    1.012037
     27          1           0        1.760434    5.573277   -0.102350
     28          6           0        5.226901   -4.253929   -0.099486
     29          1           0        5.047911   -4.743436    0.857479
     30          1           0        4.776950   -4.850396   -0.892721
     31          1           0        6.292152   -4.145910   -0.271106
     32          6           0       -0.843048   -0.137434    0.582848
     33          6           0       -1.499198   -0.185392    1.780185
     34         16           0       -1.946191   -0.243721   -0.759893
     35          6           0       -2.912872   -0.278647    1.627549
     36          1           0       -0.989785   -0.139700    2.731747
     37          6           0       -3.344634   -0.322208    0.310966
     38          8           0       -3.823910   -0.332235    2.638041
     39          6           0       -4.696224   -0.425301   -0.186561
     40          6           0       -3.339739   -0.273157    3.984121
     41          6           0       -5.120874   -0.482383   -1.506741
     42         16           0       -6.099338   -0.493847    0.876964
     43          1           0       -4.221577   -0.324542    4.619354
     44          1           0       -2.683065   -1.119979    4.201454
     45          1           0       -2.810161    0.665481    4.168760
     46          6           0       -6.534581   -0.577782   -1.663888
     47          8           0       -4.201309   -0.446410   -2.510899
     48          6           0       -7.186728   -0.593440   -0.464071
     49          1           0       -7.041175   -0.632376   -2.616409
     50          6           0       -4.677641   -0.494280   -3.860023
     51          1           0       -8.249189   -0.659270   -0.286284
     52          1           0       -5.324459    0.360156   -4.077137
     53          1           0       -3.791589   -0.449395   -4.489920
     54          1           0       -5.215854   -1.426476   -4.052264
 ---------------------------------------------------------------------

 The electronic state is 1-A.
 Alpha  occ. eigenvalues --  -88.88331 -88.88157 -19.16536 -19.16500 -19.13097
 Alpha  occ. eigenvalues --  -19.13096 -19.12857 -19.12852 -14.39059 -14.38851
 Alpha  occ. eigenvalues --  -10.31691 -10.31529 -10.31522 -10.31422 -10.24321
 Alpha  occ. eigenvalues --  -10.24202 -10.23792 -10.23376 -10.23149 -10.22940
 Alpha  occ. eigenvalues --  -10.22642 -10.22640 -10.22636 -10.22615 -10.22608
 Alpha  occ. eigenvalues --  -10.21930 -10.21674 -10.21562 -10.21543 -10.21486
 Alpha  occ. eigenvalues --  -10.21465 -10.20997 -10.20869 -10.20371 -10.18581
 Alpha  occ. eigenvalues --  -10.18434  -7.96881  -7.96718  -5.93205  -5.93027
 Alpha  occ. eigenvalues --   -5.92817  -5.92642  -5.92419  -5.92288  -1.09203
 Alpha  occ. eigenvalues --   -1.09113  -1.07874  -1.07781  -1.07401  -1.07273
 Alpha  occ. eigenvalues --   -0.96733  -0.96461  -0.92866  -0.90096  -0.88564
 Alpha  occ. eigenvalues --   -0.86907  -0.84694  -0.80475  -0.78824  -0.77421
 Alpha  occ. eigenvalues --   -0.75957  -0.75489  -0.74747  -0.73010  -0.72684
 Alpha  occ. eigenvalues --   -0.71835  -0.69883  -0.68724  -0.67658  -0.66281
 Alpha  occ. eigenvalues --   -0.65763  -0.65151  -0.61020  -0.59706  -0.58666
 Alpha  occ. eigenvalues --   -0.57769  -0.56577  -0.55571  -0.55519  -0.54304
 Alpha  occ. eigenvalues --   -0.53874  -0.52040  -0.50518  -0.50348  -0.50040
 Alpha  occ. eigenvalues --   -0.49444  -0.49331  -0.48755  -0.48057  -0.47771
 Alpha  occ. eigenvalues --   -0.47636  -0.47545  -0.47045  -0.46919  -0.45914
 Alpha  occ. eigenvalues --   -0.45429  -0.45304  -0.45048  -0.44401  -0.44047
 Alpha  occ. eigenvalues --   -0.42981  -0.42872  -0.42505  -0.41932  -0.41792
 Alpha  occ. eigenvalues --   -0.41449  -0.41303  -0.41282  -0.40771  -0.40166
 Alpha  occ. eigenvalues --   -0.39883  -0.39019  -0.38596  -0.37878  -0.37316
 Alpha  occ. eigenvalues --   -0.35932  -0.35643  -0.34068  -0.33650  -0.33519
 Alpha  occ. eigenvalues --   -0.33361  -0.32606  -0.31739  -0.30857  -0.30081
 Alpha  occ. eigenvalues --   -0.29779  -0.29632  -0.29217  -0.28536  -0.27845
 Alpha  occ. eigenvalues --   -0.26626  -0.24877  -0.24558  -0.19273
 Alpha virt. eigenvalues --   -0.13524  -0.07088  -0.05856  -0.05180  -0.05072
 Alpha virt. eigenvalues --   -0.00647  -0.00594   0.00110   0.00434   0.00611
 Alpha virt. eigenvalues --    0.00695   0.00859   0.00902   0.01277   0.02113

 Mulliken charges:
               1
     1  C    0.448935
     2  C    0.069319
     3  C    0.250144
     4  C    0.215521
     5  C    0.318867
     6  C   -0.606884
     7  C    0.213242
     8  C   -0.018160
     9  C    0.539098
    10  C   -0.344800
    11  C    0.254907
    12  C    0.226286
    13  C   -0.555875
    14  C   -0.666188
    15  H    0.168791
    16  H    0.168924
    17  H    0.161342
    18  N   -0.127738
    19  N   -0.111936
    20  O   -0.335267
    21  O   -0.330796
    22  O   -0.332801
    23  O   -0.178380
    24  C   -0.230481
    25  H    0.186429
    26  H    0.184715
    27  H    0.181654
    28  C   -0.215898
    29  H    0.184407
    30  H    0.184384
    31  H    0.180734
    32  C    0.137111
    33  C   -0.438336
    34  S   -0.128392
    35  C   -0.118382
    36  H    0.146567
    37  C    0.205118
    38  O   -0.171407
    39  C    0.722139
    40  C   -0.235576
    41  C    0.053656
    42  S   -0.256429
    43  H    0.175631
    44  H    0.162325
    45  H    0.164617
    46  C   -0.540993
    47  O   -0.180743
    48  C   -0.370843
    49  H    0.159584
    50  C   -0.246037
    51  H    0.186779
    52  H    0.159760
    53  H    0.172565
    54  H    0.158791
 Sum of Mulliken charges =  -0.00000

 Dipole moment (field-independent basis, Debye):
    X=             -0.2346    Y=             -0.0213    Z=              0.0433  Tot=              0.2395
 Quadrupole moment (field-independent basis, Debye-Ang):
   XX=           -220.0270   YY=           -237.6529   ZZ=           -190.3994
   XY=             -1.4157   XZ=             14.2073   YZ=              2.6158

 Normal termination of Gaussian 16 at Wed Oct 27 18:53:14 2021.
