 Gaussian 16, Revision C.01,
 Gaussian 16:  ES64L-G16RevC.01  3-Jul-2019

 ---------------------------------------------------------------
 # opt=modredundant b3lyp/6-311+g(d,p) scrf=(pcm, solvent=water)
 ---------------------------------------------------------------

 ----------
 NDI_80.pdb
 ----------
 Symbolic Z-matrix:
 Charge =  0 Multiplicity = 1

 SCF Done:  E(RB3LYP) =  -2359.35215451     A.U. after   17 cycles
 SCF Done:  E(RB3LYP) =  -2359.35615103     A.U. after   15 cycles
 SCF Done:  E(RB3LYP) =  -2359.35723952     A.U. after   15 cycles
 SCF Done:  E(RB3LYP) =  -2359.35751420     A.U. after   13 cycles
 SCF Done:  E(RB3LYP) =  -2359.35770715     A.U. after   12 cycles
 SCF Done:  E(RB3LYP) =  -2359.35778269     A.U. after   12 cycles
 SCF Done:  E(RB3LYP) =  -2359.35782685     A.U. after   11 cycles
 SCF Done:  E(RB3LYP) =  -2359.35784763     A.U. after   11 cycles
 SCF Done:  E(RB3LYP) =  -2359.35786111     A.U. after   10 cycles
 SCF Done:  E(RB3LYP) =  -2359.35787325     A.U. after   11 cycles
 SCF Done:  E(RB3LYP) =  -2359.35790350     A.U. after   10 cycles
 SCF Done:  E(RB3LYP) =  -2359.35790471     A.U. after    9 cycles
 SCF Done:  E(RB3LYP) =  -2359.35790507     A.U. after    9 cycles
 SCF Done:  E(RB3LYP) =  -2359.35790562     A.U. after    9 cycles
 SCF Done:  E(RB3LYP) =  -2359.35790640     A.U. after    9 cycles
 SCF Done:  E(RB3LYP) =  -2359.35790754     A.U. after    9 cycles
 SCF Done:  E(RB3LYP) =  -2359.35790825     A.U. after   10 cycles
 SCF Done:  E(RB3LYP) =  -2359.35790854     A.U. after    9 cycles
 SCF Done:  E(RB3LYP) =  -2359.35790867     A.U. after    9 cycles
 SCF Done:  E(RB3LYP) =  -2359.35790870     A.U. after    7 cycles
 Optimization completed.
    -- Stationary point found.

                         Standard orientation:
 ---------------------------------------------------------------------
 Center     Atomic      Atomic             Coordinates (Angstroms)
 Number     Number       Type             X           Y           Z
 ---------------------------------------------------------------------
      1          6           0       -3.078449   -2.870124    0.474971
      2          6           0       -2.529563   -1.502762    0.291280
      3          6           0       -3.393439   -0.423433    0.010061
      4          6           0       -4.787849   -0.626202   -0.095381
      5          6           0       -5.362499   -1.984707    0.088213
      6          6           0       -1.175154   -1.285058    0.411153
      7          6           0       -2.844413    0.874359   -0.168855
      8          6           0       -1.441258    1.078203   -0.064813
      9          6           0       -0.606309    0.003195    0.259843
     10          6           0       -0.899990    2.439112   -0.350295
     11          6           0       -3.206266    3.322174   -0.630757
     12          6           0       -3.727410    1.946365   -0.445411
     13          6           0       -5.090340    1.726281   -0.541665
     14          6           0       -5.623926    0.440518   -0.368883
     15          1           0       -6.690249    0.274817   -0.447012
     16          1           0       -5.742503    2.563701   -0.751706
     17          1           0       -0.527802   -2.119215    0.648200
     18          7           0       -1.822810    3.476290   -0.554212
     19          7           0       -4.462150   -3.022346    0.363031
     20          8           0       -2.370585   -3.835461    0.714650
     21          8           0       -6.561564   -2.195358    0.004712
     22          8           0       -3.942381    4.273134   -0.846185
     23          8           0        0.290246    2.686668   -0.425665
     24          6           0       -1.252791    4.814724   -0.776122
     25          1           0       -0.545232    5.041933    0.019083
     26          1           0       -0.731831    4.846722   -1.733861
     27          1           0       -2.067017    5.531136   -0.774431
     28          6           0       -4.986766   -4.384373    0.549830
     29          1           0       -4.565298   -5.047565   -0.205356
     30          1           0       -4.710533   -4.751071    1.537954
     31          1           0       -6.066120   -4.346151    0.452658
     32          6           0        0.853339    0.109287    0.483106
     33          6           0        1.494980    0.534261    1.613327
     34         16           0        1.974843   -0.516441   -0.693740
     35          6           0        2.908228    0.389199    1.530121
     36          1           0        0.972338    0.940053    2.467243
     37          6           0        3.358368   -0.161756    0.339039
     38          8           0        3.805556    0.729166    2.495527
     39          6           0        4.717736   -0.419047   -0.071107
     40          6           0        3.309617    1.353899    3.684636
     41          6           0        5.160163   -0.996329   -1.253809
     42         16           0        6.109068   -0.002523    0.926631
     43          1           0        4.183827    1.559129    4.298965
     44          1           0        2.798378    2.291358    3.449551
     45          1           0        2.632886    0.686107    4.224590
     46          6           0        6.577693   -1.102264   -1.359398
     47          8           0        4.252342   -1.399663   -2.184722
     48          6           0        7.214767   -0.605920   -0.257939
     49          1           0        7.097541   -1.525348   -2.206562
     50          6           0        4.745144   -1.987984   -3.393436
     51          1           0        8.276298   -0.562765   -0.067925
     52          1           0        5.306493   -2.902274   -3.182707
     53          1           0        3.865560   -2.229377   -3.986603
     54          1           0        5.374825   -1.282983   -3.942862
 ---------------------------------------------------------------------

 The electronic state is 1-A.
 Alpha  occ. eigenvalues --  -88.88459 -88.88207 -19.16579 -19.16569 -19.13064
 Alpha  occ. eigenvalues --  -19.13062 -19.12803 -19.12795 -14.39027 -14.38792
 Alpha  occ. eigenvalues --  -10.31655 -10.31496 -10.31475 -10.31356 -10.24397
 Alpha  occ. eigenvalues --  -10.24293 -10.23761 -10.23247 -10.23079 -10.22870
 Alpha  occ. eigenvalues --  -10.22658 -10.22641 -10.22594 -10.22580 -10.22533
 Alpha  occ. eigenvalues --  -10.21984 -10.21679 -10.21670 -10.21529 -10.21492
 Alpha  occ. eigenvalues --  -10.21427 -10.20980 -10.20859 -10.20444 -10.18642
 Alpha  occ. eigenvalues --  -10.18482  -7.97008  -7.96768  -5.93331  -5.93077
 Alpha  occ. eigenvalues --   -5.92943  -5.92692  -5.92549  -5.92338  -1.09166
 Alpha  occ. eigenvalues --   -1.09047  -1.07938  -1.07853  -1.07364  -1.07205
 Alpha  occ. eigenvalues --   -0.96692  -0.96408  -0.92811  -0.90170  -0.88609
 Alpha  occ. eigenvalues --   -0.86886  -0.84637  -0.80475  -0.78778  -0.77459
 Alpha  occ. eigenvalues --   -0.76007  -0.75455  -0.74823  -0.73028  -0.72633
 Alpha  occ. eigenvalues --   -0.71879  -0.69901  -0.68746  -0.67623  -0.66233
 Alpha  occ. eigenvalues --   -0.65745  -0.65099  -0.61056  -0.59720  -0.58669
 Alpha  occ. eigenvalues --   -0.57722  -0.56550  -0.55645  -0.55585  -0.54344
 Alpha  occ. eigenvalues --   -0.53797  -0.52006  -0.50485  -0.50303  -0.50015
 Alpha  occ. eigenvalues --   -0.49489  -0.49303  -0.48735  -0.48057  -0.47772
 Alpha  occ. eigenvalues --   -0.47662  -0.47551  -0.47037  -0.46871  -0.45887
 Alpha  occ. eigenvalues --   -0.45500  -0.45231  -0.45070  -0.44353  -0.44010
 Alpha  occ. eigenvalues --   -0.42911  -0.42899  -0.42452  -0.41952  -0.41816
 Alpha  occ. eigenvalues --   -0.41477  -0.41330  -0.41271  -0.40764  -0.40126
 Alpha  occ. eigenvalues --   -0.39860  -0.39079  -0.38692  -0.37844  -0.37360
 Alpha  occ. eigenvalues --   -0.35983  -0.35629  -0.34138  -0.33717  -0.33563
 Alpha  occ. eigenvalues --   -0.33384  -0.32539  -0.31727  -0.30857  -0.30043
 Alpha  occ. eigenvalues --   -0.29776  -0.29580  -0.29243  -0.28579  -0.27757
 Alpha  occ. eigenvalues --   -0.26547  -0.24902  -0.24633  -0.19321
 Alpha virt. eigenvalues --   -0.13480  -0.07080  -0.05943  -0.05134  -0.04998
 Alpha virt. eigenvalues --   -0.00640  -0.00599   0.00082   0.00494   0.00573
 Alpha virt. eigenvalues --    0.00729   0.00825   0.00894   0.01346   0.02131

 Mulliken charges:
               1
     1  C    0.463156
     2  C   -0.015053
     3  C    0.209331
     4  C    0.205421
     5  C    0.305342
     6  C   -0.535120
     7  C    0.198905
     8  C    0.120065
     9  C    0.599783
    10  C   -0.431138
    11  C    0.250887
    12  C    0.184890
    13  C   -0.504316
    14  C   -0.653317
    15  H    0.168210
    16  H    0.168250
    17  H    0.165325
    18  N   -0.110175
    19  N   -0.113214
    20  O   -0.337249
    21  O   -0.331137
    22  O   -0.337226
    23  O   -0.178988
    24  C   -0.226461
    25  H    0.182319
    26  H    0.190377
    27  H    0.181338
    28  C   -0.214761
    29  H    0.184619
    30  H    0.183754
    31  H    0.180533
    32  C    0.152061
    33  C   -0.516191
    34  S   -0.241480
    35  C   -0.156503
    36  H    0.150132
    37  C    0.370859
    38  O   -0.171782
    39  C    0.714252
    40  C   -0.236199
    41  C    0.016835
    42  S   -0.253946
    43  H    0.175470
    44  H    0.165730
    45  H    0.161029
    46  C   -0.543026
    47  O   -0.173998
    48  C   -0.359442
    49  H    0.160131
    50  C   -0.247821
    51  H    0.187387
    52  H    0.158956
    53  H    0.172816
    54  H    0.160373
 Sum of Mulliken charges =  -0.00000

 Dipole moment (field-independent basis, Debye):
    X=              0.7202    Y=              0.0038    Z=              0.3687  Tot=              0.8091
 Quadrupole moment (field-independent basis, Debye-Ang):
   XX=           -219.6059   YY=           -230.7969   ZZ=           -196.9764
   XY=             -2.8590   XZ=            -11.7452   YZ=             16.3761

 Normal termination of Gaussian 16 at Thu Oct 28 01:00:59 2021.
