 Gaussian 16, Revision C.01,
 Gaussian 16:  ES64L-G16RevC.01  3-Jul-2019

 ---------------------------------------------------------------
 # opt=modredundant b3lyp/6-311+g(d,p) scrf=(pcm, solvent=water)
 ---------------------------------------------------------------

 ------------
 NDI_-145.pdb
 ------------
 Symbolic Z-matrix:
 Charge =  0 Multiplicity = 1

 SCF Done:  E(RB3LYP) =  -2359.33969379     A.U. after   16 cycles
 SCF Done:  E(RB3LYP) =  -2359.34527525     A.U. after   17 cycles
 SCF Done:  E(RB3LYP) =  -2359.35259996     A.U. after   16 cycles
 SCF Done:  E(RB3LYP) =  -2359.35567065     A.U. after   14 cycles
 SCF Done:  E(RB3LYP) =  -2359.35630467     A.U. after   13 cycles
 SCF Done:  E(RB3LYP) =  -2359.35664929     A.U. after   15 cycles
 SCF Done:  E(RB3LYP) =  -2359.35681171     A.U. after   12 cycles
 SCF Done:  E(RB3LYP) =  -2359.35691157     A.U. after   13 cycles
 SCF Done:  E(RB3LYP) =  -2359.35697831     A.U. after   13 cycles
 SCF Done:  E(RB3LYP) =  -2359.35705617     A.U. after   13 cycles
 SCF Done:  E(RB3LYP) =  -2359.35934322     A.U. after   10 cycles
 SCF Done:  E(RB3LYP) =  -2359.35937557     A.U. after   10 cycles
 SCF Done:  E(RB3LYP) =  -2359.35940595     A.U. after   10 cycles
 SCF Done:  E(RB3LYP) =  -2359.35941550     A.U. after   10 cycles
 SCF Done:  E(RB3LYP) =  -2359.35942281     A.U. after   11 cycles
 SCF Done:  E(RB3LYP) =  -2359.35942548     A.U. after   10 cycles
 SCF Done:  E(RB3LYP) =  -2359.35942639     A.U. after    9 cycles
 SCF Done:  E(RB3LYP) =  -2359.35942644     A.U. after    8 cycles
 SCF Done:  E(RB3LYP) =  -2359.35942649     A.U. after    9 cycles
 SCF Done:  E(RB3LYP) =  -2359.35942647     A.U. after    8 cycles
 Optimization completed.
    -- Stationary point found.

                         Standard orientation:
 ---------------------------------------------------------------------
 Center     Atomic      Atomic             Coordinates (Angstroms)
 Number     Number       Type             X           Y           Z
 ---------------------------------------------------------------------
      1          6           0       -3.528272   -2.685852    0.376581
      2          6           0       -2.769790   -1.446100    0.075959
      3          6           0       -3.418924   -0.190575    0.114916
      4          6           0       -4.784731   -0.095376    0.451165
      5          6           0       -5.562897   -1.320674    0.767190
      6          6           0       -1.424801   -1.517294   -0.193622
      7          6           0       -2.673609    0.976970   -0.199767
      8          6           0       -1.295544    0.881820   -0.539559
      9          6           0       -0.639962   -0.362232   -0.465083
     10          6           0       -0.646635    2.091356   -1.108349
     11          6           0       -2.608397    3.473678   -0.479340
     12          6           0       -3.338971    2.226519   -0.158879
     13          6           0       -4.679912    2.299664    0.185840
     14          6           0       -5.407119    1.142256    0.488544
     15          1           0       -6.454880    1.204144    0.750702
     16          1           0       -5.159028    3.269456    0.216516
     17          1           0       -0.939648   -2.483230   -0.150744
     18          7           0       -1.294418    3.323469   -0.916982
     19          7           0       -4.879732   -2.542790    0.698838
     20          8           0       -3.016812   -3.794703    0.350163
     21          8           0       -6.744576   -1.276488    1.070309
     22          8           0       -3.125805    4.578922   -0.393778
     23          8           0        0.390276    2.060284   -1.751185
     24          6           0       -0.574452    4.525762   -1.363744
     25          1           0        0.477860    4.420586   -1.113225
     26          1           0       -0.672557    4.652958   -2.443788
     27          1           0       -1.003114    5.384815   -0.857616
     28          6           0       -5.615385   -3.782241    0.994393
     29          1           0       -5.556746   -4.455006    0.139454
     30          1           0       -5.176617   -4.273686    1.862752
     31          1           0       -6.648389   -3.521283    1.196301
     32          6           0        0.804065   -0.581374   -0.543108
     33          6           0        1.435535   -1.662124   -1.125328
     34         16           0        1.946121    0.404929    0.335174
     35          6           0        2.830955   -1.675420   -0.907775
     36          1           0        0.910360   -2.400208   -1.714137
     37          6           0        3.293614   -0.627662   -0.111604
     38          8           0        3.714809   -2.589368   -1.385899
     39          6           0        4.639497   -0.378612    0.326738
     40          6           0        3.200609   -3.684948   -2.152577
     41          6           0        5.096765    0.663089    1.129054
     42         16           0        5.996701   -1.416595   -0.107845
     43          1           0        4.063490   -4.291846   -2.417921
     44          1           0        2.500816   -4.280492   -1.560222
     45          1           0        2.710399   -3.327722   -3.062174
     46          6           0        6.496981    0.630930    1.384558
     47          8           0        4.216637    1.586558    1.589974
     48          6           0        7.104422   -0.433761    0.780727
     49          1           0        7.026651    1.356479    1.984210
     50          6           0        4.723382    2.667361    2.383897
     51          1           0        8.150043   -0.700416    0.806498
     52          1           0        5.447512    3.259096    1.818184
     53          1           0        3.861033    3.282709    2.630677
     54          1           0        5.181917    2.292943    3.302656
 ---------------------------------------------------------------------

 The electronic state is 1-A.
 Alpha  occ. eigenvalues --  -88.88694 -88.88575 -19.17069 -19.16923 -19.12921
 Alpha  occ. eigenvalues --  -19.12897 -19.12452 -19.12448 -14.38888 -14.38483
 Alpha  occ. eigenvalues --  -10.31491 -10.31334 -10.31131 -10.30958 -10.24950
 Alpha  occ. eigenvalues --  -10.24891 -10.23690 -10.22852 -10.22822 -10.22773
 Alpha  occ. eigenvalues --  -10.22651 -10.22511 -10.22472 -10.22400 -10.22294
 Alpha  occ. eigenvalues --  -10.22270 -10.22089 -10.21955 -10.21569 -10.21103
 Alpha  occ. eigenvalues --  -10.21030 -10.20956 -10.20911 -10.20793 -10.19334
 Alpha  occ. eigenvalues --  -10.18804  -7.97256  -7.97134  -5.93579  -5.93443
 Alpha  occ. eigenvalues --   -5.93189  -5.93056  -5.92792  -5.92701  -1.09001
 Alpha  occ. eigenvalues --   -1.08676  -1.08450  -1.08313  -1.07195  -1.06800
 Alpha  occ. eigenvalues --   -0.96517  -0.96131  -0.92514  -0.90571  -0.88923
 Alpha  occ. eigenvalues --   -0.86746  -0.84340  -0.80616  -0.78525  -0.77677
 Alpha  occ. eigenvalues --   -0.76344  -0.75333  -0.75215  -0.73349  -0.72606
 Alpha  occ. eigenvalues --   -0.71627  -0.70293  -0.68886  -0.67409  -0.66026
 Alpha  occ. eigenvalues --   -0.65499  -0.65045  -0.61149  -0.59972  -0.58720
 Alpha  occ. eigenvalues --   -0.57592  -0.56783  -0.55991  -0.55047  -0.54793
 Alpha  occ. eigenvalues --   -0.53895  -0.51773  -0.50376  -0.50149  -0.49832
 Alpha  occ. eigenvalues --   -0.49623  -0.49210  -0.48607  -0.48305  -0.47990
 Alpha  occ. eigenvalues --   -0.47914  -0.47333  -0.47013  -0.46618  -0.45823
 Alpha  occ. eigenvalues --   -0.45506  -0.45365  -0.45149  -0.44338  -0.43856
 Alpha  occ. eigenvalues --   -0.42883  -0.42613  -0.42199  -0.42092  -0.41918
 Alpha  occ. eigenvalues --   -0.41780  -0.41560  -0.41150  -0.40743  -0.40107
 Alpha  occ. eigenvalues --   -0.39660  -0.39208  -0.38832  -0.37855  -0.37539
 Alpha  occ. eigenvalues --   -0.36400  -0.36080  -0.34298  -0.33988  -0.33821
 Alpha  occ. eigenvalues --   -0.33651  -0.32155  -0.31566  -0.30759  -0.30090
 Alpha  occ. eigenvalues --   -0.29685  -0.29319  -0.29196  -0.28659  -0.27637
 Alpha  occ. eigenvalues --   -0.26210  -0.25211  -0.24769  -0.19612
 Alpha virt. eigenvalues --   -0.13305  -0.07528  -0.06475  -0.04882  -0.04129
 Alpha virt. eigenvalues --   -0.00832  -0.00608   0.00105   0.00332   0.00406
 Alpha virt. eigenvalues --    0.00767   0.01151   0.01248   0.01445   0.02062

 Mulliken charges:
               1
     1  C    0.441320
     2  C   -0.095265
     3  C    0.127781
     4  C    0.254966
     5  C    0.290281
     6  C   -0.170256
     7  C    0.131433
     8  C    0.231929
     9  C    0.303919
    10  C   -0.478769
    11  C    0.347345
    12  C    0.074577
    13  C   -0.481956
    14  C   -0.593205
    15  H    0.165717
    16  H    0.165862
    17  H    0.166365
    18  N    0.022238
    19  N   -0.111918
    20  O   -0.344802
    21  O   -0.334640
    22  O   -0.354281
    23  O   -0.282859
    24  C   -0.204450
    25  H    0.182453
    26  H    0.192038
    27  H    0.181021
    28  C   -0.211865
    29  H    0.182040
    30  H    0.185234
    31  H    0.180314
    32  C    0.220851
    33  C   -0.639984
    34  S   -0.665713
    35  C   -0.096535
    36  H    0.167638
    37  C    0.612600
    38  O   -0.162596
    39  C    0.843942
    40  C   -0.239376
    41  C    0.010675
    42  S   -0.230447
    43  H    0.177727
    44  H    0.167223
    45  H    0.163045
    46  C   -0.618396
    47  O   -0.160345
    48  C   -0.314284
    49  H    0.162913
    50  C   -0.253381
    51  H    0.191231
    52  H    0.162996
    53  H    0.175417
    54  H    0.162233
 Sum of Mulliken charges =  -0.00000

 Dipole moment (field-independent basis, Debye):
    X=              4.4297    Y=             -0.8785    Z=              1.1584  Tot=              4.6622
 Quadrupole moment (field-independent basis, Debye-Ang):
   XX=           -210.2269   YY=           -218.6084   ZZ=           -214.8472
   XY=             12.4332   XZ=             15.5326   YZ=             17.4257

 Normal termination of Gaussian 16 at Wed Oct 27 23:52:24 2021.
