 Gaussian 16, Revision C.01,
 Gaussian 16:  ES64L-G16RevC.01  3-Jul-2019

 ---------------------------------------------------------------
 # opt=modredundant b3lyp/6-311+g(d,p) scrf=(pcm, solvent=water)
 ---------------------------------------------------------------

 -----------
 NDI_140.pdb
 -----------
 Symbolic Z-matrix:
 Charge =  0 Multiplicity = 1

 SCF Done:  E(RB3LYP) =  -2359.34506735     A.U. after   16 cycles
 SCF Done:  E(RB3LYP) =  -2359.34508091     A.U. after   18 cycles
 SCF Done:  E(RB3LYP) =  -2359.35419766     A.U. after   14 cycles
 SCF Done:  E(RB3LYP) =  -2359.35833446     A.U. after   16 cycles
 SCF Done:  E(RB3LYP) =  -2359.35900399     A.U. after   15 cycles
 SCF Done:  E(RB3LYP) =  -2359.35919420     A.U. after   14 cycles
 SCF Done:  E(RB3LYP) =  -2359.35931481     A.U. after   11 cycles
 SCF Done:  E(RB3LYP) =  -2359.35935530     A.U. after   12 cycles
 SCF Done:  E(RB3LYP) =  -2359.35938742     A.U. after   11 cycles
 SCF Done:  E(RB3LYP) =  -2359.35940329     A.U. after   10 cycles
 SCF Done:  E(RB3LYP) =  -2359.35950577     A.U. after   10 cycles
 SCF Done:  E(RB3LYP) =  -2359.35950716     A.U. after   10 cycles
 SCF Done:  E(RB3LYP) =  -2359.35950793     A.U. after    9 cycles
 SCF Done:  E(RB3LYP) =  -2359.35950914     A.U. after    9 cycles
 SCF Done:  E(RB3LYP) =  -2359.35951119     A.U. after    9 cycles
 SCF Done:  E(RB3LYP) =  -2359.35951197     A.U. after    9 cycles
 SCF Done:  E(RB3LYP) =  -2359.35951266     A.U. after    9 cycles
 SCF Done:  E(RB3LYP) =  -2359.35951289     A.U. after    9 cycles
 SCF Done:  E(RB3LYP) =  -2359.35951295     A.U. after    9 cycles
 SCF Done:  E(RB3LYP) =  -2359.35951297     A.U. after    7 cycles
 Optimization completed.
    -- Stationary point found.

                         Standard orientation:
 ---------------------------------------------------------------------
 Center     Atomic      Atomic             Coordinates (Angstroms)
 Number     Number       Type             X           Y           Z
 ---------------------------------------------------------------------
      1          6           0        3.529954   -2.685764    0.408677
      2          6           0        2.771015   -1.448258    0.099994
      3          6           0        3.422772   -0.193893    0.117398
      4          6           0        4.792171   -0.097447    0.440121
      5          6           0        5.570684   -1.320341    0.764930
      6          6           0        1.423416   -1.519732   -0.159150
      7          6           0        2.678005    0.971890   -0.205077
      8          6           0        1.297003    0.875654   -0.531505
      9          6           0        0.641506   -0.365539   -0.437750
     10          6           0        0.640408    2.081572   -1.101149
     11          6           0        2.614196    3.465435   -0.513646
     12          6           0        3.345988    2.220439   -0.185781
     13          6           0        4.689983    2.294695    0.145189
     14          6           0        5.417215    1.138923    0.455780
     15          1           0        6.467493    1.201737    0.707490
     16          1           0        5.171886    3.263476    0.159428
     17          1           0        0.934477   -2.483437   -0.105714
     18          7           0        1.293933    3.313685   -0.931912
     19          7           0        4.884383   -2.541600    0.717879
     20          8           0        3.016085   -3.793704    0.399903
     21          8           0        6.755008   -1.274705    1.057124
     22          8           0        3.135601    4.569968   -0.448705
     23          8           0       -0.407236    2.046301   -1.725500
     24          6           0        0.570322    4.513193   -1.380443
     25          1           0        0.652325    4.628516   -2.463139
     26          1           0       -0.478297    4.413460   -1.112786
     27          1           0        1.008850    5.376387   -0.890076
     28          6           0        5.619931   -3.778939    1.022533
     29          1           0        5.186339   -4.259455    1.899548
     30          1           0        5.554129   -4.461401    0.175833
     31          1           0        6.654795   -3.517559    1.214111
     32          6           0       -0.804274   -0.581121   -0.520469
     33          6           0       -1.441391   -1.617476   -1.168791
     34         16           0       -1.939338    0.369466    0.403573
     35          6           0       -2.840101   -1.625090   -0.962284
     36          1           0       -0.918460   -2.326688   -1.793940
     37          6           0       -3.296744   -0.617657   -0.113777
     38          8           0       -3.729958   -2.501337   -1.497149
     39          6           0       -4.643562   -0.376577    0.328740
     40          6           0       -3.221303   -3.555930   -2.322623
     41          6           0       -5.095205    0.625666    1.181991
     42         16           0       -6.008952   -1.373490   -0.170823
     43          1           0       -4.088090   -4.138305   -2.627337
     44          1           0       -2.722137   -3.151747   -3.207372
     45          1           0       -2.530653   -4.191353   -1.761765
     46          6           0       -6.497828    0.596392    1.425515
     47          8           0       -4.208274    1.513832    1.697891
     48          6           0       -7.112948   -0.426981    0.761249
     49          1           0       -7.023700    1.295212    2.059308
     50          6           0       -4.709290    2.552330    2.549358
     51          1           0       -8.161710   -0.682206    0.764754
     52          1           0       -5.177067    2.130705    3.442718
     53          1           0       -3.842691    3.144146    2.835759
     54          1           0       -5.424396    3.182796    2.014728
 ---------------------------------------------------------------------

 The electronic state is 1-A.
 Alpha  occ. eigenvalues --  -88.88656 -88.88529 -19.17008 -19.16894 -19.12938
 Alpha  occ. eigenvalues --  -19.12916 -19.12507 -19.12494 -14.38904 -14.38520
 Alpha  occ. eigenvalues --  -10.31511 -10.31353 -10.31182 -10.31006 -10.24865
 Alpha  occ. eigenvalues --  -10.24845 -10.23676 -10.22827 -10.22810 -10.22807
 Alpha  occ. eigenvalues --  -10.22597 -10.22536 -10.22525 -10.22345 -10.22332
 Alpha  occ. eigenvalues --  -10.22309 -10.22146 -10.21901 -10.21582 -10.21151
 Alpha  occ. eigenvalues --  -10.21085 -10.20919 -10.20889 -10.20808 -10.19260
 Alpha  occ. eigenvalues --  -10.18763  -7.97218  -7.97088  -5.93541  -5.93398
 Alpha  occ. eigenvalues --   -5.93151  -5.93011  -5.92754  -5.92656  -1.09020
 Alpha  occ. eigenvalues --   -1.08724  -1.08386  -1.08272  -1.07215  -1.06853
 Alpha  occ. eigenvalues --   -0.96537  -0.96169  -0.92552  -0.90525  -0.88885
 Alpha  occ. eigenvalues --   -0.86768  -0.84378  -0.80600  -0.78556  -0.77653
 Alpha  occ. eigenvalues --   -0.76306  -0.75325  -0.75191  -0.73312  -0.72623
 Alpha  occ. eigenvalues --   -0.71646  -0.70254  -0.68870  -0.67436  -0.66052
 Alpha  occ. eigenvalues --   -0.65518  -0.65061  -0.61133  -0.59941  -0.58718
 Alpha  occ. eigenvalues --   -0.57611  -0.56771  -0.55948  -0.55083  -0.54746
 Alpha  occ. eigenvalues --   -0.53898  -0.51801  -0.50390  -0.50160  -0.49856
 Alpha  occ. eigenvalues --   -0.49625  -0.49228  -0.48618  -0.48274  -0.47962
 Alpha  occ. eigenvalues --   -0.47884  -0.47370  -0.47021  -0.46648  -0.45822
 Alpha  occ. eigenvalues --   -0.45508  -0.45368  -0.45155  -0.44345  -0.43881
 Alpha  occ. eigenvalues --   -0.42893  -0.42623  -0.42197  -0.42102  -0.41892
 Alpha  occ. eigenvalues --   -0.41759  -0.41559  -0.41162  -0.40746  -0.40115
 Alpha  occ. eigenvalues --   -0.39669  -0.39190  -0.38809  -0.37856  -0.37548
 Alpha  occ. eigenvalues --   -0.36361  -0.36015  -0.34275  -0.33940  -0.33810
 Alpha  occ. eigenvalues --   -0.33635  -0.32198  -0.31590  -0.30770  -0.30063
 Alpha  occ. eigenvalues --   -0.29691  -0.29317  -0.29224  -0.28663  -0.27678
 Alpha  occ. eigenvalues --   -0.26241  -0.25188  -0.24755  -0.19582
 Alpha virt. eigenvalues --   -0.13326  -0.07432  -0.06466  -0.04916  -0.04197
 Alpha virt. eigenvalues --   -0.00845  -0.00614   0.00103   0.00348   0.00421
 Alpha virt. eigenvalues --    0.00757   0.01116   0.01236   0.01392   0.02076

 Mulliken charges:
               1
     1  C    0.444581
     2  C   -0.102430
     3  C    0.127851
     4  C    0.247380
     5  C    0.294182
     6  C   -0.228459
     7  C    0.136543
     8  C    0.208639
     9  C    0.316826
    10  C   -0.455397
    11  C    0.336906
    12  C    0.079873
    13  C   -0.472619
    14  C   -0.596648
    15  H    0.166040
    16  H    0.166160
    17  H    0.165602
    18  N    0.015540
    19  N   -0.111200
    20  O   -0.343855
    21  O   -0.334687
    22  O   -0.352974
    23  O   -0.278352
    24  C   -0.201637
    25  H    0.192255
    26  H    0.182323
    27  H    0.181122
    28  C   -0.212589
    29  H    0.185281
    30  H    0.182189
    31  H    0.180418
    32  C    0.267352
    33  C   -0.610525
    34  S   -0.631919
    35  C   -0.102813
    36  H    0.166694
    37  C    0.562375
    38  O   -0.162132
    39  C    0.833312
    40  C   -0.238778
    41  C    0.017575
    42  S   -0.234904
    43  H    0.177448
    44  H    0.163344
    45  H    0.166817
    46  C   -0.612440
    47  O   -0.162310
    48  C   -0.317888
    49  H    0.162520
    50  C   -0.252791
    51  H    0.190693
    52  H    0.161843
    53  H    0.175183
    54  H    0.162482
 Sum of Mulliken charges =  -0.00000

 Dipole moment (field-independent basis, Debye):
    X=             -3.9865    Y=             -0.7694    Z=              1.0711  Tot=              4.1990
 Quadrupole moment (field-independent basis, Debye-Ang):
   XX=           -211.2290   YY=           -220.0445   ZZ=           -212.9501
   XY=            -11.9496   XZ=            -15.3818   YZ=             18.0651

 Normal termination of Gaussian 16 at Thu Oct 28 02:59:15 2021.
