 Gaussian 16, Revision C.01,
 Gaussian 16:  ES64L-G16RevC.01  3-Jul-2019

 ---------------------------------------------------------------
 # opt=modredundant b3lyp/6-311+g(d,p) scrf=(pcm, solvent=water)
 ---------------------------------------------------------------

 ------------
 NDI_-135.pdb
 ------------
 Symbolic Z-matrix:
 Charge =  0 Multiplicity = 1

 SCF Done:  E(RB3LYP) =  -2359.34628865     A.U. after   17 cycles
 SCF Done:  E(RB3LYP) =  -2359.34497492     A.U. after   17 cycles
 SCF Done:  E(RB3LYP) =  -2359.35329634     A.U. after   14 cycles
 SCF Done:  E(RB3LYP) =  -2359.35614238     A.U. after   16 cycles
 SCF Done:  E(RB3LYP) =  -2359.35682105     A.U. after   16 cycles
 SCF Done:  E(RB3LYP) =  -2359.35783818     A.U. after   16 cycles
 SCF Done:  E(RB3LYP) =  -2359.35788360     A.U. after   17 cycles
 SCF Done:  E(RB3LYP) =  -2359.35797680     A.U. after   17 cycles
 SCF Done:  E(RB3LYP) =  -2359.35868535     A.U. after   13 cycles
 SCF Done:  E(RB3LYP) =  -2359.35888625     A.U. after   12 cycles
 SCF Done:  E(RB3LYP) =  -2359.35924763     A.U. after   13 cycles
 SCF Done:  E(RB3LYP) =  -2359.35940914     A.U. after   13 cycles
 SCF Done:  E(RB3LYP) =  -2359.35943647     A.U. after   12 cycles
 SCF Done:  E(RB3LYP) =  -2359.35945359     A.U. after   11 cycles
 SCF Done:  E(RB3LYP) =  -2359.35947358     A.U. after   10 cycles
 SCF Done:  E(RB3LYP) =  -2359.35948245     A.U. after   11 cycles
 SCF Done:  E(RB3LYP) =  -2359.35948355     A.U. after    9 cycles
 SCF Done:  E(RB3LYP) =  -2359.35948446     A.U. after    9 cycles
 SCF Done:  E(RB3LYP) =  -2359.35948446     A.U. after    9 cycles
 SCF Done:  E(RB3LYP) =  -2359.35948438     A.U. after    8 cycles
 Optimization completed.
    -- Stationary point found.

                         Standard orientation:
 ---------------------------------------------------------------------
 Center     Atomic      Atomic             Coordinates (Angstroms)
 Number     Number       Type             X           Y           Z
 ---------------------------------------------------------------------
      1          6           0       -3.532172   -2.686007    0.434275
      2          6           0       -2.772495   -1.450495    0.119329
      3          6           0       -3.425989   -0.197306    0.118582
      4          6           0       -4.798499   -0.099750    0.429505
      5          6           0       -5.577816   -1.320555    0.760713
      6          6           0       -1.422640   -1.522231   -0.130996
      7          6           0       -2.681309    0.966931   -0.209625
      8          6           0       -1.297987    0.869689   -0.524631
      9          6           0       -0.643279   -0.369180   -0.416153
     10          6           0       -0.633338    2.073607   -1.091385
     11          6           0       -2.617441    3.457948   -0.540067
     12          6           0       -3.350880    2.214707   -0.207512
     13          6           0       -4.697342    2.289898    0.111422
     14          6           0       -5.425158    1.135446    0.427469
     15          1           0       -6.477548    1.199133    0.670044
     16          1           0       -5.181240    3.257776    0.112488
     17          1           0       -0.930540   -2.483893   -0.068838
     18          7           0       -1.291514    3.305338   -0.940305
     19          7           0       -4.889157   -2.540943    0.731761
     20          8           0       -3.016567   -3.793073    0.440057
     21          8           0       -6.764438   -1.273672    1.042973
     22          8           0       -3.141952    4.561633   -0.492286
     23          8           0        0.424750    2.035771   -1.697072
     24          6           0       -0.563772    4.502989   -1.387303
     25          1           0        0.480812    4.407850   -1.102672
     26          1           0       -0.629384    4.609261   -2.472007
     27          1           0       -1.011725    5.369042   -0.910712
     28          6           0       -5.625068   -3.776417    1.043162
     29          1           0       -5.554472   -4.465986    0.202602
     30          1           0       -5.195293   -4.248960    1.926330
     31          1           0       -6.661129   -3.514429    1.227292
     32          6           0        0.804468   -0.581558   -0.504907
     33          6           0        1.447685   -1.567435   -1.218567
     34         16           0        1.931567    0.327169    0.468528
     35          6           0        2.849245   -1.569286   -1.019863
     36          1           0        0.928299   -2.243602   -1.882252
     37          6           0        3.298938   -0.608240   -0.117106
     38          8           0        3.745786   -2.402425   -1.610299
     39          6           0        4.646056   -0.375934    0.331818
     40          6           0        3.245786   -3.403189   -2.505043
     41          6           0        5.090703    0.580164    1.239120
     42         16           0        6.020587   -1.323113   -0.234393
     43          1           0        4.117385   -3.956344   -2.848143
     44          1           0        2.560788   -4.081120   -1.988825
     45          1           0        2.742900   -2.944614   -3.360689
     46          6           0        6.495509    0.555602    1.471646
     47          8           0        4.195843    1.425606    1.811841
     48          6           0        7.119491   -0.418375    0.744520
     49          1           0        7.016518    1.223311    2.141975
     50          6           0        4.688836    2.413024    2.726053
     51          1           0        8.171477   -0.659196    0.725949
     52          1           0        5.395829    3.083851    2.231148
     53          1           0        3.817193    2.976561    3.051664
     54          1           0        5.163786    1.940699    3.589855
 ---------------------------------------------------------------------

 The electronic state is 1-A.
 Alpha  occ. eigenvalues --  -88.88614 -88.88480 -19.16941 -19.16857 -19.12956
 Alpha  occ. eigenvalues --  -19.12936 -19.12569 -19.12544 -14.38922 -14.38560
 Alpha  occ. eigenvalues --  -10.31532 -10.31373 -10.31237 -10.31058 -10.24795
 Alpha  occ. eigenvalues --  -10.24776 -10.23668 -10.22850 -10.22800 -10.22789
 Alpha  occ. eigenvalues --  -10.22688 -10.22580 -10.22411 -10.22372 -10.22351
 Alpha  occ. eigenvalues --  -10.22292 -10.22207 -10.21843 -10.21595 -10.21203
 Alpha  occ. eigenvalues --  -10.21144 -10.20927 -10.20824 -10.20820 -10.19186
 Alpha  occ. eigenvalues --  -10.18719  -7.97175  -7.97039  -5.93498  -5.93348
 Alpha  occ. eigenvalues --   -5.93110  -5.92962  -5.92711  -5.92607  -1.09040
 Alpha  occ. eigenvalues --   -1.08776  -1.08316  -1.08219  -1.07236  -1.06910
 Alpha  occ. eigenvalues --   -0.96559  -0.96211  -0.92592  -0.90474  -0.88842
 Alpha  occ. eigenvalues --   -0.86790  -0.84419  -0.80582  -0.78589  -0.77626
 Alpha  occ. eigenvalues --   -0.76265  -0.75336  -0.75147  -0.73272  -0.72641
 Alpha  occ. eigenvalues --   -0.71665  -0.70211  -0.68851  -0.67465  -0.66080
 Alpha  occ. eigenvalues --   -0.65540  -0.65077  -0.61115  -0.59909  -0.58714
 Alpha  occ. eigenvalues --   -0.57632  -0.56759  -0.55900  -0.55123  -0.54692
 Alpha  occ. eigenvalues --   -0.53902  -0.51830  -0.50405  -0.50174  -0.49879
 Alpha  occ. eigenvalues --   -0.49621  -0.49247  -0.48632  -0.48237  -0.47931
 Alpha  occ. eigenvalues --   -0.47846  -0.47410  -0.47029  -0.46682  -0.45822
 Alpha  occ. eigenvalues --   -0.45506  -0.45375  -0.45151  -0.44353  -0.43908
 Alpha  occ. eigenvalues --   -0.42906  -0.42638  -0.42209  -0.42096  -0.41861
 Alpha  occ. eigenvalues --   -0.41744  -0.41547  -0.41175  -0.40751  -0.40126
 Alpha  occ. eigenvalues --   -0.39683  -0.39168  -0.38784  -0.37852  -0.37546
 Alpha  occ. eigenvalues --   -0.36314  -0.35953  -0.34248  -0.33883  -0.33795
 Alpha  occ. eigenvalues --   -0.33620  -0.32244  -0.31615  -0.30786  -0.30041
 Alpha  occ. eigenvalues --   -0.29696  -0.29320  -0.29243  -0.28664  -0.27720
 Alpha  occ. eigenvalues --   -0.26277  -0.25160  -0.24737  -0.19549
 Alpha virt. eigenvalues --   -0.13348  -0.07342  -0.06447  -0.04953  -0.04276
 Alpha virt. eigenvalues --   -0.00852  -0.00618   0.00102   0.00365   0.00439
 Alpha virt. eigenvalues --    0.00745   0.01080   0.01224   0.01340   0.02090

 Mulliken charges:
               1
     1  C    0.447373
     2  C   -0.103389
     3  C    0.130164
     4  C    0.239542
     5  C    0.297429
     6  C   -0.277094
     7  C    0.141690
     8  C    0.190164
     9  C    0.326825
    10  C   -0.444371
    11  C    0.328808
    12  C    0.087366
    13  C   -0.462926
    14  C   -0.604382
    15  H    0.166392
    16  H    0.166498
    17  H    0.164449
    18  N    0.010146
    19  N   -0.110511
    20  O   -0.342836
    21  O   -0.334691
    22  O   -0.351514
    23  O   -0.272608
    24  C   -0.199360
    25  H    0.182288
    26  H    0.192500
    27  H    0.181200
    28  C   -0.213239
    29  H    0.182412
    30  H    0.185237
    31  H    0.180531
    32  C    0.310066
    33  C   -0.582450
    34  S   -0.590136
    35  C   -0.116959
    36  H    0.164963
    37  C    0.508503
    38  O   -0.161579
    39  C    0.822268
    40  C   -0.237839
    41  C    0.022858
    42  S   -0.238501
    43  H    0.177146
    44  H    0.166211
    45  H    0.163862
    46  C   -0.603682
    47  O   -0.164385
    48  C   -0.323008
    49  H    0.162182
    50  C   -0.252161
    51  H    0.190150
    52  H    0.161918
    53  H    0.174860
    54  H    0.161622
 Sum of Mulliken charges =  -0.00000

 Dipole moment (field-independent basis, Debye):
    X=              3.5234    Y=             -0.6487    Z=              0.9749  Tot=              3.7129
 Quadrupole moment (field-independent basis, Debye-Ang):
   XX=           -212.2486   YY=           -221.7212   ZZ=           -210.7962
   XY=             11.4021   XZ=             15.2042   YZ=             18.5067

 Normal termination of Gaussian 16 at Wed Oct 27 20:44:33 2021.
