 Gaussian 16, Revision C.01,
 Gaussian 16:  ES64L-G16RevC.01  3-Jul-2019

 ---------------------------------------------------------------
 # opt=modredundant b3lyp/6-311+g(d,p) scrf=(pcm, solvent=water)
 ---------------------------------------------------------------

 ------------
 NDI_-165.pdb
 ------------
 Symbolic Z-matrix:
 Charge =  0 Multiplicity = 1

 SCF Done:  E(RB3LYP) =  -2359.32039035     A.U. after   17 cycles
 SCF Done:  E(RB3LYP) =  -2359.34442618     A.U. after   17 cycles
 SCF Done:  E(RB3LYP) =  -2359.35331604     A.U. after   16 cycles
 SCF Done:  E(RB3LYP) =  -2359.35520217     A.U. after   14 cycles
 SCF Done:  E(RB3LYP) =  -2359.35573389     A.U. after   13 cycles
 SCF Done:  E(RB3LYP) =  -2359.35584028     A.U. after   15 cycles
 SCF Done:  E(RB3LYP) =  -2359.35597991     A.U. after   12 cycles
 SCF Done:  E(RB3LYP) =  -2359.35607771     A.U. after   11 cycles
 SCF Done:  E(RB3LYP) =  -2359.35630399     A.U. after   15 cycles
 SCF Done:  E(RB3LYP) =  -2359.35643142     A.U. after   13 cycles
 SCF Done:  E(RB3LYP) =  -2359.35771257     A.U. after   12 cycles
 SCF Done:  E(RB3LYP) =  -2359.35772719     A.U. after   11 cycles
 SCF Done:  E(RB3LYP) =  -2359.35773985     A.U. after   11 cycles
 SCF Done:  E(RB3LYP) =  -2359.35774858     A.U. after   11 cycles
 SCF Done:  E(RB3LYP) =  -2359.35776549     A.U. after   11 cycles
 SCF Done:  E(RB3LYP) =  -2359.35777050     A.U. after   10 cycles
 SCF Done:  E(RB3LYP) =  -2359.35777228     A.U. after   11 cycles
 SCF Done:  E(RB3LYP) =  -2359.35777248     A.U. after    9 cycles
 SCF Done:  E(RB3LYP) =  -2359.35777257     A.U. after    8 cycles
 SCF Done:  E(RB3LYP) =  -2359.35777260     A.U. after    8 cycles
 Optimization completed.
    -- Stationary point found.

                         Standard orientation:
 ---------------------------------------------------------------------
 Center     Atomic      Atomic             Coordinates (Angstroms)
 Number     Number       Type             X           Y           Z
 ---------------------------------------------------------------------
      1          6           0       -3.558924   -2.667410    0.199431
      2          6           0       -2.788029   -1.421425   -0.037379
      3          6           0       -3.416639   -0.161606    0.096692
      4          6           0       -4.771409   -0.068358    0.469221
      5          6           0       -5.562681   -1.300042    0.719267
      6          6           0       -1.451154   -1.496991   -0.331809
      7          6           0       -2.653924    1.008786   -0.158726
      8          6           0       -1.283867    0.913837   -0.535066
      9          6           0       -0.637790   -0.344943   -0.549783
     10          6           0       -0.646102    2.145829   -1.057017
     11          6           0       -2.558673    3.517314   -0.276166
     12          6           0       -3.298203    2.262944   -0.018589
     13          6           0       -4.630258    2.334796    0.364311
     14          6           0       -5.372162    1.174323    0.606057
     15          1           0       -6.412285    1.235382    0.897073
     16          1           0       -5.089043    3.309028    0.471224
     17          1           0       -0.997566   -2.477552   -0.345716
     18          7           0       -1.264771    3.374509   -0.769721
     19          7           0       -4.903201   -2.525671    0.550166
     20          8           0       -3.064519   -3.779835    0.096820
     21          8           0       -6.736279   -1.259011    1.053373
     22          8           0       -3.052509    4.623227   -0.098173
     23          8           0        0.364303    2.142033   -1.744331
     24          6           0       -0.539476    4.589499   -1.170746
     25          1           0        0.517455    4.458905   -0.953360
     26          1           0       -0.662398    4.774836   -2.239762
     27          1           0       -0.943999    5.425420   -0.609133
     28          6           0       -5.655542   -3.770090    0.773567
     29          1           0       -5.579203   -4.404323   -0.108541
     30          1           0       -5.244268   -4.304043    1.630652
     31          1           0       -6.691263   -3.509134    0.961130
     32          6           0        0.798944   -0.597285   -0.611995
     33          6           0        1.390920   -1.816096   -0.918203
     34         16           0        1.993511    0.495928    0.051706
     35          6           0        2.772081   -1.857779   -0.660789
     36          1           0        0.847293   -2.644106   -1.347404
     37          6           0        3.280309   -0.683944   -0.097868
     38          8           0        3.611435   -2.898256   -0.898681
     39          6           0        4.630967   -0.413123    0.300471
     40          6           0        3.053779   -4.102662   -1.438353
     41          6           0        5.135218    0.754300    0.872049
     42         16           0        5.936981   -1.585137    0.122572
     43          1           0        3.886882   -4.794205   -1.542590
     44          1           0        2.308555   -4.524962   -0.758918
     45          1           0        2.604952   -3.918797   -2.418115
     46          6           0        6.528758    0.708286    1.155476
     47          8           0        4.302031    1.795305    1.106708
     48          6           0        7.083931   -0.490064    0.803499
     49          1           0        7.090941    1.517583    1.597425
     50          6           0        4.854140    2.991311    1.674816
     51          1           0        8.114008   -0.795748    0.907219
     52          1           0        5.614202    3.418330    1.015944
     53          1           0        4.021234    3.684046    1.771023
     54          1           0        5.281438    2.790678    2.660336
 ---------------------------------------------------------------------

 The electronic state is 1-A.
 Alpha  occ. eigenvalues --  -88.88811 -88.88757 -19.17317 -19.17028 -19.12862
 Alpha  occ. eigenvalues --  -19.12833 -19.12278 -19.12274 -14.38834 -14.38365
 Alpha  occ. eigenvalues --  -10.31420 -10.31269 -10.30945 -10.30775 -10.25289
 Alpha  occ. eigenvalues --  -10.25021 -10.23844 -10.23051 -10.22953 -10.22879
 Alpha  occ. eigenvalues --  -10.22648 -10.22642 -10.22260 -10.22240 -10.22168
 Alpha  occ. eigenvalues --  -10.22135 -10.22119 -10.21878 -10.21501 -10.21220
 Alpha  occ. eigenvalues --  -10.20921 -10.20884 -10.20817 -10.20739 -10.19607
 Alpha  occ. eigenvalues --  -10.18966  -7.97370  -7.97314  -5.93692  -5.93623
 Alpha  occ. eigenvalues --   -5.93296  -5.93236  -5.92910  -5.92881  -1.08938
 Alpha  occ. eigenvalues --   -1.08720  -1.08522  -1.08452  -1.07129  -1.06621
 Alpha  occ. eigenvalues --   -0.96453  -0.96005  -0.92372  -0.90726  -0.89065
 Alpha  occ. eigenvalues --   -0.86659  -0.84197  -0.80676  -0.78412  -0.77768
 Alpha  occ. eigenvalues --   -0.76485  -0.75487  -0.75183  -0.73478  -0.72543
 Alpha  occ. eigenvalues --   -0.71574  -0.70447  -0.68951  -0.67319  -0.65945
 Alpha  occ. eigenvalues --   -0.65444  -0.64992  -0.61210  -0.60101  -0.58737
 Alpha  occ. eigenvalues --   -0.57535  -0.56819  -0.56159  -0.55044  -0.54889
 Alpha  occ. eigenvalues --   -0.53891  -0.51675  -0.50338  -0.50138  -0.49750
 Alpha  occ. eigenvalues --   -0.49582  -0.49152  -0.48583  -0.48438  -0.48099
 Alpha  occ. eigenvalues --   -0.48029  -0.47250  -0.46970  -0.46538  -0.45834
 Alpha  occ. eigenvalues --   -0.45514  -0.45386  -0.45044  -0.44296  -0.43765
 Alpha  occ. eigenvalues --   -0.42877  -0.42639  -0.42267  -0.42068  -0.41961
 Alpha  occ. eigenvalues --   -0.41852  -0.41532  -0.41117  -0.40739  -0.40092
 Alpha  occ. eigenvalues --   -0.39697  -0.39253  -0.38898  -0.37834  -0.37425
 Alpha  occ. eigenvalues --   -0.36508  -0.36336  -0.34409  -0.34143  -0.33841
 Alpha  occ. eigenvalues --   -0.33715  -0.32001  -0.31485  -0.30751  -0.30231
 Alpha  occ. eigenvalues --   -0.29659  -0.29319  -0.29076  -0.28630  -0.27493
 Alpha  occ. eigenvalues --   -0.26139  -0.25277  -0.24810  -0.19733
 Alpha virt. eigenvalues --   -0.13231  -0.07963  -0.06449  -0.04747  -0.03940
 Alpha virt. eigenvalues --   -0.00741  -0.00558   0.00141   0.00265   0.00369
 Alpha virt. eigenvalues --    0.00822   0.01295   0.01346   0.01582   0.02028

 Mulliken charges:
               1
     1  C    0.423023
     2  C   -0.075975
     3  C    0.156458
     4  C    0.244090
     5  C    0.279058
     6  C    0.114963
     7  C    0.097511
     8  C    0.414192
     9  C    0.304778
    10  C   -0.667369
    11  C    0.365383
    12  C    0.065713
    13  C   -0.488189
    14  C   -0.594531
    15  H    0.164400
    16  H    0.164852
    17  H    0.164622
    18  N    0.053287
    19  N   -0.114869
    20  O   -0.347326
    21  O   -0.334638
    22  O   -0.358271
    23  O   -0.288574
    24  C   -0.208962
    25  H    0.183038
    26  H    0.190882
    27  H    0.180372
    28  C   -0.211429
    29  H    0.180243
    30  H    0.186414
    31  H    0.179676
    32  C    0.024199
    33  C   -0.598532
    34  S   -0.706317
    35  C   -0.362215
    36  H    0.163431
    37  C    0.723494
    38  O   -0.158851
    39  C    0.877668
    40  C   -0.242131
    41  C   -0.007753
    42  S   -0.212088
    43  H    0.179140
    44  H    0.166223
    45  H    0.163653
    46  C   -0.576960
    47  O   -0.152121
    48  C   -0.311746
    49  H    0.164298
    50  C   -0.254440
    51  H    0.193191
    52  H    0.164749
    53  H    0.176485
    54  H    0.163803
 Sum of Mulliken charges =  -0.00000

 Dipole moment (field-independent basis, Debye):
    X=              6.0722    Y=             -1.2898    Z=              1.3482  Tot=              6.3524
 Quadrupole moment (field-independent basis, Debye-Ang):
   XX=           -205.8103   YY=           -214.1251   ZZ=           -221.4305
   XY=             14.4732   XZ=             15.7328   YZ=             12.9421

 Normal termination of Gaussian 16 at Wed Oct 27 22:43:16 2021.
