 Gaussian 16, Revision C.01,
 Gaussian 16:  ES64L-G16RevC.01  3-Jul-2019

 ---------------------------------------------------------------
 # opt=modredundant b3lyp/6-311+g(d,p) scrf=(pcm, solvent=water)
 ---------------------------------------------------------------

 ---------
 NDI_0.pdb
 ---------
 Symbolic Z-matrix:
 Charge =  0 Multiplicity = 1

 SCF Done:  E(RB3LYP) =  -2359.33892245     A.U. after   16 cycles
 SCF Done:  E(RB3LYP) =  -2359.33381613     A.U. after   17 cycles
 SCF Done:  E(RB3LYP) =  -2359.35031704     A.U. after   14 cycles
 SCF Done:  E(RB3LYP) =  -2359.35340594     A.U. after   16 cycles
 SCF Done:  E(RB3LYP) =  -2359.35444439     A.U. after   16 cycles
 SCF Done:  E(RB3LYP) =  -2359.35514879     A.U. after   13 cycles
 SCF Done:  E(RB3LYP) =  -2359.35539671     A.U. after   13 cycles
 SCF Done:  E(RB3LYP) =  -2359.35549792     A.U. after   13 cycles
 SCF Done:  E(RB3LYP) =  -2359.35562381     A.U. after   12 cycles
 SCF Done:  E(RB3LYP) =  -2359.35570324     A.U. after   13 cycles
 SCF Done:  E(RB3LYP) =  -2359.35581718     A.U. after   11 cycles
 SCF Done:  E(RB3LYP) =  -2359.35582818     A.U. after   10 cycles
 SCF Done:  E(RB3LYP) =  -2359.35583195     A.U. after   11 cycles
 SCF Done:  E(RB3LYP) =  -2359.35583356     A.U. after   10 cycles
 SCF Done:  E(RB3LYP) =  -2359.35583416     A.U. after    9 cycles
 SCF Done:  E(RB3LYP) =  -2359.35583461     A.U. after    9 cycles
 SCF Done:  E(RB3LYP) =  -2359.35583488     A.U. after    8 cycles
 SCF Done:  E(RB3LYP) =  -2359.35583496     A.U. after    8 cycles
 SCF Done:  E(RB3LYP) =  -2359.35583506     A.U. after    8 cycles
 SCF Done:  E(RB3LYP) =  -2359.35583508     A.U. after    8 cycles
 Optimization completed.
    -- Stationary point found.

                         Standard orientation:
 ---------------------------------------------------------------------
 Center     Atomic      Atomic             Coordinates (Angstroms)
 Number     Number       Type             X           Y           Z
 ---------------------------------------------------------------------
      1          6           0       -2.477343   -3.035474    0.145142
      2          6           0       -2.207212   -1.576412    0.144099
      3          6           0       -3.265371   -0.656078   -0.032765
      4          6           0       -4.580733   -1.107578   -0.246648
      5          6           0       -4.875539   -2.562839   -0.272967
      6          6           0       -0.921237   -1.127747    0.268967
      7          6           0       -2.967634    0.731791    0.022961
      8          6           0       -1.634041    1.189495    0.246688
      9          6           0       -0.556865    0.256417    0.272765
     10          6           0       -1.489145    2.621686    0.592671
     11          6           0       -3.812104    3.094498   -0.129862
     12          6           0       -4.043085    1.636807   -0.166872
     13          6           0       -5.331234    1.173013   -0.400058
     14          6           0       -5.609365   -0.195297   -0.434078
     15          1           0       -6.616503   -0.551296   -0.604456
     16          1           0       -6.121670    1.896104   -0.552803
     17          1           0       -0.154110   -1.886408    0.346290
     18          7           0       -2.532853    3.494929    0.239456
     19          7           0       -3.798015   -3.435707   -0.064210
     20          8           0       -1.601105   -3.869656    0.316189
     21          8           0       -6.003064   -2.991485   -0.461820
     22          8           0       -4.690729    3.912212   -0.374470
     23          8           0       -0.529934    3.083260    1.196111
     24          6           0       -2.290557    4.930831    0.445481
     25          1           0       -2.400585    5.191511    1.500019
     26          1           0       -1.279747    5.170543    0.125409
     27          1           0       -3.017442    5.481992   -0.142434
     28          6           0       -4.049503   -4.885163   -0.067585
     29          1           0       -3.472791   -5.357079   -0.862890
     30          1           0       -3.748825   -5.311826    0.888937
     31          1           0       -5.109802   -5.043082   -0.231211
     32          6           0        0.866311    0.532310    0.133133
     33          6           0        1.569211    1.712497   -0.056306
     34         16           0        2.008828   -0.819735    0.205303
     35          6           0        2.957114    1.539560   -0.175678
     36          1           0        1.095666    2.675150   -0.111030
     37          6           0        3.389973    0.214074   -0.049612
     38          8           0        3.875859    2.513587   -0.384754
     39          6           0        4.732018   -0.282197   -0.111196
     40          6           0        3.411177    3.862219   -0.529227
     41          6           0        5.159591   -1.603018    0.026972
     42         16           0        6.130054    0.757586   -0.385240
     43          1           0        4.301573    4.465362   -0.691549
     44          1           0        2.743287    3.951976   -1.389807
     45          1           0        2.900434    4.196375    0.377498
     46          6           0        6.567416   -1.772136   -0.083653
     47          8           0        4.247590   -2.577547    0.245022
     48          6           0        7.209402   -0.585847   -0.305738
     49          1           0        7.079249   -2.719666   -0.003758
     50          6           0        4.715667   -3.925393    0.399885
     51          1           0        8.269555   -0.423568   -0.428507
     52          1           0        5.383772   -4.006328    1.260695
     53          1           0        3.826371   -4.528440    0.567767
     54          1           0        5.225151   -4.264594   -0.505225
 ---------------------------------------------------------------------

 The electronic state is 1-A.
 Alpha  occ. eigenvalues --  -88.89121 -88.88892 -19.17482 -19.17249 -19.12844
 Alpha  occ. eigenvalues --  -19.12823 -19.12218 -19.12122 -14.38821 -14.38283
 Alpha  occ. eigenvalues --  -10.31400 -10.31248 -10.30915 -10.30604 -10.25500
 Alpha  occ. eigenvalues --  -10.25307 -10.24131 -10.23431 -10.23022 -10.22944
 Alpha  occ. eigenvalues --  -10.22858 -10.22647 -10.22324 -10.22294 -10.22144
 Alpha  occ. eigenvalues --  -10.22056 -10.22036 -10.21731 -10.21538 -10.21387
 Alpha  occ. eigenvalues --  -10.20878 -10.20792 -10.20715 -10.20666 -10.19229
 Alpha  occ. eigenvalues --  -10.19076  -7.97698  -7.97448  -5.94015  -5.93758
 Alpha  occ. eigenvalues --   -5.93624  -5.93370  -5.93242  -5.93015  -1.08925
 Alpha  occ. eigenvalues --   -1.08902  -1.08705  -1.08458  -1.07113  -1.06507
 Alpha  occ. eigenvalues --   -0.96445  -0.95928  -0.92299  -0.90865  -0.89159
 Alpha  occ. eigenvalues --   -0.86615  -0.84129  -0.80674  -0.78451  -0.77943
 Alpha  occ. eigenvalues --   -0.76531  -0.75597  -0.75169  -0.73517  -0.72448
 Alpha  occ. eigenvalues --   -0.71967  -0.70339  -0.68993  -0.67331  -0.65851
 Alpha  occ. eigenvalues --   -0.65638  -0.64745  -0.61459  -0.60146  -0.58763
 Alpha  occ. eigenvalues --   -0.57439  -0.56834  -0.56381  -0.55446  -0.55071
 Alpha  occ. eigenvalues --   -0.53477  -0.51730  -0.50548  -0.50068  -0.49929
 Alpha  occ. eigenvalues --   -0.49477  -0.49109  -0.48599  -0.48567  -0.48157
 Alpha  occ. eigenvalues --   -0.48105  -0.47275  -0.46847  -0.46545  -0.46151
 Alpha  occ. eigenvalues --   -0.45493  -0.45294  -0.44862  -0.44145  -0.43473
 Alpha  occ. eigenvalues --   -0.42982  -0.42781  -0.42524  -0.42175  -0.42100
 Alpha  occ. eigenvalues --   -0.41812  -0.41297  -0.41112  -0.40711  -0.40021
 Alpha  occ. eigenvalues --   -0.39657  -0.39295  -0.39059  -0.38109  -0.37342
 Alpha  occ. eigenvalues --   -0.36692  -0.36329  -0.34518  -0.34283  -0.33836
 Alpha  occ. eigenvalues --   -0.33664  -0.32101  -0.31490  -0.30816  -0.30180
 Alpha  occ. eigenvalues --   -0.29702  -0.29319  -0.28968  -0.28527  -0.27469
 Alpha  occ. eigenvalues --   -0.26258  -0.25318  -0.25040  -0.19860
 Alpha virt. eigenvalues --   -0.13185  -0.08379  -0.06504  -0.04694  -0.03657
 Alpha virt. eigenvalues --   -0.00590  -0.00500   0.00146   0.00248   0.00476
 Alpha virt. eigenvalues --    0.00757   0.01124   0.01477   0.01572   0.01962

 Mulliken charges:
               1
     1  C    0.384382
     2  C   -0.003265
     3  C    0.154030
     4  C    0.235082
     5  C    0.332535
     6  C    0.059875
     7  C    0.116481
     8  C    0.448848
     9  C    0.199929
    10  C   -0.812591
    11  C    0.329033
    12  C    0.159564
    13  C   -0.501159
    14  C   -0.634890
    15  H    0.163705
    16  H    0.164946
    17  H    0.165307
    18  N    0.030513
    19  N   -0.106812
    20  O   -0.351480
    21  O   -0.335039
    22  O   -0.363050
    23  O   -0.317508
    24  C   -0.181524
    25  H    0.189887
    26  H    0.180211
    27  H    0.179413
    28  C   -0.213164
    29  H    0.184092
    30  H    0.182544
    31  H    0.179693
    32  C   -0.106406
    33  C    0.075305
    34  S   -0.664518
    35  C   -0.659010
    36  H    0.179420
    37  C    0.564555
    38  O   -0.150286
    39  C    0.917157
    40  C   -0.248429
    41  C    0.028299
    42  S   -0.191660
    43  H    0.180661
    44  H    0.164356
    45  H    0.166511
    46  C   -0.582823
    47  O   -0.152284
    48  C   -0.351874
    49  H    0.165237
    50  C   -0.255690
    51  H    0.194719
    52  H    0.164724
    53  H    0.177520
    54  H    0.164930
 Sum of Mulliken charges =  -0.00000

 Dipole moment (field-independent basis, Debye):
    X=              7.6144    Y=             -1.0071    Z=             -1.0871  Tot=              7.7572
 Quadrupole moment (field-independent basis, Debye-Ang):
   XX=           -208.8167   YY=           -204.5753   ZZ=           -226.1406
   XY=             -7.6349   XZ=             -5.9353   YZ=             -5.1167

 Normal termination of Gaussian 16 at Wed Oct 27 20:55:44 2021.
