 Gaussian 16, Revision C.01,
 Gaussian 16:  ES64L-G16RevC.01  3-Jul-2019

 ---------------------------------------------------------------
 # opt=modredundant b3lyp/6-311+g(d,p) scrf=(pcm, solvent=water)
 ---------------------------------------------------------------

 -----------
 NDI_-10.pdb
 -----------
 Symbolic Z-matrix:
 Charge =  0 Multiplicity = 1

 SCF Done:  E(RB3LYP) =  -2359.34549834     A.U. after   16 cycles
 SCF Done:  E(RB3LYP) =  -2359.33364952     A.U. after   17 cycles
 SCF Done:  E(RB3LYP) =  -2359.35043519     A.U. after   14 cycles
 SCF Done:  E(RB3LYP) =  -2359.35374655     A.U. after   16 cycles
 SCF Done:  E(RB3LYP) =  -2359.35576210     A.U. after   16 cycles
 SCF Done:  E(RB3LYP) =  -2359.35625465     A.U. after   17 cycles
 SCF Done:  E(RB3LYP) =  -2359.35685991     A.U. after   15 cycles
 SCF Done:  E(RB3LYP) =  -2359.35699895     A.U. after   14 cycles
 SCF Done:  E(RB3LYP) =  -2359.35704544     A.U. after   14 cycles
 SCF Done:  E(RB3LYP) =  -2359.35714928     A.U. after   13 cycles
 SCF Done:  E(RB3LYP) =  -2359.35728936     A.U. after   11 cycles
 SCF Done:  E(RB3LYP) =  -2359.35729668     A.U. after   10 cycles
 SCF Done:  E(RB3LYP) =  -2359.35730019     A.U. after   11 cycles
 SCF Done:  E(RB3LYP) =  -2359.35730122     A.U. after   10 cycles
 SCF Done:  E(RB3LYP) =  -2359.35730202     A.U. after   10 cycles
 SCF Done:  E(RB3LYP) =  -2359.35730241     A.U. after   10 cycles
 SCF Done:  E(RB3LYP) =  -2359.35730262     A.U. after    9 cycles
 SCF Done:  E(RB3LYP) =  -2359.35730274     A.U. after    9 cycles
 SCF Done:  E(RB3LYP) =  -2359.35730277     A.U. after    9 cycles
 SCF Done:  E(RB3LYP) =  -2359.35730282     A.U. after    8 cycles
 Optimization completed.
    -- Stationary point found.

                         Standard orientation:
 ---------------------------------------------------------------------
 Center     Atomic      Atomic             Coordinates (Angstroms)
 Number     Number       Type             X           Y           Z
 ---------------------------------------------------------------------
      1          6           0       -2.558496   -3.035181   -0.030648
      2          6           0       -2.249861   -1.585433    0.037928
      3          6           0       -3.289856   -0.631296   -0.048901
      4          6           0       -4.624935   -1.038911   -0.228879
      5          6           0       -4.959113   -2.483174   -0.318287
      6          6           0       -0.947483   -1.174722    0.132464
      7          6           0       -2.956475    0.745541    0.060660
      8          6           0       -1.604268    1.158539    0.247293
      9          6           0       -0.556794    0.198763    0.193047
     10          6           0       -1.397936    2.568046    0.656833
     11          6           0       -3.740950    3.133152    0.071990
     12          6           0       -4.014028    1.685244   -0.033083
     13          6           0       -5.322434    1.264973   -0.231185
     14          6           0       -5.635972   -0.093484   -0.324168
     15          1           0       -6.658340   -0.416273   -0.468197
     16          1           0       -6.100840    2.012616   -0.309289
     17          1           0       -0.190175   -1.947504    0.124123
     18          7           0       -2.435914    3.482696    0.402693
     19          7           0       -3.897172   -3.391531   -0.202269
     20          8           0       -1.698192   -3.898493    0.055175
     21          8           0       -6.104465   -2.873695   -0.480588
     22          8           0       -4.607490    3.983873   -0.087576
     23          8           0       -0.395844    2.972476    1.228876
     24          6           0       -2.146981    4.899646    0.670262
     25          1           0       -2.209747    5.109204    1.740001
     26          1           0       -1.142638    5.128820    0.323453
     27          1           0       -2.879859    5.498981    0.139658
     28          6           0       -4.186222   -4.832310   -0.272428
     29          1           0       -3.658090   -5.273104   -1.117785
     30          1           0       -3.854020   -5.317846    0.644764
     31          1           0       -5.256536   -4.956058   -0.395268
     32          6           0        0.863025    0.463330    0.020893
     33          6           0        1.537353    1.626103   -0.309442
     34         16           0        2.023953   -0.844821    0.271328
     35          6           0        2.930227    1.469574   -0.395789
     36          1           0        1.041528    2.560477   -0.503604
     37          6           0        3.387754    0.179511   -0.098655
     38          8           0        3.831287    2.426199   -0.726391
     39          6           0        4.740905   -0.291016   -0.084383
     40          6           0        3.342649    3.740917   -1.023253
     41          6           0        5.192042   -1.578431    0.206092
     42         16           0        6.122841    0.742264   -0.449192
     43          1           0        4.222412    4.338880   -1.249896
     44          1           0        2.677799    3.720854   -1.890633
     45          1           0        2.821007    4.164751   -0.161264
     46          6           0        6.604772   -1.728634    0.136549
     47          8           0        4.295338   -2.542102    0.518400
     48          6           0        7.227452   -0.560560   -0.204754
     49          1           0        7.133215   -2.650757    0.328131
     50          6           0        4.785999   -3.858551    0.810687
     51          1           0        8.286122   -0.389925   -0.328886
     52          1           0        5.443908   -3.841554    1.682945
     53          1           0        3.905925   -4.459745    1.026994
     54          1           0        5.313927   -4.274935   -0.050639
 ---------------------------------------------------------------------

 The electronic state is 1-A.
 Alpha  occ. eigenvalues --  -88.89143 -88.88856 -19.17440 -19.17252 -19.12846
 Alpha  occ. eigenvalues --  -19.12821 -19.12158 -19.12151 -14.38824 -14.38277
 Alpha  occ. eigenvalues --  -10.31405 -10.31249 -10.30893 -10.30644 -10.25431
 Alpha  occ. eigenvalues --  -10.25328 -10.23962 -10.23374 -10.23005 -10.22953
 Alpha  occ. eigenvalues --  -10.22692 -10.22639 -10.22285 -10.22238 -10.22185
 Alpha  occ. eigenvalues --  -10.22089 -10.22059 -10.21760 -10.21538 -10.21334
 Alpha  occ. eigenvalues --  -10.20879 -10.20827 -10.20708 -10.20703 -10.19338
 Alpha  occ. eigenvalues --  -10.19046  -7.97714  -7.97412  -5.94030  -5.93722
 Alpha  occ. eigenvalues --   -5.93641  -5.93334  -5.93262  -5.92978  -1.08927
 Alpha  occ. eigenvalues --   -1.08858  -1.08709  -1.08427  -1.07115  -1.06501
 Alpha  occ. eigenvalues --   -0.96446  -0.95908  -0.92320  -0.90854  -0.89145
 Alpha  occ. eigenvalues --   -0.86629  -0.84144  -0.80664  -0.78452  -0.77919
 Alpha  occ. eigenvalues --   -0.76523  -0.75594  -0.75166  -0.73496  -0.72449
 Alpha  occ. eigenvalues --   -0.71952  -0.70327  -0.68991  -0.67315  -0.65851
 Alpha  occ. eigenvalues --   -0.65621  -0.64754  -0.61437  -0.60131  -0.58731
 Alpha  occ. eigenvalues --   -0.57438  -0.56823  -0.56342  -0.55431  -0.55050
 Alpha  occ. eigenvalues --   -0.53500  -0.51733  -0.50493  -0.50047  -0.49934
 Alpha  occ. eigenvalues --   -0.49444  -0.49113  -0.48591  -0.48556  -0.48147
 Alpha  occ. eigenvalues --   -0.48089  -0.47204  -0.46884  -0.46545  -0.46111
 Alpha  occ. eigenvalues --   -0.45470  -0.45312  -0.44888  -0.44091  -0.43570
 Alpha  occ. eigenvalues --   -0.42960  -0.42797  -0.42498  -0.42182  -0.42059
 Alpha  occ. eigenvalues --   -0.41817  -0.41288  -0.41089  -0.40686  -0.40070
 Alpha  occ. eigenvalues --   -0.39661  -0.39300  -0.39094  -0.38081  -0.37403
 Alpha  occ. eigenvalues --   -0.36625  -0.36350  -0.34498  -0.34256  -0.33872
 Alpha  occ. eigenvalues --   -0.33748  -0.32116  -0.31489  -0.30815  -0.30121
 Alpha  occ. eigenvalues --   -0.29712  -0.29301  -0.29024  -0.28519  -0.27445
 Alpha  occ. eigenvalues --   -0.26221  -0.25271  -0.25013  -0.19817
 Alpha virt. eigenvalues --   -0.13211  -0.08236  -0.06492  -0.04701  -0.03728
 Alpha virt. eigenvalues --   -0.00607  -0.00529   0.00149   0.00266   0.00470
 Alpha virt. eigenvalues --    0.00821   0.01041   0.01467   0.01563   0.01972

 Mulliken charges:
               1
     1  C    0.364002
     2  C   -0.028158
     3  C    0.232516
     4  C    0.205513
     5  C    0.306634
     6  C    0.179320
     7  C    0.200838
     8  C    0.555057
     9  C    0.162887
    10  C   -0.931836
    11  C    0.276459
    12  C    0.138908
    13  C   -0.495721
    14  C   -0.605833
    15  H    0.163574
    16  H    0.164566
    17  H    0.163210
    18  N    0.037677
    19  N   -0.107743
    20  O   -0.352622
    21  O   -0.334362
    22  O   -0.362304
    23  O   -0.305850
    24  C   -0.184368
    25  H    0.189849
    26  H    0.179623
    27  H    0.179157
    28  C   -0.214828
    29  H    0.184011
    30  H    0.182477
    31  H    0.179524
    32  C   -0.198852
    33  C   -0.230579
    34  S   -0.650222
    35  C   -0.526793
    36  H    0.173297
    37  C    0.688957
    38  O   -0.145590
    39  C    0.943277
    40  C   -0.249754
    41  C    0.045065
    42  S   -0.189960
    43  H    0.180615
    44  H    0.164544
    45  H    0.167105
    46  C   -0.616092
    47  O   -0.152943
    48  C   -0.335754
    49  H    0.165207
    50  C   -0.254394
    51  H    0.194528
    52  H    0.164291
    53  H    0.177207
    54  H    0.164665
 Sum of Mulliken charges =  -0.00000

 Dipole moment (field-independent basis, Debye):
    X=              7.3068    Y=             -0.9290    Z=             -1.1402  Tot=              7.4534
 Quadrupole moment (field-independent basis, Debye-Ang):
   XX=           -209.1463   YY=           -206.3797   ZZ=           -224.2338
   XY=             -7.6204   XZ=             -3.1926   YZ=             -9.8137

 Normal termination of Gaussian 16 at Wed Oct 27 23:26:51 2021.
