 Gaussian 16, Revision C.01,
 Gaussian 16:  ES64L-G16RevC.01  3-Jul-2019

 ---------------------------------------------------------------
 # opt=modredundant b3lyp/6-311+g(d,p) scrf=(pcm, solvent=water)
 ---------------------------------------------------------------

 ----------
 NDI_40.pdb
 ----------
 Symbolic Z-matrix:
 Charge =  0 Multiplicity = 1

 SCF Done:  E(RB3LYP) =  -2359.35274959     A.U. after   17 cycles
 SCF Done:  E(RB3LYP) =  -2359.35123624     A.U. after   16 cycles
 SCF Done:  E(RB3LYP) =  -2359.35623554     A.U. after   13 cycles
 SCF Done:  E(RB3LYP) =  -2359.35729208     A.U. after   14 cycles
 SCF Done:  E(RB3LYP) =  -2359.35814386     A.U. after   15 cycles
 SCF Done:  E(RB3LYP) =  -2359.35886161     A.U. after   16 cycles
 SCF Done:  E(RB3LYP) =  -2359.35934503     A.U. after   16 cycles
 SCF Done:  E(RB3LYP) =  -2359.35962589     A.U. after   14 cycles
 SCF Done:  E(RB3LYP) =  -2359.35975460     A.U. after   14 cycles
 SCF Done:  E(RB3LYP) =  -2359.35981272     A.U. after   12 cycles
 SCF Done:  E(RB3LYP) =  -2359.35994949     A.U. after   10 cycles
 SCF Done:  E(RB3LYP) =  -2359.35995418     A.U. after   11 cycles
 SCF Done:  E(RB3LYP) =  -2359.35995573     A.U. after   10 cycles
 SCF Done:  E(RB3LYP) =  -2359.35995670     A.U. after   10 cycles
 SCF Done:  E(RB3LYP) =  -2359.35995787     A.U. after    9 cycles
 SCF Done:  E(RB3LYP) =  -2359.35995830     A.U. after    9 cycles
 SCF Done:  E(RB3LYP) =  -2359.35995875     A.U. after    9 cycles
 SCF Done:  E(RB3LYP) =  -2359.35995882     A.U. after    8 cycles
 SCF Done:  E(RB3LYP) =  -2359.35995886     A.U. after    8 cycles
 SCF Done:  E(RB3LYP) =  -2359.35995887     A.U. after    8 cycles
 Optimization completed.
    -- Stationary point found.

                         Standard orientation:
 ---------------------------------------------------------------------
 Center     Atomic      Atomic             Coordinates (Angstroms)
 Number     Number       Type             X           Y           Z
 ---------------------------------------------------------------------
      1          6           0       -2.765360   -2.977272    0.392057
      2          6           0       -2.358408   -1.564782    0.187545
      3          6           0       -3.338562   -0.553411    0.065389
      4          6           0       -4.710154   -0.868273    0.147450
      5          6           0       -5.143284   -2.273395    0.359155
      6          6           0       -1.025653   -1.237544    0.159945
      7          6           0       -2.917964    0.786718   -0.151423
      8          6           0       -1.533275    1.104520   -0.240988
      9          6           0       -0.569788    0.100104   -0.008170
     10          6           0       -1.174155    2.467576   -0.714278
     11          6           0       -3.538454    3.197351   -0.499330
     12          6           0       -3.916006    1.784863   -0.272786
     13          6           0       -5.259718    1.456148   -0.176492
     14          6           0       -5.662248    0.131877    0.029965
     15          1           0       -6.712049   -0.120513    0.097370
     16          1           0       -5.996461    2.243671   -0.265735
     17          1           0       -0.302037   -2.026514    0.318464
     18          7           0       -2.182170    3.448333   -0.688376
     19          7           0       -4.134767   -3.241706    0.458990
     20          8           0       -1.957504   -3.887102    0.499441
     21          8           0       -6.321635   -2.581745    0.440902
     22          8           0       -4.364188    4.099405   -0.544291
     23          8           0       -0.073515    2.770689   -1.145481
     24          6           0       -1.775012    4.819439   -1.031639
     25          1           0       -0.819929    5.034389   -0.559084
     26          1           0       -1.669098    4.928557   -2.112788
     27          1           0       -2.540354    5.499349   -0.671557
     28          6           0       -4.519864   -4.647370    0.660038
     29          1           0       -4.105373   -5.257910   -0.141423
     30          1           0       -4.131455   -5.003782    1.614186
     31          1           0       -5.602743   -4.704636    0.653826
     32          6           0        0.860291    0.332483    0.165808
     33          6           0        1.493332    1.345127    0.851601
     34         16           0        2.025284   -0.827104   -0.443449
     35          6           0        2.895302    1.198777    0.890774
     36          1           0        0.960620    2.156021    1.323956
     37          6           0        3.375665    0.071141    0.219933
     38          8           0        3.776262    2.026584    1.508023
     39          6           0        4.741205   -0.339088    0.046411
     40          6           0        3.260854    3.198486    2.151739
     41          6           0        5.213682   -1.472731   -0.609689
     42         16           0        6.108105    0.588856    0.661589
     43          1           0        4.126244    3.720189    2.554385
     44          1           0        2.744734    3.841295    1.433800
     45          1           0        2.583554    2.928821    2.966385
     46          6           0        6.632014   -1.592941   -0.617865
     47          8           0        4.330044   -2.336356   -1.168343
     48          6           0        7.238500   -0.553528    0.029651
     49          1           0        7.174848   -2.405687   -1.077617
     50          6           0        4.846428   -3.490067   -1.845161
     51          1           0        8.295670   -0.393194    0.177241
     52          1           0        5.411997   -4.123668   -1.157316
     53          1           0        3.977152   -4.032200   -2.210639
     54          1           0        5.477093   -3.195656   -2.687804
 ---------------------------------------------------------------------

 The electronic state is 1-A.
 Alpha  occ. eigenvalues --  -88.88971 -88.88619 -19.17129 -19.17014 -19.12909
 Alpha  occ. eigenvalues --  -19.12886 -19.12371 -19.12287 -14.38883 -14.38415
 Alpha  occ. eigenvalues --  -10.31478 -10.31321 -10.31064 -10.30877 -10.25032
 Alpha  occ. eigenvalues --  -10.25013 -10.23717 -10.22876 -10.22857 -10.22795
 Alpha  occ. eigenvalues --  -10.22760 -10.22486 -10.22429 -10.22313 -10.22274
 Alpha  occ. eigenvalues --  -10.22235 -10.22014 -10.22013 -10.21546 -10.21048
 Alpha  occ. eigenvalues --  -10.21008 -10.20965 -10.20909 -10.20745 -10.19202
 Alpha  occ. eigenvalues --  -10.18843  -7.97531  -7.97177  -5.93847  -5.93487
 Alpha  occ. eigenvalues --   -5.93461  -5.93100  -5.93081  -5.92745  -1.08995
 Alpha  occ. eigenvalues --   -1.08581  -1.08520  -1.08417  -1.07185  -1.06698
 Alpha  occ. eigenvalues --   -0.96513  -0.96031  -0.92471  -0.90647  -0.88963
 Alpha  occ. eigenvalues --   -0.86723  -0.84301  -0.80581  -0.78519  -0.77761
 Alpha  occ. eigenvalues --   -0.76369  -0.75359  -0.75244  -0.73304  -0.72502
 Alpha  occ. eigenvalues --   -0.71916  -0.70183  -0.68919  -0.67386  -0.65960
 Alpha  occ. eigenvalues --   -0.65618  -0.64867  -0.61294  -0.59958  -0.58691
 Alpha  occ. eigenvalues --   -0.57500  -0.56730  -0.56084  -0.55483  -0.54794
 Alpha  occ. eigenvalues --   -0.53576  -0.51798  -0.50418  -0.50064  -0.49996
 Alpha  occ. eigenvalues --   -0.49503  -0.49162  -0.48608  -0.48359  -0.47969
 Alpha  occ. eigenvalues --   -0.47961  -0.47275  -0.46970  -0.46577  -0.45959
 Alpha  occ. eigenvalues --   -0.45501  -0.45318  -0.44994  -0.44125  -0.43821
 Alpha  occ. eigenvalues --   -0.42889  -0.42728  -0.42276  -0.42196  -0.41903
 Alpha  occ. eigenvalues --   -0.41788  -0.41423  -0.41133  -0.40658  -0.40011
 Alpha  occ. eigenvalues --   -0.39765  -0.39224  -0.39089  -0.37855  -0.37576
 Alpha  occ. eigenvalues --   -0.36418  -0.36008  -0.34380  -0.34064  -0.33873
 Alpha  occ. eigenvalues --   -0.33705  -0.32219  -0.31568  -0.30797  -0.30029
 Alpha  occ. eigenvalues --   -0.29749  -0.29302  -0.29210  -0.28535  -0.27523
 Alpha  occ. eigenvalues --   -0.26207  -0.25126  -0.24929  -0.19643
 Alpha virt. eigenvalues --   -0.13301  -0.07601  -0.06504  -0.04837  -0.04069
 Alpha virt. eigenvalues --   -0.00711  -0.00572   0.00120   0.00388   0.00475
 Alpha virt. eigenvalues --    0.00704   0.01068   0.01269   0.01502   0.02095

 Mulliken charges:
               1
     1  C    0.425264
     2  C   -0.107053
     3  C    0.137745
     4  C    0.236650
     5  C    0.297865
     6  C   -0.281299
     7  C    0.173974
     8  C    0.464918
     9  C    0.373725
    10  C   -0.560192
    11  C    0.285781
    12  C    0.128401
    13  C   -0.480966
    14  C   -0.623943
    15  H    0.165453
    16  H    0.165641
    17  H    0.173299
    18  N   -0.012208
    19  N   -0.109878
    20  O   -0.348581
    21  O   -0.333611
    22  O   -0.353889
    23  O   -0.255403
    24  C   -0.197781
    25  H    0.179946
    26  H    0.190770
    27  H    0.179491
    28  C   -0.215276
    29  H    0.181897
    30  H    0.185290
    31  H    0.180067
    32  C    0.140705
    33  C   -0.581686
    34  S   -0.590413
    35  C   -0.291333
    36  H    0.164637
    37  C    0.730368
    38  O   -0.156499
    39  C    0.770951
    40  C   -0.243081
    41  C    0.010375
    42  S   -0.229978
    43  H    0.178185
    44  H    0.166204
    45  H    0.164236
    46  C   -0.612242
    47  O   -0.157685
    48  C   -0.312271
    49  H    0.163350
    50  C   -0.253020
    51  H    0.191610
    52  H    0.162800
    53  H    0.175478
    54  H    0.163215
 Sum of Mulliken charges =  -0.00000

 Dipole moment (field-independent basis, Debye):
    X=              4.9452    Y=             -0.5935    Z=              0.9547  Tot=              5.0714
 Quadrupole moment (field-independent basis, Debye-Ang):
   XX=           -212.9074   YY=           -213.4252   ZZ=           -216.2654
   XY=             -6.9473   XZ=             -3.8105   YZ=             18.7342

 Normal termination of Gaussian 16 at Wed Oct 27 22:19:04 2021.
