 Gaussian 16, Revision C.01,
 Gaussian 16:  ES64L-G16RevC.01  3-Jul-2019

 ---------------------------------------------------------------
 # opt=modredundant b3lyp/6-311+g(d,p) scrf=(pcm, solvent=water)
 ---------------------------------------------------------------

 ----------
 NDI_10.pdb
 ----------
 Symbolic Z-matrix:
 Charge =  0 Multiplicity = 1

 SCF Done:  E(RB3LYP) =  -2359.33779092     A.U. after   16 cycles
 SCF Done:  E(RB3LYP) =  -2359.33550464     A.U. after   17 cycles
 SCF Done:  E(RB3LYP) =  -2359.35109198     A.U. after   14 cycles
 SCF Done:  E(RB3LYP) =  -2359.35322426     A.U. after   16 cycles
 SCF Done:  E(RB3LYP) =  -2359.35359595     A.U. after   12 cycles
 SCF Done:  E(RB3LYP) =  -2359.35400776     A.U. after   12 cycles
 SCF Done:  E(RB3LYP) =  -2359.35429168     A.U. after   12 cycles
 SCF Done:  E(RB3LYP) =  -2359.35449489     A.U. after   15 cycles
 SCF Done:  E(RB3LYP) =  -2359.35461817     A.U. after   12 cycles
 SCF Done:  E(RB3LYP) =  -2359.35473241     A.U. after   12 cycles
 SCF Done:  E(RB3LYP) =  -2359.35495069     A.U. after   11 cycles
 SCF Done:  E(RB3LYP) =  -2359.35495803     A.U. after   11 cycles
 SCF Done:  E(RB3LYP) =  -2359.35496577     A.U. after   10 cycles
 SCF Done:  E(RB3LYP) =  -2359.35497351     A.U. after   10 cycles
 SCF Done:  E(RB3LYP) =  -2359.35498166     A.U. after   10 cycles
 SCF Done:  E(RB3LYP) =  -2359.35498691     A.U. after   11 cycles
 SCF Done:  E(RB3LYP) =  -2359.35498864     A.U. after   10 cycles
 SCF Done:  E(RB3LYP) =  -2359.35498948     A.U. after   10 cycles
 SCF Done:  E(RB3LYP) =  -2359.35498953     A.U. after    8 cycles
 SCF Done:  E(RB3LYP) =  -2359.35498956     A.U. after    8 cycles
 Optimization completed.
    -- Stationary point found.

                         Standard orientation:
 ---------------------------------------------------------------------
 Center     Atomic      Atomic             Coordinates (Angstroms)
 Number     Number       Type             X           Y           Z
 ---------------------------------------------------------------------
      1          6           0       -2.426263   -3.005818    0.393353
      2          6           0       -2.178422   -1.546273    0.288849
      3          6           0       -3.242173   -0.660336    0.006726
      4          6           0       -4.539752   -1.151114   -0.228101
      5          6           0       -4.810911   -2.609725   -0.157210
      6          6           0       -0.907945   -1.065465    0.438631
      7          6           0       -2.966910    0.732817   -0.022867
      8          6           0       -1.651700    1.231817    0.233323
      9          6           0       -0.559239    0.322178    0.358149
     10          6           0       -1.548864    2.691437    0.448953
     11          6           0       -3.838403    3.058333   -0.419804
     12          6           0       -4.045713    1.599486   -0.336110
     13          6           0       -5.315045    1.095946   -0.589672
     14          6           0       -5.572992   -0.274929   -0.527092
     15          1           0       -6.566299   -0.660835   -0.712667
     16          1           0       -6.106271    1.791246   -0.837535
     17          1           0       -0.138439   -1.800348    0.631022
     18          7           0       -2.580835    3.510767   -0.039221
     19          7           0       -3.728680   -3.445685    0.152904
     20          8           0       -1.546633   -3.807359    0.669679
     21          8           0       -5.924102   -3.070908   -0.353849
     22          8           0       -4.716937    3.835621   -0.772586
     23          8           0       -0.631507    3.228200    1.056087
     24          6           0       -2.361842    4.963129    0.038640
     25          1           0       -2.516314    5.321162    1.058379
     26          1           0       -1.341789    5.185811   -0.264092
     27          1           0       -3.070740    5.445060   -0.626871
     28          6           0       -3.956770   -4.896204    0.243418
     29          1           0       -3.301174   -5.413688   -0.456168
     30          1           0       -3.739810   -5.241770    1.254191
     31          1           0       -4.995045   -5.090376   -0.002012
     32          6           0        0.873806    0.596166    0.305991
     33          6           0        1.622058    1.765203    0.304835
     34         16           0        1.969586   -0.786799    0.107182
     35          6           0        3.002776    1.564766    0.144911
     36          1           0        1.179006    2.733813    0.440287
     37          6           0        3.386762    0.226102    0.021476
     38          8           0        3.956291    2.528395    0.114979
     39          6           0        4.709430   -0.298230   -0.146401
     40          6           0        3.539455    3.895372    0.227813
     41          6           0        5.090739   -1.636467   -0.242209
     42         16           0        6.140255    0.725948   -0.266695
     43          1           0        4.450078    4.487401    0.170093
     44          1           0        2.870968    4.166052   -0.593429
     45          1           0        3.045023    4.073192    1.186254
     46          6           0        6.490198   -1.831251   -0.406059
     47          8           0        4.147055   -2.603358   -0.177407
     48          6           0        7.171634   -0.646574   -0.436319
     49          1           0        6.968396   -2.795258   -0.497076
     50          6           0        4.569485   -3.972286   -0.260424
     51          1           0        8.235394   -0.501176   -0.548549
     52          1           0        5.245880   -4.219254    0.561425
     53          1           0        3.661964   -4.566077   -0.179531
     54          1           0        5.054603   -4.170122   -1.219317
 ---------------------------------------------------------------------

 The electronic state is 1-A.
 Alpha  occ. eigenvalues --  -88.89024 -88.88867 -19.17444 -19.17143 -19.12862
 Alpha  occ. eigenvalues --  -19.12845 -19.12415 -19.12121 -14.38840 -14.38333
 Alpha  occ. eigenvalues --  -10.31420 -10.31269 -10.31028 -10.30608 -10.25462
 Alpha  occ. eigenvalues --  -10.25148 -10.24312 -10.23328 -10.23007 -10.22968
 Alpha  occ. eigenvalues --  -10.22884 -10.22724 -10.22498 -10.22281 -10.22172
 Alpha  occ. eigenvalues --  -10.22069 -10.22056 -10.21771 -10.21514 -10.21358
 Alpha  occ. eigenvalues --  -10.20890 -10.20805 -10.20741 -10.20692 -10.19055
 Alpha  occ. eigenvalues --  -10.18976  -7.97603  -7.97422  -5.93922  -5.93732
 Alpha  occ. eigenvalues --   -5.93529  -5.93344  -5.93144  -5.92989  -1.08949
 Alpha  occ. eigenvalues --   -1.08864  -1.08604  -1.08573  -1.07137  -1.06587
 Alpha  occ. eigenvalues --   -0.96472  -0.96004  -0.92316  -0.90804  -0.89115
 Alpha  occ. eigenvalues --   -0.86623  -0.84162  -0.80668  -0.78458  -0.77940
 Alpha  occ. eigenvalues --   -0.76483  -0.75514  -0.75200  -0.73483  -0.72469
 Alpha  occ. eigenvalues --   -0.71989  -0.70301  -0.68966  -0.67381  -0.65885
 Alpha  occ. eigenvalues --   -0.65653  -0.64776  -0.61439  -0.60103  -0.58796
 Alpha  occ. eigenvalues --   -0.57465  -0.56837  -0.56357  -0.55493  -0.55019
 Alpha  occ. eigenvalues --   -0.53453  -0.51737  -0.50668  -0.50125  -0.49930
 Alpha  occ. eigenvalues --   -0.49567  -0.49119  -0.48605  -0.48524  -0.48104
 Alpha  occ. eigenvalues --   -0.48086  -0.47426  -0.46835  -0.46532  -0.46168
 Alpha  occ. eigenvalues --   -0.45476  -0.45393  -0.44815  -0.44211  -0.43437
 Alpha  occ. eigenvalues --   -0.42981  -0.42702  -0.42422  -0.42136  -0.42065
 Alpha  occ. eigenvalues --   -0.41832  -0.41405  -0.41139  -0.40731  -0.39918
 Alpha  occ. eigenvalues --   -0.39646  -0.39286  -0.39029  -0.38090  -0.37294
 Alpha  occ. eigenvalues --   -0.36642  -0.36236  -0.34500  -0.34254  -0.33793
 Alpha  occ. eigenvalues --   -0.33574  -0.32109  -0.31508  -0.30782  -0.30297
 Alpha  occ. eigenvalues --   -0.29696  -0.29357  -0.28947  -0.28547  -0.27523
 Alpha  occ. eigenvalues --   -0.26267  -0.25378  -0.25051  -0.19888
 Alpha virt. eigenvalues --   -0.13150  -0.08360  -0.06556  -0.04729  -0.03667
 Alpha virt. eigenvalues --   -0.00628  -0.00561   0.00150   0.00255   0.00479
 Alpha virt. eigenvalues --    0.00653   0.01283   0.01430   0.01571   0.01952

 Mulliken charges:
               1
     1  C    0.451990
     2  C   -0.012229
     3  C    0.049468
     4  C    0.333858
     5  C    0.345841
     6  C   -0.086525
     7  C    0.051489
     8  C    0.422374
     9  C    0.166140
    10  C   -0.486598
    11  C    0.298905
    12  C    0.193039
    13  C   -0.482414
    14  C   -0.681759
    15  H    0.164094
    16  H    0.164914
    17  H    0.168927
    18  N   -0.003889
    19  N   -0.106614
    20  O   -0.348159
    21  O   -0.336938
    22  O   -0.365325
    23  O   -0.324761
    24  C   -0.184797
    25  H    0.189185
    26  H    0.181661
    27  H    0.179346
    28  C   -0.213593
    29  H    0.182566
    30  H    0.184345
    31  H    0.179945
    32  C   -0.179762
    33  C   -0.087997
    34  S   -0.778178
    35  C   -0.318006
    36  H    0.193745
    37  C    0.671156
    38  O   -0.159583
    39  C    0.750165
    40  C   -0.243451
    41  C    0.038561
    42  S   -0.202719
    43  H    0.179728
    44  H    0.164663
    45  H    0.165239
    46  C   -0.593808
    47  O   -0.150087
    48  C   -0.335979
    49  H    0.164917
    50  C   -0.253844
    51  H    0.194260
    52  H    0.164561
    53  H    0.177300
    54  H    0.164633
 Sum of Mulliken charges =  -0.00000

 Dipole moment (field-independent basis, Debye):
    X=              7.3465    Y=             -1.1029    Z=             -0.9961  Tot=              7.4953
 Quadrupole moment (field-independent basis, Debye-Ang):
   XX=           -209.9870   YY=           -203.6486   ZZ=           -226.8547
   XY=             -7.3164   XZ=             -9.1133   YZ=              2.7003

 Normal termination of Gaussian 16 at Wed Oct 27 21:33:58 2021.
