 Gaussian 16, Revision C.01,
 Gaussian 16:  ES64L-G16RevC.01  3-Jul-2019

 ---------------------------------------------------------------
 # opt=modredundant b3lyp/6-311+g(d,p) scrf=(pcm, solvent=water)
 ---------------------------------------------------------------

 -----------
 NDI_175.pdb
 -----------
 Symbolic Z-matrix:
 Charge =  0 Multiplicity = 1

 SCF Done:  E(RB3LYP) =  -2359.31188662     A.U. after   17 cycles
 SCF Done:  E(RB3LYP) =  -2359.34279037     A.U. after   17 cycles
 SCF Done:  E(RB3LYP) =  -2359.35162823     A.U. after   15 cycles
 SCF Done:  E(RB3LYP) =  -2359.35409058     A.U. after   14 cycles
 SCF Done:  E(RB3LYP) =  -2359.35460465     A.U. after   14 cycles
 SCF Done:  E(RB3LYP) =  -2359.35477403     A.U. after   15 cycles
 SCF Done:  E(RB3LYP) =  -2359.35503839     A.U. after   13 cycles
 SCF Done:  E(RB3LYP) =  -2359.35525415     A.U. after   16 cycles
 SCF Done:  E(RB3LYP) =  -2359.35531985     A.U. after   15 cycles
 SCF Done:  E(RB3LYP) =  -2359.35549643     A.U. after   15 cycles
 SCF Done:  E(RB3LYP) =  -2359.35637770     A.U. after    9 cycles
 SCF Done:  E(RB3LYP) =  -2359.35637787     A.U. after    9 cycles
 SCF Done:  E(RB3LYP) =  -2359.35637794     A.U. after    8 cycles
 SCF Done:  E(RB3LYP) =  -2359.35637797     A.U. after    8 cycles
 SCF Done:  E(RB3LYP) =  -2359.35637806     A.U. after    8 cycles
 SCF Done:  E(RB3LYP) =  -2359.35637814     A.U. after    8 cycles
 SCF Done:  E(RB3LYP) =  -2359.35637822     A.U. after    8 cycles
 SCF Done:  E(RB3LYP) =  -2359.35637829     A.U. after    8 cycles
 SCF Done:  E(RB3LYP) =  -2359.35637836     A.U. after    8 cycles
 SCF Done:  E(RB3LYP) =  -2359.35637839     A.U. after    8 cycles
 Optimization completed.
    -- Stationary point found.

                         Standard orientation:
 ---------------------------------------------------------------------
 Center     Atomic      Atomic             Coordinates (Angstroms)
 Number     Number       Type             X           Y           Z
 ---------------------------------------------------------------------
      1          6           0       -3.600892   -2.643377   -0.079327
      2          6           0       -2.814245   -1.397287    0.098513
      3          6           0       -3.429937   -0.137131   -0.081868
      4          6           0       -4.785402   -0.043684   -0.448467
      5          6           0       -5.592217   -1.275184   -0.642344
      6          6           0       -1.477481   -1.477830    0.384571
      7          6           0       -2.649142    1.030811    0.123098
      8          6           0       -1.276294    0.933998    0.494235
      9          6           0       -0.638227   -0.332473    0.550658
     10          6           0       -0.627851    2.179742    0.959116
     11          6           0       -2.529424    3.541497    0.139098
     12          6           0       -3.281196    2.285653   -0.063842
     13          6           0       -4.615443    2.358157   -0.441778
     14          6           0       -5.373430    1.199651   -0.631968
     15          1           0       -6.414697    1.261492   -0.918538
     16          1           0       -5.062090    3.333379   -0.584791
     17          1           0       -1.050035   -2.467400    0.438519
     18          7           0       -1.235549    3.403340    0.632540
     19          7           0       -4.945786   -2.500662   -0.426836
     20          8           0       -3.118654   -3.756396    0.066718
     21          8           0       -6.767680   -1.234431   -0.970106
     22          8           0       -3.012432    4.645025   -0.080924
     23          8           0        0.391066    2.194656    1.635797
     24          6           0       -0.493063    4.623321    0.983902
     25          1           0       -0.587276    4.835617    2.050735
     26          1           0        0.557452    4.481570    0.743031
     27          1           0       -0.907901    5.446830    0.411745
     28          6           0       -5.713983   -3.744201   -0.593629
     29          1           0       -5.317950   -4.315864   -1.433454
     30          1           0       -5.634989   -4.344317    0.311769
     31          1           0       -6.748736   -3.479083   -0.780696
     32          6           0        0.794216   -0.614255    0.602248
     33          6           0        1.354585   -1.881274    0.756397
     34         16           0        2.036764    0.514310    0.096201
     35          6           0        2.731183   -1.937352    0.495762
     36          1           0        0.792704   -2.745318    1.073994
     37          6           0        3.279472   -0.719122    0.082952
     38          8           0        3.535468   -3.025813    0.603892
     39          6           0        4.641088   -0.444495   -0.267676
     40          6           0        2.944086   -4.260622    1.025968
     41          6           0        5.186327    0.766409   -0.695799
     42         16           0        5.910880   -1.668348   -0.215876
     43          1           0        3.755548   -4.984512    1.050982
     44          1           0        2.508810   -4.162255    2.024103
     45          1           0        2.180671   -4.589415    0.315784
     46          6           0        6.580814    0.710912   -0.970804
     47          8           0        4.387979    1.851907   -0.813965
     48          6           0        7.096097   -0.536741   -0.755242
     49          1           0        7.171956    1.548295   -1.310780
     50          6           0        4.975606    3.081265   -1.263897
     51          1           0        8.118153   -0.859072   -0.885087
     52          1           0        5.395709    2.965311   -2.265969
     53          1           0        4.163711    3.804436   -1.288072
     54          1           0        5.748523    3.418272   -0.568978
 ---------------------------------------------------------------------

 The electronic state is 1-A.
 Alpha  occ. eigenvalues --  -88.88829 -88.88822 -19.17415 -19.17063 -19.12843
 Alpha  occ. eigenvalues --  -19.12811 -19.12236 -19.12197 -14.38816 -14.38336
 Alpha  occ. eigenvalues --  -10.31396 -10.31243 -10.30863 -10.30695 -10.25437
 Alpha  occ. eigenvalues --  -10.25042 -10.23994 -10.23150 -10.22992 -10.22903
 Alpha  occ. eigenvalues --  -10.22794 -10.22604 -10.22252 -10.22162 -10.22157
 Alpha  occ. eigenvalues --  -10.22059 -10.22045 -10.21788 -10.21459 -10.21338
 Alpha  occ. eigenvalues --  -10.20876 -10.20836 -10.20719 -10.20716 -10.19715
 Alpha  occ. eigenvalues --  -10.19033  -7.97386  -7.97370  -5.93696  -5.93693
 Alpha  occ. eigenvalues --   -5.93308  -5.93290  -5.92953  -5.92913  -1.08917
 Alpha  occ. eigenvalues --   -1.08834  -1.08501  -1.08483  -1.07106  -1.06562
 Alpha  occ. eigenvalues --   -0.96432  -0.95973  -0.92303  -0.90762  -0.89105
 Alpha  occ. eigenvalues --   -0.86617  -0.84137  -0.80691  -0.78363  -0.77798
 Alpha  occ. eigenvalues --   -0.76540  -0.75553  -0.75165  -0.73518  -0.72520
 Alpha  occ. eigenvalues --   -0.71567  -0.70504  -0.68973  -0.67288  -0.65925
 Alpha  occ. eigenvalues --   -0.65432  -0.64978  -0.61229  -0.60157  -0.58754
 Alpha  occ. eigenvalues --   -0.57522  -0.56828  -0.56221  -0.55134  -0.54863
 Alpha  occ. eigenvalues --   -0.53886  -0.51640  -0.50337  -0.50143  -0.49726
 Alpha  occ. eigenvalues --   -0.49539  -0.49137  -0.48584  -0.48489  -0.48139
 Alpha  occ. eigenvalues --   -0.48069  -0.47273  -0.46935  -0.46517  -0.45839
 Alpha  occ. eigenvalues --   -0.45571  -0.45389  -0.44936  -0.44267  -0.43729
 Alpha  occ. eigenvalues --   -0.42901  -0.42686  -0.42323  -0.42101  -0.41924
 Alpha  occ. eigenvalues --   -0.41828  -0.41528  -0.41112  -0.40744  -0.40106
 Alpha  occ. eigenvalues --   -0.39732  -0.39268  -0.38905  -0.37786  -0.37333
 Alpha  occ. eigenvalues --   -0.36559  -0.36375  -0.34469  -0.34190  -0.33808
 Alpha  occ. eigenvalues --   -0.33722  -0.31939  -0.31453  -0.30764  -0.30288
 Alpha  occ. eigenvalues --   -0.29647  -0.29319  -0.29004  -0.28624  -0.27438
 Alpha  occ. eigenvalues --   -0.26127  -0.25280  -0.24836  -0.19790
 Alpha virt. eigenvalues --   -0.13190  -0.08169  -0.06422  -0.04688  -0.03881
 Alpha virt. eigenvalues --   -0.00686  -0.00516   0.00167   0.00240   0.00409
 Alpha virt. eigenvalues --    0.00872   0.01318   0.01514   0.01578   0.02097

 Mulliken charges:
               1
     1  C    0.411813
     2  C   -0.090237
     3  C    0.161072
     4  C    0.213194
     5  C    0.281456
     6  C    0.175002
     7  C    0.059951
     8  C    0.435140
     9  C    0.361508
    10  C   -0.667330
    11  C    0.330078
    12  C    0.075795
    13  C   -0.464323
    14  C   -0.586568
    15  H    0.163619
    16  H    0.164489
    17  H    0.164875
    18  N    0.044641
    19  N   -0.117093
    20  O   -0.346218
    21  O   -0.333896
    22  O   -0.359656
    23  O   -0.286745
    24  C   -0.199499
    25  H    0.190171
    26  H    0.182573
    27  H    0.179910
    28  C   -0.213593
    29  H    0.186350
    30  H    0.180086
    31  H    0.179265
    32  C   -0.054578
    33  C   -0.342703
    34  S   -0.720630
    35  C   -0.513842
    36  H    0.160069
    37  C    0.646459
    38  O   -0.158158
    39  C    0.850495
    40  C   -0.243198
    41  C   -0.002495
    42  S   -0.217506
    43  H    0.179849
    44  H    0.165132
    45  H    0.164560
    46  C   -0.536679
    47  O   -0.145896
    48  C   -0.317750
    49  H    0.164791
    50  C   -0.254258
    51  H    0.193815
    52  H    0.164328
    53  H    0.177058
    54  H    0.165308
 Sum of Mulliken charges =  -0.00000

 Dipole moment (field-independent basis, Debye):
    X=              6.7732    Y=             -1.4640    Z=             -1.3398  Tot=              7.0579
 Quadrupole moment (field-independent basis, Debye-Ang):
   XX=           -203.6766   YY=           -212.5800   ZZ=           -223.9746
   XY=             15.5769   XZ=            -14.9239   YZ=             -9.3190

 Normal termination of Gaussian 16 at Thu Oct 28 09:16:09 2021.
