 Gaussian 16, Revision C.01,
 Gaussian 16:  ES64L-G16RevC.01  3-Jul-2019

 ---------------------------------------------------------------
 # opt=modredundant b3lyp/6-311+g(d,p) scrf=(pcm, solvent=water)
 ---------------------------------------------------------------

 -----------
 NDI_170.pdb
 -----------
 Symbolic Z-matrix:
 Charge =  0 Multiplicity = 1

 SCF Done:  E(RB3LYP) =  -2359.31437478     A.U. after   17 cycles
 SCF Done:  E(RB3LYP) =  -2359.34309283     A.U. after   17 cycles
 SCF Done:  E(RB3LYP) =  -2359.35193856     A.U. after   15 cycles
 SCF Done:  E(RB3LYP) =  -2359.35454149     A.U. after   15 cycles
 SCF Done:  E(RB3LYP) =  -2359.35521628     A.U. after   15 cycles
 SCF Done:  E(RB3LYP) =  -2359.35539066     A.U. after   15 cycles
 SCF Done:  E(RB3LYP) =  -2359.35573457     A.U. after   12 cycles
 SCF Done:  E(RB3LYP) =  -2359.35591876     A.U. after   13 cycles
 SCF Done:  E(RB3LYP) =  -2359.35603945     A.U. after   16 cycles
 SCF Done:  E(RB3LYP) =  -2359.35638796     A.U. after   13 cycles
 SCF Done:  E(RB3LYP) =  -2359.35708476     A.U. after    9 cycles
 SCF Done:  E(RB3LYP) =  -2359.35708510     A.U. after    9 cycles
 SCF Done:  E(RB3LYP) =  -2359.35708509     A.U. after    9 cycles
 SCF Done:  E(RB3LYP) =  -2359.35708515     A.U. after    8 cycles
 SCF Done:  E(RB3LYP) =  -2359.35708517     A.U. after    7 cycles
 SCF Done:  E(RB3LYP) =  -2359.35708516     A.U. after    7 cycles
 SCF Done:  E(RB3LYP) =  -2359.35708522     A.U. after    8 cycles
 SCF Done:  E(RB3LYP) =  -2359.35708526     A.U. after    9 cycles
 SCF Done:  E(RB3LYP) =  -2359.35708535     A.U. after    8 cycles
 SCF Done:  E(RB3LYP) =  -2359.35708540     A.U. after    8 cycles
 Optimization completed.
    -- Stationary point found.

                         Standard orientation:
 ---------------------------------------------------------------------
 Center     Atomic      Atomic             Coordinates (Angstroms)
 Number     Number       Type             X           Y           Z
 ---------------------------------------------------------------------
      1          6           0       -3.576995   -2.657007   -0.143095
      2          6           0       -2.799283   -1.410580    0.068025
      3          6           0       -3.421302   -0.150363   -0.090023
      4          6           0       -4.775409   -0.057106   -0.463274
      5          6           0       -5.573518   -1.289080   -0.688283
      6          6           0       -1.463154   -1.488389    0.361622
      7          6           0       -2.650404    1.019183    0.142803
      8          6           0       -1.280000    0.923456    0.520102
      9          6           0       -0.637834   -0.339215    0.556931
     10          6           0       -0.638797    2.162216    1.017443
     11          6           0       -2.543339    3.529230    0.211290
     12          6           0       -3.288306    2.273903   -0.021771
     13          6           0       -4.620428    2.345982   -0.405808
     14          6           0       -5.369557    1.186137   -0.624487
     15          1           0       -6.409461    1.247480   -0.916166
     16          1           0       -5.073005    3.320874   -0.531492
     17          1           0       -1.021913   -2.473503    0.394854
     18          7           0       -1.250957    3.388694    0.708715
     19          7           0       -4.921122   -2.514845   -0.494026
     20          8           0       -3.088280   -3.769923   -0.019988
     21          8           0       -6.746951   -1.248396   -1.023167
     22          8           0       -3.031146    4.634279    0.011354
     23          8           0        0.372846    2.167344    1.703956
     24          6           0       -0.518871    4.606557    1.088082
     25          1           0       -0.635346    4.807738    2.154935
     26          1           0        0.536476    4.469080    0.867133
     27          1           0       -0.923546    5.435569    0.516466
     28          6           0       -5.680943   -3.759058   -0.691540
     29          1           0       -5.282084   -4.306879   -1.545853
     30          1           0       -5.596652   -4.380965    0.198468
     31          1           0       -6.717706   -3.496485   -0.870970
     32          6           0        0.796826   -0.605231    0.614967
     33          6           0        1.374204   -1.850103    0.846101
     34         16           0        2.013258    0.508119    0.024710
     35          6           0        2.752592   -1.898699    0.584612
     36          1           0        0.822666   -2.697498    1.223093
     37          6           0        3.278965   -0.700673    0.092694
     38          8           0        3.575711   -2.964420    0.758271
     39          6           0        4.633867   -0.427218   -0.286159
     40          6           0        3.003114   -4.185384    1.242184
     41          6           0        5.156379    0.763474   -0.790764
     42         16           0        5.922743   -1.626234   -0.172180
     43          1           0        3.826306   -4.893407    1.306944
     44          1           0        2.562802   -4.042909    2.232709
     45          1           0        2.247722   -4.563026    0.547863
     46          6           0        6.549584    0.713049   -1.074023
     47          8           0        4.339280    1.827574   -0.967423
     48          6           0        7.086321   -0.511277   -0.788788
     49          1           0        7.124575    1.537538   -1.468836
     50          6           0        4.906231    3.040896   -1.482254
     51          1           0        8.112207   -0.825397   -0.907961
     52          1           0        5.327105    2.879704   -2.477709
     53          1           0        4.082680    3.748636   -1.542818
     54          1           0        5.674391    3.426491   -0.807513
 ---------------------------------------------------------------------

 The electronic state is 1-A.
 Alpha  occ. eigenvalues --  -88.88822 -88.88796 -19.17370 -19.17047 -19.12851
 Alpha  occ. eigenvalues --  -19.12821 -19.12251 -19.12234 -14.38824 -14.38346
 Alpha  occ. eigenvalues --  -10.31406 -10.31256 -10.30902 -10.30732 -10.25367
 Alpha  occ. eigenvalues --  -10.25035 -10.23913 -10.23116 -10.22974 -10.22891
 Alpha  occ. eigenvalues --  -10.22715 -10.22623 -10.22213 -10.22207 -10.22192
 Alpha  occ. eigenvalues --  -10.22094 -10.22082 -10.21830 -10.21481 -10.21282
 Alpha  occ. eigenvalues --  -10.20880 -10.20877 -10.20766 -10.20728 -10.19668
 Alpha  occ. eigenvalues --  -10.19002  -7.97377  -7.97352  -5.93699  -5.93662
 Alpha  occ. eigenvalues --   -5.93300  -5.93274  -5.92920  -5.92918  -1.08927
 Alpha  occ. eigenvalues --   -1.08781  -1.08499  -1.08476  -1.07116  -1.06587
 Alpha  occ. eigenvalues --   -0.96442  -0.95984  -0.92337  -0.90749  -0.89089
 Alpha  occ. eigenvalues --   -0.86637  -0.84165  -0.80686  -0.78386  -0.77786
 Alpha  occ. eigenvalues --   -0.76515  -0.75524  -0.75172  -0.73501  -0.72531
 Alpha  occ. eigenvalues --   -0.71568  -0.70478  -0.68963  -0.67302  -0.65933
 Alpha  occ. eigenvalues --   -0.65436  -0.64983  -0.61221  -0.60132  -0.58745
 Alpha  occ. eigenvalues --   -0.57527  -0.56825  -0.56194  -0.55088  -0.54875
 Alpha  occ. eigenvalues --   -0.53890  -0.51655  -0.50335  -0.50140  -0.49735
 Alpha  occ. eigenvalues --   -0.49562  -0.49143  -0.48583  -0.48465  -0.48121
 Alpha  occ. eigenvalues --   -0.48049  -0.47254  -0.46953  -0.46527  -0.45835
 Alpha  occ. eigenvalues --   -0.45535  -0.45389  -0.44996  -0.44282  -0.43746
 Alpha  occ. eigenvalues --   -0.42886  -0.42661  -0.42294  -0.42085  -0.41942
 Alpha  occ. eigenvalues --   -0.41845  -0.41529  -0.41114  -0.40740  -0.40098
 Alpha  occ. eigenvalues --   -0.39717  -0.39259  -0.38902  -0.37813  -0.37380
 Alpha  occ. eigenvalues --   -0.36529  -0.36373  -0.34440  -0.34168  -0.33823
 Alpha  occ. eigenvalues --   -0.33727  -0.31967  -0.31469  -0.30758  -0.30264
 Alpha  occ. eigenvalues --   -0.29651  -0.29318  -0.29042  -0.28626  -0.27463
 Alpha  occ. eigenvalues --   -0.26131  -0.25281  -0.24819  -0.19760
 Alpha virt. eigenvalues --   -0.13211  -0.08072  -0.06435  -0.04715  -0.03907
 Alpha virt. eigenvalues --   -0.00712  -0.00537   0.00157   0.00252   0.00381
 Alpha virt. eigenvalues --    0.00845   0.01308   0.01425   0.01585   0.02051

 Mulliken charges:
               1
     1  C    0.416257
     2  C   -0.087369
     3  C    0.163691
     4  C    0.227429
     5  C    0.278816
     6  C    0.159055
     7  C    0.077014
     8  C    0.441755
     9  C    0.341099
    10  C   -0.685378
    11  C    0.348923
    12  C    0.066189
    13  C   -0.476235
    14  C   -0.589186
    15  H    0.164007
    16  H    0.164631
    17  H    0.164147
    18  N    0.052827
    19  N   -0.116109
    20  O   -0.346911
    21  O   -0.334495
    22  O   -0.359075
    23  O   -0.287956
    24  C   -0.205107
    25  H    0.190523
    26  H    0.182890
    27  H    0.180130
    28  C   -0.212486
    29  H    0.186723
    30  H    0.179872
    31  H    0.179422
    32  C   -0.008400
    33  C   -0.482336
    34  S   -0.714223
    35  C   -0.481073
    36  H    0.161627
    37  C    0.696504
    38  O   -0.157689
    39  C    0.875619
    40  C   -0.243228
    41  C   -0.000527
    42  S   -0.212773
    43  H    0.179527
    44  H    0.164355
    45  H    0.165423
    46  C   -0.554657
    47  O   -0.149149
    48  C   -0.313819
    49  H    0.164569
    50  C   -0.254429
    51  H    0.193538
    52  H    0.164156
    53  H    0.176777
    54  H    0.165116
 Sum of Mulliken charges =  -0.00000

 Dipole moment (field-independent basis, Debye):
    X=              6.4501    Y=             -1.3839    Z=             -1.3596  Tot=              6.7355
 Quadrupole moment (field-independent basis, Debye-Ang):
   XX=           -204.6975   YY=           -213.3087   ZZ=           -222.7570
   XY=             14.9974   XZ=            -15.5245   YZ=            -11.3260

 Normal termination of Gaussian 16 at Thu Oct 28 05:43:59 2021.
