 Gaussian 16, Revision C.01,
 Gaussian 16:  ES64L-G16RevC.01  3-Jul-2019

 ---------------------------------------------------------------
 # opt=modredundant b3lyp/6-311+g(d,p) scrf=(pcm, solvent=water)
 ---------------------------------------------------------------

 ----------
 NDI_65.pdb
 ----------
 Symbolic Z-matrix:
 Charge =  0 Multiplicity = 1

 SCF Done:  E(RB3LYP) =  -2359.35261046     A.U. after   17 cycles
 SCF Done:  E(RB3LYP) =  -2359.35670225     A.U. after   15 cycles
 SCF Done:  E(RB3LYP) =  -2359.35773991     A.U. after   15 cycles
 SCF Done:  E(RB3LYP) =  -2359.35816541     A.U. after   14 cycles
 SCF Done:  E(RB3LYP) =  -2359.35850367     A.U. after   13 cycles
 SCF Done:  E(RB3LYP) =  -2359.35867680     A.U. after   12 cycles
 SCF Done:  E(RB3LYP) =  -2359.35874069     A.U. after   12 cycles
 SCF Done:  E(RB3LYP) =  -2359.35877586     A.U. after   11 cycles
 SCF Done:  E(RB3LYP) =  -2359.35879077     A.U. after   11 cycles
 SCF Done:  E(RB3LYP) =  -2359.35880363     A.U. after   11 cycles
 SCF Done:  E(RB3LYP) =  -2359.35891177     A.U. after   11 cycles
 SCF Done:  E(RB3LYP) =  -2359.35891441     A.U. after   11 cycles
 SCF Done:  E(RB3LYP) =  -2359.35891705     A.U. after   11 cycles
 SCF Done:  E(RB3LYP) =  -2359.35891893     A.U. after   11 cycles
 SCF Done:  E(RB3LYP) =  -2359.35892196     A.U. after   10 cycles
 SCF Done:  E(RB3LYP) =  -2359.35892571     A.U. after   11 cycles
 SCF Done:  E(RB3LYP) =  -2359.35892713     A.U. after   11 cycles
 SCF Done:  E(RB3LYP) =  -2359.35892798     A.U. after   11 cycles
 SCF Done:  E(RB3LYP) =  -2359.35892833     A.U. after   10 cycles
 SCF Done:  E(RB3LYP) =  -2359.35892852     A.U. after    8 cycles
 Optimization completed.
    -- Stationary point found.

                         Standard orientation:
 ---------------------------------------------------------------------
 Center     Atomic      Atomic             Coordinates (Angstroms)
 Number     Number       Type             X           Y           Z
 ---------------------------------------------------------------------
      1          6           0       -2.917513   -2.906258    0.548160
      2          6           0       -2.440741   -1.521646    0.304154
      3          6           0       -3.367284   -0.486345    0.052291
      4          6           0       -4.754131   -0.749857    0.037290
      5          6           0       -5.256837   -2.126518    0.283071
      6          6           0       -1.094388   -1.242965    0.350428
      7          6           0       -2.885179    0.827234   -0.193706
      8          6           0       -1.487917    1.091612   -0.185450
      9          6           0       -0.589248    0.066853    0.146806
     10          6           0       -1.027954    2.443134   -0.613165
     11          6           0       -3.379903    3.241237   -0.698937
     12          6           0       -3.829526    1.852926   -0.441892
     13          6           0       -5.186182    1.574526   -0.443917
     14          6           0       -5.652320    0.274037   -0.207534
     15          1           0       -6.713059    0.061284   -0.215233
     16          1           0       -5.884919    2.378996   -0.631982
     17          1           0       -0.403289   -2.042349    0.583682
     18          7           0       -2.002291    3.445200   -0.751946
     19          7           0       -4.297136   -3.120423    0.516461
     20          8           0       -2.155878   -3.834753    0.768985
     21          8           0       -6.448741   -2.389069    0.281816
     22          8           0       -4.166700    4.160672   -0.871870
     23          8           0        0.133339    2.713194   -0.866039
     24          6           0       -1.508512    4.790266   -1.086357
     25          1           0       -0.677817    5.040002   -0.429906
     26          1           0       -1.164281    4.820913   -2.121419
     27          1           0       -2.324441    5.491990   -0.950133
     28          6           0       -4.750142   -4.498957    0.760578
     29          1           0       -4.301488   -5.166751    0.025972
     30          1           0       -4.447461   -4.815226    1.758854
     31          1           0       -5.830995   -4.518812    0.674915
     32          6           0        0.858643    0.256055    0.333089
     33          6           0        1.491206    0.991354    1.302074
     34         16           0        1.999309   -0.677730   -0.600365
     35          6           0        2.900480    0.833628    1.282060
     36          1           0        0.958740    1.618226    2.002312
     37          6           0        3.366723   -0.034556    0.300406
     38          8           0        3.787438    1.433350    2.120473
     39          6           0        4.730521   -0.380047   -0.009257
     40          6           0        3.283294    2.388616    3.061101
     41          6           0        5.187947   -1.282949   -0.961753
     42         16           0        6.110206    0.343798    0.814285
     43          1           0        4.152529    2.766094    3.595452
     44          1           0        2.780609    3.213030    2.548301
     45          1           0        2.596858    1.915772    3.768595
     46          6           0        6.606843   -1.392252   -1.029811
     47          8           0        4.291476   -1.961895   -1.725603
     48          6           0        7.229416   -0.573228   -0.131053
     49          1           0        7.138344   -2.044482   -1.707259
     50          6           0        4.796059   -2.895810   -2.687510
     51          1           0        8.289237   -0.458218    0.037608
     52          1           0        5.365893   -3.690185   -2.198236
     53          1           0        3.921419   -3.321419   -3.174768
     54          1           0        5.420272   -2.391918   -3.430163
 ---------------------------------------------------------------------

 The electronic state is 1-A.
 Alpha  occ. eigenvalues --  -88.88673 -88.88355 -19.16771 -19.16724 -19.13006
 Alpha  occ. eigenvalues --  -19.12992 -19.12652 -19.12607 -14.38973 -14.38654
 Alpha  occ. eigenvalues --  -10.31588 -10.31429 -10.31326 -10.31191 -10.24625
 Alpha  occ. eigenvalues --  -10.24556 -10.23719 -10.22974 -10.22928 -10.22726
 Alpha  occ. eigenvalues --  -10.22725 -10.22708 -10.22479 -10.22453 -10.22346
 Alpha  occ. eigenvalues --  -10.22112 -10.22077 -10.21703 -10.21623 -10.21323
 Alpha  occ. eigenvalues --  -10.21271 -10.20954 -10.20818 -10.20651 -10.18859
 Alpha  occ. eigenvalues --  -10.18614  -7.97225  -7.96915  -5.93545  -5.93224
 Alpha  occ. eigenvalues --   -5.93159  -5.92838  -5.92771  -5.92484  -1.09100
 Alpha  occ. eigenvalues --   -1.08873  -1.08137  -1.08054  -1.07295  -1.07019
 Alpha  occ. eigenvalues --   -0.96622  -0.96270  -0.92687  -0.90358  -0.88738
 Alpha  occ. eigenvalues --   -0.86835  -0.84515  -0.80508  -0.78676  -0.77569
 Alpha  occ. eigenvalues --   -0.76146  -0.75378  -0.75024  -0.73111  -0.72585
 Alpha  occ. eigenvalues --   -0.71905  -0.70000  -0.68814  -0.67537  -0.66130
 Alpha  occ. eigenvalues --   -0.65691  -0.65014  -0.61144  -0.59794  -0.58690
 Alpha  occ. eigenvalues --   -0.57633  -0.56598  -0.55798  -0.55583  -0.54498
 Alpha  occ. eigenvalues --   -0.53701  -0.51927  -0.50437  -0.50203  -0.49990
 Alpha  occ. eigenvalues --   -0.49558  -0.49253  -0.48685  -0.48138  -0.47808
 Alpha  occ. eigenvalues --   -0.47762  -0.47493  -0.47024  -0.46747  -0.45857
 Alpha  occ. eigenvalues --   -0.45570  -0.45186  -0.45116  -0.44278  -0.43948
 Alpha  occ. eigenvalues --   -0.42891  -0.42812  -0.42333  -0.42066  -0.41850
 Alpha  occ. eigenvalues --   -0.41555  -0.41437  -0.41228  -0.40725  -0.40048
 Alpha  occ. eigenvalues --   -0.39818  -0.39204  -0.38833  -0.37762  -0.37528
 Alpha  occ. eigenvalues --   -0.36147  -0.35705  -0.34276  -0.33827  -0.33710
 Alpha  occ. eigenvalues --   -0.33493  -0.32405  -0.31677  -0.30830  -0.30016
 Alpha  occ. eigenvalues --   -0.29768  -0.29447  -0.29278  -0.28583  -0.27671
 Alpha  occ. eigenvalues --   -0.26386  -0.24989  -0.24765  -0.19450
 Alpha virt. eigenvalues --   -0.13408  -0.07153  -0.06290  -0.05028  -0.04611
 Alpha virt. eigenvalues --   -0.00728  -0.00590   0.00070   0.00503   0.00531
 Alpha virt. eigenvalues --    0.00658   0.00965   0.00995   0.01405   0.02158

 Mulliken charges:
               1
     1  C    0.455066
     2  C   -0.047722
     3  C    0.108959
     4  C    0.213690
     5  C    0.297137
     6  C   -0.616319
     7  C    0.189830
     8  C    0.249496
     9  C    0.604886
    10  C   -0.429935
    11  C    0.392778
    12  C    0.097124
    13  C   -0.523718
    14  C   -0.652857
    15  H    0.167179
    16  H    0.167752
    17  H    0.172303
    18  N   -0.075864
    19  N   -0.113211
    20  O   -0.340950
    21  O   -0.332221
    22  O   -0.345013
    23  O   -0.200494
    24  C   -0.198695
    25  H    0.181807
    26  H    0.191853
    27  H    0.181268
    28  C   -0.213541
    29  H    0.182679
    30  H    0.185545
    31  H    0.181004
    32  C    0.208410
    33  C   -0.480127
    34  S   -0.435220
    35  C   -0.437692
    36  H    0.155315
    37  C    0.542227
    38  O   -0.154073
    39  C    0.843951
    40  C   -0.242740
    41  C   -0.002628
    42  S   -0.221854
    43  H    0.176207
    44  H    0.166293
    45  H    0.162907
    46  C   -0.506624
    47  O   -0.165722
    48  C   -0.333218
    49  H    0.161333
    50  C   -0.251077
    51  H    0.189208
    52  H    0.160167
    53  H    0.173539
    54  H    0.161601
 Sum of Mulliken charges =  -0.00000

 Dipole moment (field-independent basis, Debye):
    X=              2.2402    Y=             -0.2400    Z=              0.6397  Tot=              2.3421
 Quadrupole moment (field-independent basis, Debye-Ang):
   XX=           -217.3142   YY=           -221.7020   ZZ=           -206.5782
   XY=             -5.4547   XZ=             -8.5069   YZ=             20.7769

 Normal termination of Gaussian 16 at Thu Oct 28 01:26:07 2021.
