 Gaussian 16, Revision C.01,
 Gaussian 16:  ES64L-G16RevC.01  3-Jul-2019

 ---------------------------------------------------------------
 # opt=modredundant b3lyp/6-311+g(d,p) scrf=(pcm, solvent=water)
 ---------------------------------------------------------------

 ----------
 NDI_-5.pdb
 ----------
 Symbolic Z-matrix:
 Charge =  0 Multiplicity = 1

 SCF Done:  E(RB3LYP) =  -2359.34182165     A.U. after   16 cycles
 SCF Done:  E(RB3LYP) =  -2359.33346197     A.U. after   17 cycles
 SCF Done:  E(RB3LYP) =  -2359.35020877     A.U. after   14 cycles
 SCF Done:  E(RB3LYP) =  -2359.35394038     A.U. after   17 cycles
 SCF Done:  E(RB3LYP) =  -2359.35527606     A.U. after   16 cycles
 SCF Done:  E(RB3LYP) =  -2359.35596328     A.U. after   14 cycles
 SCF Done:  E(RB3LYP) =  -2359.35616612     A.U. after   13 cycles
 SCF Done:  E(RB3LYP) =  -2359.35626699     A.U. after   13 cycles
 SCF Done:  E(RB3LYP) =  -2359.35637722     A.U. after   12 cycles
 SCF Done:  E(RB3LYP) =  -2359.35644266     A.U. after   13 cycles
 SCF Done:  E(RB3LYP) =  -2359.35652690     A.U. after   10 cycles
 SCF Done:  E(RB3LYP) =  -2359.35654079     A.U. after   10 cycles
 SCF Done:  E(RB3LYP) =  -2359.35655131     A.U. after   11 cycles
 SCF Done:  E(RB3LYP) =  -2359.35655484     A.U. after   11 cycles
 SCF Done:  E(RB3LYP) =  -2359.35655530     A.U. after    9 cycles
 SCF Done:  E(RB3LYP) =  -2359.35655567     A.U. after    9 cycles
 SCF Done:  E(RB3LYP) =  -2359.35655622     A.U. after    9 cycles
 SCF Done:  E(RB3LYP) =  -2359.35655650     A.U. after    9 cycles
 SCF Done:  E(RB3LYP) =  -2359.35655654     A.U. after    9 cycles
 SCF Done:  E(RB3LYP) =  -2359.35655659     A.U. after    9 cycles
 Optimization completed.
    -- Stationary point found.

                         Standard orientation:
 ---------------------------------------------------------------------
 Center     Atomic      Atomic             Coordinates (Angstroms)
 Number     Number       Type             X           Y           Z
 ---------------------------------------------------------------------
      1          6           0       -2.512354   -3.037276    0.050097
      2          6           0       -2.225999   -1.581755    0.085548
      3          6           0       -3.277725   -0.645594   -0.041746
      4          6           0       -4.603226   -1.077207   -0.234307
      5          6           0       -4.915156   -2.527999   -0.291804
      6          6           0       -0.932062   -1.150085    0.192031
      7          6           0       -2.964230    0.737624    0.040748
      8          6           0       -1.621003    1.175017    0.242626
      9          6           0       -0.556467    0.229679    0.227060
     10          6           0       -1.447465    2.596724    0.621057
     11          6           0       -3.784519    3.112583   -0.025964
     12          6           0       -4.033605    1.658784   -0.097015
     13          6           0       -5.332291    1.214827   -0.308409
     14          6           0       -5.625843   -0.149446   -0.371576
     15          1           0       -6.640860   -0.490378   -0.525347
     16          1           0       -6.118807    1.949532   -0.420620
     17          1           0       -0.168295   -1.915686    0.221298
     18          7           0       -2.491769    3.489572    0.320999
     19          7           0       -3.842608   -3.417537   -0.134448
     20          8           0       -1.641262   -3.885246    0.172698
     21          8           0       -6.051919   -2.939364   -0.462850
     22          8           0       -4.659854    3.945847   -0.225464
     23          8           0       -0.465128    3.031543    1.205897
     24          6           0       -2.228344    4.916982    0.557656
     25          1           0       -2.311306    5.151840    1.620717
     26          1           0       -1.222282    5.153359    0.220682
     27          1           0       -2.961834    5.491290    0.000897
     28          6           0       -4.110262   -4.863660   -0.170920
     29          1           0       -3.562778   -5.318940   -0.996055
     30          1           0       -3.785833   -5.320084    0.763832
     31          1           0       -5.176665   -5.005974   -0.306924
     32          6           0        0.864889    0.500739    0.069820
     33          6           0        1.554007    1.674165   -0.190541
     34         16           0        2.017747   -0.831044    0.239581
     35          6           0        2.944644    1.509214   -0.289684
     36          1           0        1.070068    2.624969   -0.320242
     37          6           0        3.390241    0.199415   -0.072701
     38          8           0        3.854507    2.476038   -0.561110
     39          6           0        4.738239   -0.284587   -0.091804
     40          6           0        3.378394    3.810209   -0.782150
     41          6           0        5.177516   -1.591419    0.120950
     42         16           0        6.128976    0.754455   -0.403248
     43          1           0        4.263889    4.411393   -0.975542
     44          1           0        2.712708    3.845992   -1.648369
     45          1           0        2.861669    4.189598    0.103165
     46          6           0        6.588222   -1.751178    0.035229
     47          8           0        4.272730   -2.562570    0.381149
     48          6           0        7.220989   -0.571332   -0.240951
     49          1           0        7.108432   -2.687873    0.170100
     50          6           0        4.750688   -3.899401    0.590951
     51          1           0        8.280806   -0.404370   -0.360267
     52          1           0        5.414337   -3.941637    1.457959
     53          1           0        3.865327   -4.502842    0.777275
     54          1           0        5.268239   -4.269142   -0.297510
 ---------------------------------------------------------------------

 The electronic state is 1-A.
 Alpha  occ. eigenvalues --  -88.89133 -88.88877 -19.17465 -19.17254 -19.12842
 Alpha  occ. eigenvalues --  -19.12819 -19.12171 -19.12134 -14.38820 -14.38273
 Alpha  occ. eigenvalues --  -10.31399 -10.31246 -10.30895 -10.30616 -10.25472
 Alpha  occ. eigenvalues --  -10.25323 -10.24050 -10.23412 -10.23015 -10.22951
 Alpha  occ. eigenvalues --  -10.22781 -10.22639 -10.22309 -10.22260 -10.22159
 Alpha  occ. eigenvalues --  -10.22066 -10.22042 -10.21738 -10.21535 -10.21365
 Alpha  occ. eigenvalues --  -10.20877 -10.20803 -10.20708 -10.20678 -10.19292
 Alpha  occ. eigenvalues --  -10.19064  -7.97707  -7.97433  -5.94024  -5.93743
 Alpha  occ. eigenvalues --   -5.93634  -5.93355  -5.93253  -5.93000  -1.08924
 Alpha  occ. eigenvalues --   -1.08884  -1.08712  -1.08435  -1.07111  -1.06497
 Alpha  occ. eigenvalues --   -0.96443  -0.95911  -0.92303  -0.90861  -0.89153
 Alpha  occ. eigenvalues --   -0.86618  -0.84130  -0.80668  -0.78448  -0.77932
 Alpha  occ. eigenvalues --   -0.76529  -0.75599  -0.75164  -0.73508  -0.72446
 Alpha  occ. eigenvalues --   -0.71958  -0.70333  -0.68991  -0.67319  -0.65846
 Alpha  occ. eigenvalues --   -0.65628  -0.64745  -0.61449  -0.60141  -0.58745
 Alpha  occ. eigenvalues --   -0.57434  -0.56827  -0.56365  -0.55434  -0.55063
 Alpha  occ. eigenvalues --   -0.53486  -0.51729  -0.50512  -0.50054  -0.49929
 Alpha  occ. eigenvalues --   -0.49457  -0.49107  -0.48593  -0.48563  -0.48152
 Alpha  occ. eigenvalues --   -0.48098  -0.47233  -0.46861  -0.46542  -0.46132
 Alpha  occ. eigenvalues --   -0.45483  -0.45295  -0.44870  -0.44111  -0.43512
 Alpha  occ. eigenvalues --   -0.42971  -0.42798  -0.42516  -0.42180  -0.42076
 Alpha  occ. eigenvalues --   -0.41811  -0.41286  -0.41098  -0.40696  -0.40051
 Alpha  occ. eigenvalues --   -0.39655  -0.39298  -0.39072  -0.38097  -0.37368
 Alpha  occ. eigenvalues --   -0.36656  -0.36351  -0.34509  -0.34269  -0.33859
 Alpha  occ. eigenvalues --   -0.33701  -0.32104  -0.31485  -0.30817  -0.30147
 Alpha  occ. eigenvalues --   -0.29705  -0.29307  -0.28991  -0.28520  -0.27452
 Alpha  occ. eigenvalues --   -0.26240  -0.25291  -0.25027  -0.19839
 Alpha virt. eigenvalues --   -0.13195  -0.08313  -0.06495  -0.04691  -0.03686
 Alpha virt. eigenvalues --   -0.00597  -0.00509   0.00149   0.00256   0.00475
 Alpha virt. eigenvalues --    0.00804   0.01077   0.01480   0.01570   0.01964

 Mulliken charges:
               1
     1  C    0.372720
     2  C   -0.014306
     3  C    0.212635
     4  C    0.206924
     5  C    0.320469
     6  C    0.140332
     7  C    0.158529
     8  C    0.500373
     9  C    0.191092
    10  C   -0.890727
    11  C    0.295476
    12  C    0.144565
    13  C   -0.500479
    14  C   -0.610063
    15  H    0.163510
    16  H    0.164674
    17  H    0.163715
    18  N    0.035584
    19  N   -0.107376
    20  O   -0.352402
    21  O   -0.334525
    22  O   -0.362691
    23  O   -0.312451
    24  C   -0.181612
    25  H    0.189826
    26  H    0.179779
    27  H    0.179222
    28  C   -0.214002
    29  H    0.184097
    30  H    0.182436
    31  H    0.179617
    32  C   -0.153586
    33  C   -0.052420
    34  S   -0.648088
    35  C   -0.683855
    36  H    0.175805
    37  C    0.628789
    38  O   -0.145992
    39  C    0.957706
    40  C   -0.250536
    41  C    0.039903
    42  S   -0.186265
    43  H    0.180779
    44  H    0.164241
    45  H    0.167025
    46  C   -0.591770
    47  O   -0.152466
    48  C   -0.345582
    49  H    0.165210
    50  C   -0.255298
    51  H    0.194703
    52  H    0.164410
    53  H    0.177362
    54  H    0.164984
 Sum of Mulliken charges =  -0.00000

 Dipole moment (field-independent basis, Debye):
    X=              7.5056    Y=             -0.9725    Z=             -1.1270  Tot=              7.6518
 Quadrupole moment (field-independent basis, Debye-Ang):
   XX=           -208.9890   YY=           -205.3404   ZZ=           -225.2604
   XY=             -7.6257   XZ=             -4.5550   YZ=             -7.4989

 Normal termination of Gaussian 16 at Wed Oct 27 22:08:28 2021.
