 Gaussian 16, Revision C.01,
 Gaussian 16:  ES64L-G16RevC.01  3-Jul-2019

 ---------------------------------------------------------------
 # opt=modredundant b3lyp/6-311+g(d,p) scrf=(pcm, solvent=water)
 ---------------------------------------------------------------

 -----------
 NDI_-30.pdb
 -----------
 Symbolic Z-matrix:
 Charge =  0 Multiplicity = 1

 SCF Done:  E(RB3LYP) =  -2359.35696384     A.U. after   17 cycles
 SCF Done:  E(RB3LYP) =  -2359.35536029     A.U. after   16 cycles
 SCF Done:  E(RB3LYP) =  -2359.35838285     A.U. after   13 cycles
 SCF Done:  E(RB3LYP) =  -2359.35873474     A.U. after   13 cycles
 SCF Done:  E(RB3LYP) =  -2359.35923454     A.U. after   14 cycles
 SCF Done:  E(RB3LYP) =  -2359.35938105     A.U. after   14 cycles
 SCF Done:  E(RB3LYP) =  -2359.35944671     A.U. after   12 cycles
 SCF Done:  E(RB3LYP) =  -2359.35947843     A.U. after   13 cycles
 SCF Done:  E(RB3LYP) =  -2359.35949724     A.U. after   12 cycles
 SCF Done:  E(RB3LYP) =  -2359.35950761     A.U. after   11 cycles
 SCF Done:  E(RB3LYP) =  -2359.35958816     A.U. after   11 cycles
 SCF Done:  E(RB3LYP) =  -2359.35959164     A.U. after   10 cycles
 SCF Done:  E(RB3LYP) =  -2359.35959282     A.U. after   10 cycles
 SCF Done:  E(RB3LYP) =  -2359.35959426     A.U. after   10 cycles
 SCF Done:  E(RB3LYP) =  -2359.35959532     A.U. after   10 cycles
 SCF Done:  E(RB3LYP) =  -2359.35959559     A.U. after   10 cycles
 SCF Done:  E(RB3LYP) =  -2359.35959589     A.U. after    9 cycles
 SCF Done:  E(RB3LYP) =  -2359.35959602     A.U. after   10 cycles
 SCF Done:  E(RB3LYP) =  -2359.35959608     A.U. after    8 cycles
 SCF Done:  E(RB3LYP) =  -2359.35959610     A.U. after    7 cycles
 Optimization completed.
    -- Stationary point found.

                         Standard orientation:
 ---------------------------------------------------------------------
 Center     Atomic      Atomic             Coordinates (Angstroms)
 Number     Number       Type             X           Y           Z
 ---------------------------------------------------------------------
      1          6           0        2.699098   -3.000283    0.300734
      2          6           0        2.323609   -1.574413    0.133092
      3          6           0        3.324878   -0.578291    0.065426
      4          6           0        4.687372   -0.921526    0.169145
      5          6           0        5.089461   -2.340777    0.343755
      6          6           0        0.999290   -1.221716    0.089458
      7          6           0        2.931147    0.774788   -0.119674
      8          6           0        1.554232    1.121512   -0.233773
      9          6           0        0.563646    0.128047   -0.051073
     10          6           0        1.241173    2.498202   -0.695606
     11          6           0        3.606639    3.181938   -0.376892
     12          6           0        3.950766    1.756743   -0.184735
     13          6           0        5.286203    1.400216   -0.065069
     14          6           0        5.660817    0.063862    0.107479
     15          1           0        6.703962   -0.210053    0.191702
     16          1           0        6.037973    2.177219   -0.110538
     17          1           0        0.263919   -2.006227    0.211923
     18          7           0        2.262785    3.461405   -0.606647
     19          7           0        4.061465   -3.292896    0.388324
     20          8           0        1.872275   -3.897483    0.360904
     21          8           0        6.259758   -2.674316    0.441916
     22          8           0        4.448490    4.070618   -0.363843
     23          8           0        0.166745    2.830795   -1.170939
     24          6           0        1.890471    4.846390   -0.932873
     25          1           0        1.822342    4.980570   -2.014234
     26          1           0        0.923985    5.068490   -0.487469
     27          1           0        2.654994    5.504404   -0.532642
     28          6           0        4.416146   -4.711631    0.549626
     29          1           0        4.001685   -5.092400    1.483196
     30          1           0        4.006933   -5.286859   -0.280175
     31          1           0        5.497657   -4.789575    0.563043
     32          6           0       -0.861735    0.369773    0.123391
     33          6           0       -1.507657    1.449860    0.688065
     34         16           0       -2.026103   -0.849549   -0.373084
     35          6           0       -2.906806    1.302863    0.735471
     36          1           0       -0.985791    2.310487    1.074190
     37          6           0       -3.380435    0.107297    0.184347
     38          8           0       -3.794977    2.186985    1.254347
     39          6           0       -4.742597   -0.324128    0.053250
     40          6           0       -3.289329    3.423883    1.772582
     41          6           0       -5.208320   -1.523264   -0.482058
     42         16           0       -6.115265    0.655876    0.567121
     43          1           0       -4.160225    3.982167    2.108638
     44          1           0       -2.618788    3.246298    2.617446
     45          1           0       -2.768544    3.986909    0.993685
     46          6           0       -6.625553   -1.650899   -0.478819
     47          8           0       -4.319909   -2.434675   -0.946232
     48          6           0       -7.237678   -0.552375    0.056443
     49          1           0       -7.163814   -2.509593   -0.852122
     50          6           0       -4.828404   -3.659727   -1.491978
     51          1           0       -8.296010   -0.382988    0.184577
     52          1           0       -5.460611   -3.463774   -2.361564
     53          1           0       -3.955241   -4.232722   -1.795671
     54          1           0       -5.389947   -4.216617   -0.737836
 ---------------------------------------------------------------------

 The electronic state is 1-A.
 Alpha  occ. eigenvalues --  -88.89049 -88.88712 -19.17255 -19.17110 -19.12883
 Alpha  occ. eigenvalues --  -19.12857 -19.12281 -19.12194 -14.38859 -14.38347
 Alpha  occ. eigenvalues --  -10.31448 -10.31290 -10.30975 -10.30782 -10.25175
 Alpha  occ. eigenvalues --  -10.25161 -10.23767 -10.23032 -10.22927 -10.22895
 Alpha  occ. eigenvalues --  -10.22708 -10.22410 -10.22362 -10.22335 -10.22200
 Alpha  occ. eigenvalues --  -10.22165 -10.22119 -10.21907 -10.21528 -10.21136
 Alpha  occ. eigenvalues --  -10.20957 -10.20898 -10.20858 -10.20721 -10.19286
 Alpha  occ. eigenvalues --  -10.18923  -7.97613  -7.97270  -5.93928  -5.93579
 Alpha  occ. eigenvalues --   -5.93542  -5.93192  -5.93162  -5.92837  -1.08966
 Alpha  occ. eigenvalues --   -1.08657  -1.08542  -1.08497  -1.07156  -1.06603
 Alpha  occ. eigenvalues --   -0.96484  -0.95964  -0.92404  -0.90735  -0.89038
 Alpha  occ. eigenvalues --   -0.86683  -0.84233  -0.80611  -0.78481  -0.77827
 Alpha  occ. eigenvalues --   -0.76432  -0.75459  -0.75207  -0.73378  -0.72477
 Alpha  occ. eigenvalues --   -0.71926  -0.70241  -0.68949  -0.67346  -0.65909
 Alpha  occ. eigenvalues --   -0.65609  -0.64819  -0.61347  -0.60025  -0.58695
 Alpha  occ. eigenvalues --   -0.57466  -0.56771  -0.56184  -0.55450  -0.54897
 Alpha  occ. eigenvalues --   -0.53540  -0.51765  -0.50434  -0.50048  -0.49976
 Alpha  occ. eigenvalues --   -0.49468  -0.49139  -0.48593  -0.48438  -0.48040
 Alpha  occ. eigenvalues --   -0.48016  -0.47216  -0.46943  -0.46548  -0.46014
 Alpha  occ. eigenvalues --   -0.45443  -0.45366  -0.44944  -0.44085  -0.43750
 Alpha  occ. eigenvalues --   -0.42907  -0.42741  -0.42355  -0.42196  -0.41899
 Alpha  occ. eigenvalues --   -0.41865  -0.41355  -0.41113  -0.40649  -0.40041
 Alpha  occ. eigenvalues --   -0.39722  -0.39210  -0.39152  -0.37953  -0.37515
 Alpha  occ. eigenvalues --   -0.36490  -0.36154  -0.34431  -0.34142  -0.33886
 Alpha  occ. eigenvalues --   -0.33749  -0.32174  -0.31532  -0.30798  -0.30057
 Alpha  occ. eigenvalues --   -0.29737  -0.29298  -0.29147  -0.28519  -0.27478
 Alpha  occ. eigenvalues --   -0.26191  -0.25168  -0.24963  -0.19709
 Alpha virt. eigenvalues --   -0.13267  -0.07827  -0.06509  -0.04777  -0.03926
 Alpha virt. eigenvalues --   -0.00661  -0.00574   0.00137   0.00338   0.00467
 Alpha virt. eigenvalues --    0.00752   0.01077   0.01355   0.01526   0.02040

 Mulliken charges:
               1
     1  C    0.391792
     2  C   -0.095906
     3  C    0.179692
     4  C    0.224682
     5  C    0.296088
     6  C   -0.078449
     7  C    0.192565
     8  C    0.574302
     9  C    0.272120
    10  C   -0.702802
    11  C    0.289238
    12  C    0.118839
    13  C   -0.491971
    14  C   -0.626888
    15  H    0.164728
    16  H    0.165159
    17  H    0.169371
    18  N    0.007737
    19  N   -0.108743
    20  O   -0.350575
    21  O   -0.334031
    22  O   -0.357113
    23  O   -0.274176
    24  C   -0.192693
    25  H    0.190110
    26  H    0.179781
    27  H    0.179292
    28  C   -0.216033
    29  H    0.185202
    30  H    0.181746
    31  H    0.179793
    32  C    0.043755
    33  C   -0.578813
    34  S   -0.633406
    35  C   -0.292874
    36  H    0.167956
    37  C    0.732943
    38  O   -0.152475
    39  C    0.820213
    40  C   -0.245443
    41  C    0.026731
    42  S   -0.222915
    43  H    0.178940
    44  H    0.164837
    45  H    0.166879
    46  C   -0.628472
    47  O   -0.155099
    48  C   -0.312487
    49  H    0.164127
    50  C   -0.253401
    51  H    0.192689
    52  H    0.163554
    53  H    0.176188
    54  H    0.163714
 Sum of Mulliken charges =  -0.00000

 Dipole moment (field-independent basis, Debye):
    X=             -5.9025    Y=             -0.7295    Z=              0.9962  Tot=              6.0303
 Quadrupole moment (field-independent basis, Debye-Ang):
   XX=           -211.5179   YY=           -210.5771   ZZ=           -219.3506
   XY=              7.1981   XZ=              1.8645   YZ=             16.3810

 Normal termination of Gaussian 16 at Wed Oct 27 21:34:39 2021.
