 Gaussian 16, Revision C.01,
 Gaussian 16:  ES64L-G16RevC.01  3-Jul-2019

 ---------------------------------------------------------------
 # opt=modredundant b3lyp/6-311+g(d,p) scrf=(pcm, solvent=water)
 ---------------------------------------------------------------

 ------------
 NDI_-110.pdb
 ------------
 Symbolic Z-matrix:
 Charge =  0 Multiplicity = 1

 SCF Done:  E(RB3LYP) =  -2359.35222893     A.U. after   17 cycles
 SCF Done:  E(RB3LYP) =  -2359.35713546     A.U. after   17 cycles
 SCF Done:  E(RB3LYP) =  -2359.35747371     A.U. after   14 cycles
 SCF Done:  E(RB3LYP) =  -2359.35784043     A.U. after   14 cycles
 SCF Done:  E(RB3LYP) =  -2359.35809295     A.U. after   13 cycles
 SCF Done:  E(RB3LYP) =  -2359.35815422     A.U. after   14 cycles
 SCF Done:  E(RB3LYP) =  -2359.35820976     A.U. after   12 cycles
 SCF Done:  E(RB3LYP) =  -2359.35822236     A.U. after   11 cycles
 SCF Done:  E(RB3LYP) =  -2359.35823501     A.U. after   12 cycles
 SCF Done:  E(RB3LYP) =  -2359.35824319     A.U. after   11 cycles
 SCF Done:  E(RB3LYP) =  -2359.35824843     A.U. after   11 cycles
 SCF Done:  E(RB3LYP) =  -2359.35825340     A.U. after   11 cycles
 SCF Done:  E(RB3LYP) =  -2359.35826013     A.U. after   10 cycles
 SCF Done:  E(RB3LYP) =  -2359.35821406     A.U. after   12 cycles
 SCF Done:  E(RB3LYP) =  -2359.35821579     A.U. after   10 cycles
 SCF Done:  E(RB3LYP) =  -2359.35825314     A.U. after   12 cycles
 SCF Done:  E(RB3LYP) =  -2359.35825972     A.U. after   12 cycles
 SCF Done:  E(RB3LYP) =  -2359.35825958     A.U. after    9 cycles
 Optimization completed.
    -- Stationary point found.

                         Standard orientation:
 ---------------------------------------------------------------------
 Center     Atomic      Atomic             Coordinates (Angstroms)
 Number     Number       Type             X           Y           Z
 ---------------------------------------------------------------------
      1          6           0       -3.402214   -2.775216    0.306057
      2          6           0       -2.705129   -1.485551    0.071203
      3          6           0       -3.425791   -0.272929    0.108117
      4          6           0       -4.813477   -0.268000    0.371771
      5          6           0       -5.533687   -1.545312    0.613436
      6          6           0       -1.348616   -1.470747   -0.163639
      7          6           0       -2.738813    0.947577   -0.129668
      8          6           0       -1.342690    0.943313   -0.397524
      9          6           0       -0.635994   -0.265280   -0.379152
     10          6           0       -0.688452    2.233825   -0.757199
     11          6           0       -2.808860    3.456153   -0.328082
     12          6           0       -3.478098    2.154631   -0.089312
     13          6           0       -4.836452    2.137169    0.176379
     14          6           0       -5.507867    0.927605    0.405455
     15          1           0       -6.570431    0.920734    0.608995
     16          1           0       -5.376182    3.074479    0.204227
     17          1           0       -0.803287   -2.405326   -0.163858
     18          7           0       -1.452607    3.405390   -0.646348
     19          7           0       -4.774309   -2.721511    0.560600
     20          8           0       -2.822433   -3.849303    0.282500
     21          8           0       -6.731151   -1.577566    0.845966
     22          8           0       -3.409345    4.518054   -0.261194
     23          8           0        0.460711    2.316003   -1.153545
     24          6           0       -0.754535    4.662898   -0.957035
     25          1           0        0.133762    4.749978   -0.333064
     26          1           0       -0.453394    4.672436   -2.004723
     27          1           0       -1.435709    5.482864   -0.758109
     28          6           0       -5.447458   -4.009698    0.789549
     29          1           0       -5.318167   -4.650522   -0.082087
     30          1           0       -5.013511   -4.502078    1.659555
     31          1           0       -6.500783   -3.814695    0.957741
     32          6           0        0.825380   -0.401662   -0.556525
     33          6           0        1.486339   -0.938955   -1.627401
     34         16           0        1.927730    0.048102    0.716100
     35          6           0        2.896929   -0.965074   -1.445557
     36          1           0        0.979545   -1.279515   -2.519011
     37          6           0        3.324807   -0.471324   -0.220745
     38          8           0        3.811573   -1.424553   -2.342323
     39          6           0        4.672744   -0.394656    0.288141
     40          6           0        3.331106   -1.945448   -3.586334
     41          6           0        5.096034    0.095243    1.516809
     42         16           0        6.072606   -0.944520   -0.629893
     43          1           0        4.214950   -2.255739   -4.139646
     44          1           0        2.679417   -2.808218   -3.423882
     45          1           0        2.797004   -1.176962   -4.151607
     46          6           0        6.505588    0.033663    1.717631
     47          8           0        4.178508    0.573619    2.400660
     48          6           0        7.155681   -0.503389    0.643054
     49          1           0        7.011175    0.369976    2.611010
     50          6           0        4.651622    1.080658    3.653205
     51          1           0        8.215698   -0.666188    0.522207
     52          1           0        5.324535    1.929053    3.502740
     53          1           0        3.766718    1.409235    4.194228
     54          1           0        5.160220    0.299021    4.223901
 ---------------------------------------------------------------------

 The electronic state is 1-A.
 Alpha  occ. eigenvalues --  -88.88362 -88.88233 -19.16624 -19.16604 -19.13051
 Alpha  occ. eigenvalues --  -19.13048 -19.12773 -19.12772 -14.39016 -14.38773
 Alpha  occ. eigenvalues --  -10.31639 -10.31483 -10.31430 -10.31334 -10.24441
 Alpha  occ. eigenvalues --  -10.24335 -10.23735 -10.23197 -10.23062 -10.22845
 Alpha  occ. eigenvalues --  -10.22674 -10.22655 -10.22568 -10.22555 -10.22504
 Alpha  occ. eigenvalues --  -10.22013 -10.21746 -10.21638 -10.21550 -10.21461
 Alpha  occ. eigenvalues --  -10.21397 -10.20973 -10.20846 -10.20473 -10.18740
 Alpha  occ. eigenvalues --  -10.18498  -7.96916  -7.96795  -5.93241  -5.93103
 Alpha  occ. eigenvalues --   -5.92853  -5.92718  -5.92452  -5.92364  -1.09156
 Alpha  occ. eigenvalues --   -1.09025  -1.07988  -1.07902  -1.07353  -1.07181
 Alpha  occ. eigenvalues --   -0.96682  -0.96395  -0.92789  -0.90182  -0.88624
 Alpha  occ. eigenvalues --   -0.86878  -0.84621  -0.80492  -0.78755  -0.77470
 Alpha  occ. eigenvalues --   -0.76031  -0.75444  -0.74845  -0.73058  -0.72700
 Alpha  occ. eigenvalues --   -0.71768  -0.69968  -0.68746  -0.67601  -0.66225
 Alpha  occ. eigenvalues --   -0.65684  -0.65140  -0.61028  -0.59751  -0.58682
 Alpha  occ. eigenvalues --   -0.57731  -0.56641  -0.55648  -0.55366  -0.54400
 Alpha  occ. eigenvalues --   -0.53899  -0.51982  -0.50480  -0.50292  -0.49994
 Alpha  occ. eigenvalues --   -0.49477  -0.49334  -0.48724  -0.48079  -0.47784
 Alpha  occ. eigenvalues --   -0.47666  -0.47571  -0.47041  -0.46850  -0.45874
 Alpha  occ. eigenvalues --   -0.45432  -0.45345  -0.45072  -0.44392  -0.44029
 Alpha  occ. eigenvalues --   -0.42968  -0.42774  -0.42432  -0.41963  -0.41777
 Alpha  occ. eigenvalues --   -0.41550  -0.41342  -0.41267  -0.40755  -0.40144
 Alpha  occ. eigenvalues --   -0.39824  -0.39039  -0.38622  -0.37851  -0.37405
 Alpha  occ. eigenvalues --   -0.36029  -0.35704  -0.34117  -0.33674  -0.33595
 Alpha  occ. eigenvalues --   -0.33430  -0.32507  -0.31691  -0.30814  -0.30056
 Alpha  occ. eigenvalues --   -0.29746  -0.29539  -0.29195  -0.28529  -0.27883
 Alpha  occ. eigenvalues --   -0.26523  -0.24963  -0.24585  -0.19339
 Alpha virt. eigenvalues --   -0.13478  -0.07091  -0.06102  -0.05122  -0.04780
 Alpha virt. eigenvalues --   -0.00716  -0.00631   0.00114   0.00420   0.00565
 Alpha virt. eigenvalues --    0.00732   0.00915   0.01047   0.01216   0.02106

 Mulliken charges:
               1
     1  C    0.457323
     2  C   -0.010973
     3  C    0.156340
     4  C    0.265848
     5  C    0.298735
     6  C   -0.658873
     7  C    0.184125
     8  C    0.044677
     9  C    0.472084
    10  C   -0.200062
    11  C    0.354327
    12  C    0.229768
    13  C   -0.546659
    14  C   -0.696014
    15  H    0.168314
    16  H    0.168534
    17  H    0.161730
    18  N   -0.081509
    19  N   -0.109016
    20  O   -0.336874
    21  O   -0.332715
    22  O   -0.338058
    23  O   -0.216795
    24  C   -0.208376
    25  H    0.185153
    26  H    0.188229
    27  H    0.181702
    28  C   -0.216126
    29  H    0.183672
    30  H    0.185083
    31  H    0.181113
    32  C    0.421148
    33  C   -0.784109
    34  S   -0.331623
    35  C   -0.252902
    36  H    0.150731
    37  C    0.363445
    38  O   -0.152265
    39  C    0.889356
    40  C   -0.257193
    41  C    0.020579
    42  S   -0.227575
    43  H    0.176155
    44  H    0.164849
    45  H    0.163916
    46  C   -0.534206
    47  O   -0.174767
    48  C   -0.343232
    49  H    0.160413
    50  C   -0.247699
    51  H    0.187889
    52  H    0.159854
    53  H    0.172932
    54  H    0.159598
 Sum of Mulliken charges =  -0.00000

 Dipole moment (field-independent basis, Debye):
    X=              1.0589    Y=             -0.1964    Z=              0.2854  Tot=              1.1141
 Quadrupole moment (field-independent basis, Debye-Ang):
   XX=           -217.8915   YY=           -233.8242   ZZ=           -195.6376
   XY=              6.3214   XZ=             15.1031   YZ=             12.4073

 Normal termination of Gaussian 16 at Wed Oct 27 19:19:33 2021.
