 Gaussian 16, Revision C.01,
 Gaussian 16:  ES64L-G16RevC.01  3-Jul-2019

 ---------------------------------------------------------------
 # opt=modredundant b3lyp/6-311+g(d,p) scrf=(pcm, solvent=water)
 ---------------------------------------------------------------

 -----------
 NDI_125.pdb
 -----------
 Symbolic Z-matrix:
 Charge =  0 Multiplicity = 1

 SCF Done:  E(RB3LYP) =  -2359.35309137     A.U. after   18 cycles
 SCF Done:  E(RB3LYP) =  -2359.35513655     A.U. after   17 cycles
 SCF Done:  E(RB3LYP) =  -2359.35825214     A.U. after   16 cycles
 SCF Done:  E(RB3LYP) =  -2359.35835448     A.U. after   14 cycles
 SCF Done:  E(RB3LYP) =  -2359.35890937     A.U. after   13 cycles
 SCF Done:  E(RB3LYP) =  -2359.35895764     A.U. after   12 cycles
 SCF Done:  E(RB3LYP) =  -2359.35900442     A.U. after   11 cycles
 SCF Done:  E(RB3LYP) =  -2359.35902255     A.U. after   11 cycles
 SCF Done:  E(RB3LYP) =  -2359.35903786     A.U. after   10 cycles
 SCF Done:  E(RB3LYP) =  -2359.35905134     A.U. after   12 cycles
 SCF Done:  E(RB3LYP) =  -2359.35911049     A.U. after   11 cycles
 SCF Done:  E(RB3LYP) =  -2359.35911560     A.U. after   10 cycles
 SCF Done:  E(RB3LYP) =  -2359.35911776     A.U. after   10 cycles
 SCF Done:  E(RB3LYP) =  -2359.35911966     A.U. after   10 cycles
 SCF Done:  E(RB3LYP) =  -2359.35912223     A.U. after    9 cycles
 SCF Done:  E(RB3LYP) =  -2359.35912352     A.U. after    9 cycles
 SCF Done:  E(RB3LYP) =  -2359.35912518     A.U. after   10 cycles
 SCF Done:  E(RB3LYP) =  -2359.35912603     A.U. after   10 cycles
 SCF Done:  E(RB3LYP) =  -2359.35912614     A.U. after    8 cycles
 SCF Done:  E(RB3LYP) =  -2359.35912622     A.U. after    8 cycles
 Optimization completed.
    -- Stationary point found.

                         Standard orientation:
 ---------------------------------------------------------------------
 Center     Atomic      Atomic             Coordinates (Angstroms)
 Number     Number       Type             X           Y           Z
 ---------------------------------------------------------------------
      1          6           0        3.509511   -2.701674    0.453903
      2          6           0        2.761227   -1.458796    0.139723
      3          6           0        3.429738   -0.214691    0.120072
      4          6           0        4.808618   -0.132672    0.410686
      5          6           0        5.577437   -1.361156    0.739004
      6          6           0        1.407521   -1.515281   -0.099138
      7          6           0        2.696245    0.957635   -0.204466
      8          6           0        1.308006    0.875912   -0.500469
      9          6           0        0.643683   -0.354671   -0.387162
     10          6           0        0.637128    2.093631   -1.033505
     11          6           0        2.658011    3.449055   -0.543998
     12          6           0        3.380957    2.197099   -0.218225
     13          6           0        4.732393    2.256557    0.079094
     14          6           0        5.450093    1.093755    0.391110
     15          1           0        6.506733    1.145671    0.617616
     16          1           0        5.229125    3.217812    0.067483
     17          1           0        0.902245   -2.469948   -0.033648
     18          7           0        1.319340    3.314436   -0.907479
     19          7           0        4.872461   -2.572271    0.730641
     20          8           0        2.979276   -3.801439    0.476136
     21          8           0        6.768749   -1.327264    1.002207
     22          8           0        3.200757    4.544095   -0.517094
     23          8           0       -0.448778    2.074641   -1.587284
     24          6           0        0.592906    4.521535   -1.331161
     25          1           0        0.598626    4.609316   -2.419363
     26          1           0       -0.435755    4.454486   -0.986224
     27          1           0        1.086178    5.383844   -0.894554
     28          6           0        5.596820   -3.814917    1.040805
     29          1           0        5.172817   -4.275845    1.932823
     30          1           0        5.506467   -4.509114    0.205961
     31          1           0        6.638467   -3.564840    1.209355
     32          6           0       -0.809282   -0.551615   -0.501616
     33          6           0       -1.461799   -1.407500   -1.354071
     34         16           0       -1.924269    0.239451    0.580658
     35          6           0       -2.868090   -1.405754   -1.166341
     36          1           0       -0.948682   -1.992394   -2.103849
     37          6           0       -3.306966   -0.571589   -0.143268
     38          8           0       -3.774333   -2.129398   -1.875832
     39          6           0       -4.654172   -0.376920    0.328203
     40          6           0       -3.283096   -3.016213   -2.887707
     41          6           0       -5.088522    0.453944    1.354444
     42         16           0       -6.040570   -1.213741   -0.367374
     43          1           0       -4.161312   -3.499801   -3.310069
     44          1           0       -2.758404   -2.462240   -3.670782
     45          1           0       -2.620150   -3.771304   -2.456744
     46          6           0       -6.495486    0.422780    1.575899
     47          8           0       -4.182889    1.198211    2.042302
     48          6           0       -7.131774   -0.431575    0.720681
     49          1           0       -7.009025    1.002370    2.328944
     50          6           0       -4.667711    2.065682    3.074246
     51          1           0       -8.187535   -0.648703    0.664440
     52          1           0       -5.159096    1.493470    3.865582
     53          1           0       -3.789955    2.566064    3.477600
     54          1           0       -5.358546    2.808509    2.666808
 ---------------------------------------------------------------------

 The electronic state is 1-A.
 Alpha  occ. eigenvalues --  -88.88519 -88.88377 -19.16802 -19.16772 -19.12994
 Alpha  occ. eigenvalues --  -19.12980 -19.12677 -19.12640 -14.38959 -14.38644
 Alpha  occ. eigenvalues --  -10.31576 -10.31417 -10.31334 -10.31163 -10.24667
 Alpha  occ. eigenvalues --  -10.24595 -10.23680 -10.22942 -10.22882 -10.22748
 Alpha  occ. eigenvalues --  -10.22742 -10.22688 -10.22451 -10.22435 -10.22329
 Alpha  occ. eigenvalues --  -10.22181 -10.22146 -10.21723 -10.21614 -10.21307
 Alpha  occ. eigenvalues --  -10.21255 -10.20946 -10.20848 -10.20678 -10.19016
 Alpha  occ. eigenvalues --  -10.18629  -7.97077  -7.96937  -5.93401  -5.93246
 Alpha  occ. eigenvalues --   -5.93013  -5.92860  -5.92613  -5.92506  -1.09083
 Alpha  occ. eigenvalues --   -1.08883  -1.08179  -1.08097  -1.07280  -1.07025
 Alpha  occ. eigenvalues --   -0.96605  -0.96292  -0.92670  -0.90358  -0.88751
 Alpha  occ. eigenvalues --   -0.86829  -0.84500  -0.80542  -0.78655  -0.77564
 Alpha  occ. eigenvalues --   -0.76172  -0.75376  -0.75029  -0.73183  -0.72672
 Alpha  occ. eigenvalues --   -0.71704  -0.70116  -0.68807  -0.67523  -0.66138
 Alpha  occ. eigenvalues --   -0.65591  -0.65105  -0.61076  -0.59843  -0.58704
 Alpha  occ. eigenvalues --   -0.57673  -0.56721  -0.55797  -0.55212  -0.54575
 Alpha  occ. eigenvalues --   -0.53904  -0.51890  -0.50436  -0.50212  -0.49926
 Alpha  occ. eigenvalues --   -0.49585  -0.49285  -0.48662  -0.48167  -0.47861
 Alpha  occ. eigenvalues --   -0.47773  -0.47490  -0.47040  -0.46752  -0.45834
 Alpha  occ. eigenvalues --   -0.45487  -0.45383  -0.45123  -0.44364  -0.43961
 Alpha  occ. eigenvalues --   -0.42936  -0.42679  -0.42274  -0.42051  -0.41799
 Alpha  occ. eigenvalues --   -0.41716  -0.41480  -0.41203  -0.40754  -0.40143
 Alpha  occ. eigenvalues --   -0.39725  -0.39123  -0.38710  -0.37848  -0.37516
 Alpha  occ. eigenvalues --   -0.36207  -0.35837  -0.34202  -0.33784  -0.33740
 Alpha  occ. eigenvalues --   -0.33535  -0.32345  -0.31662  -0.30819  -0.30019
 Alpha  occ. eigenvalues --   -0.29710  -0.29374  -0.29235  -0.28634  -0.27804
 Alpha  occ. eigenvalues --   -0.26366  -0.25092  -0.24686  -0.19474
 Alpha virt. eigenvalues --   -0.13396  -0.07193  -0.06360  -0.05023  -0.04461
 Alpha virt. eigenvalues --   -0.00837  -0.00619   0.00107   0.00394   0.00482
 Alpha virt. eigenvalues --    0.00733   0.01006   0.01187   0.01254   0.02111

 Mulliken charges:
               1
     1  C    0.451869
     2  C   -0.085534
     3  C    0.143352
     4  C    0.225120
     5  C    0.303204
     6  C   -0.363072
     7  C    0.157639
     8  C    0.132207
     9  C    0.333873
    10  C   -0.409326
    11  C    0.322237
    12  C    0.107786
    13  C   -0.452431
    14  C   -0.629364
    15  H    0.167136
    16  H    0.167238
    17  H    0.162318
    18  N   -0.010065
    19  N   -0.109181
    20  O   -0.340838
    21  O   -0.334583
    22  O   -0.348076
    23  O   -0.256551
    24  C   -0.197500
    25  H    0.192831
    26  H    0.182316
    27  H    0.181219
    28  C   -0.214515
    29  H    0.185304
    30  H    0.182774
    31  H    0.180803
    32  C    0.367329
    33  C   -0.522094
    34  S   -0.491864
    35  C   -0.154015
    36  H    0.159260
    37  C    0.410163
    38  O   -0.160998
    39  C    0.803388
    40  C   -0.236997
    41  C    0.026713
    42  S   -0.245750
    43  H    0.176490
    44  H    0.163910
    45  H    0.165562
    46  C   -0.583076
    47  O   -0.167991
    48  C   -0.334008
    49  H    0.161427
    50  C   -0.250525
    51  H    0.189049
    52  H    0.160754
    53  H    0.174018
    54  H    0.161065
 Sum of Mulliken charges =  -0.00000

 Dipole moment (field-independent basis, Debye):
    X=             -2.5487    Y=             -0.4435    Z=              0.7707  Tot=              2.6994
 Quadrupole moment (field-independent basis, Debye-Ang):
   XX=           -214.4309   YY=           -225.5024   ZZ=           -205.9731
   XY=             -9.9624   XZ=            -15.1351   YZ=             18.3830

 Normal termination of Gaussian 16 at Thu Oct 28 02:07:58 2021.
