 Gaussian 16, Revision C.01,
 Gaussian 16:  ES64L-G16RevC.01  3-Jul-2019

 ---------------------------------------------------------------
 # opt=modredundant b3lyp/6-311+g(d,p) scrf=(pcm, solvent=water)
 ---------------------------------------------------------------

 -----------
 NDI_-80.pdb
 -----------
 Symbolic Z-matrix:
 Charge =  0 Multiplicity = 1

 SCF Done:  E(RB3LYP) =  -2359.35414567     A.U. after   17 cycles
 SCF Done:  E(RB3LYP) =  -2359.35734126     A.U. after   14 cycles
 SCF Done:  E(RB3LYP) =  -2359.35776428     A.U. after   13 cycles
 SCF Done:  E(RB3LYP) =  -2359.35776341     A.U. after   12 cycles
 SCF Done:  E(RB3LYP) =  -2359.35786007     A.U. after   11 cycles
 SCF Done:  E(RB3LYP) =  -2359.35786962     A.U. after   11 cycles
 SCF Done:  E(RB3LYP) =  -2359.35787777     A.U. after   11 cycles
 SCF Done:  E(RB3LYP) =  -2359.35788117     A.U. after   11 cycles
 SCF Done:  E(RB3LYP) =  -2359.35788469     A.U. after   10 cycles
 SCF Done:  E(RB3LYP) =  -2359.35789005     A.U. after   11 cycles
 SCF Done:  E(RB3LYP) =  -2359.35790545     A.U. after    9 cycles
 SCF Done:  E(RB3LYP) =  -2359.35790597     A.U. after   10 cycles
 SCF Done:  E(RB3LYP) =  -2359.35790611     A.U. after    9 cycles
 SCF Done:  E(RB3LYP) =  -2359.35790661     A.U. after    9 cycles
 SCF Done:  E(RB3LYP) =  -2359.35790713     A.U. after    9 cycles
 SCF Done:  E(RB3LYP) =  -2359.35790791     A.U. after    9 cycles
 SCF Done:  E(RB3LYP) =  -2359.35790868     A.U. after    9 cycles
 SCF Done:  E(RB3LYP) =  -2359.35790907     A.U. after    9 cycles
 SCF Done:  E(RB3LYP) =  -2359.35790920     A.U. after    8 cycles
 SCF Done:  E(RB3LYP) =  -2359.35790917     A.U. after    8 cycles
 Optimization completed.
    -- Stationary point found.

                         Standard orientation:
 ---------------------------------------------------------------------
 Center     Atomic      Atomic             Coordinates (Angstroms)
 Number     Number       Type             X           Y           Z
 ---------------------------------------------------------------------
      1          6           0        3.078020   -2.870235    0.474817
      2          6           0        2.529334   -1.502772    0.291281
      3          6           0        3.393377   -0.423529    0.010227
      4          6           0        4.787755   -0.626464   -0.095117
      5          6           0        5.362228   -1.985030    0.088537
      6          6           0        1.174938   -1.284912    0.410937
      7          6           0        2.844507    0.874329   -0.168762
      8          6           0        1.441371    1.078354   -0.064815
      9          6           0        0.606264    0.003426    0.259739
     10          6           0        0.900297    2.439322   -0.350361
     11          6           0        3.206677    3.322015   -0.631136
     12          6           0        3.727632    1.946184   -0.445467
     13          6           0        5.090546    1.725917   -0.541673
     14          6           0        5.623969    0.440127   -0.368748
     15          1           0        6.690269    0.274277   -0.446862
     16          1           0        5.742789    2.563235   -0.751868
     17          1           0        0.527433   -2.118988    0.647857
     18          7           0        1.823243    3.476311   -0.554714
     19          7           0        4.461831   -3.022407    0.364174
     20          8           0        2.369905   -3.835656    0.713397
     21          8           0        6.561205   -2.195947    0.004468
     22          8           0        3.942934    4.272819   -0.846751
     23          8           0       -0.289915    2.687103   -0.425447
     24          6           0        1.253381    4.814760   -0.776850
     25          1           0        0.731818    4.846431   -1.734267
     26          1           0        0.546380    5.042507    0.018701
     27          1           0        2.067773    5.530980   -0.776011
     28          6           0        4.986350   -4.384407    0.551379
     29          1           0        4.701917   -4.754008    1.536013
     30          1           0        4.572272   -5.046120   -0.209268
     31          1           0        6.066440   -4.344767    0.463435
     32          6           0       -0.853374    0.109647    0.482968
     33          6           0       -1.495025    0.534698    1.613163
     34         16           0       -1.974891   -0.516199   -0.693787
     35          6           0       -2.908225    0.389535    1.530040
     36          1           0       -0.972329    0.940526    2.467038
     37          6           0       -3.358373   -0.161578    0.339018
     38          8           0       -3.805552    0.729574    2.495421
     39          6           0       -4.717739   -0.418915   -0.071077
     40          6           0       -3.309648    1.354804    3.684269
     41          6           0       -5.160153   -0.996771   -1.253505
     42         16           0       -6.109108   -0.001582    0.926288
     43          1           0       -4.183853    1.560130    4.298571
     44          1           0       -2.632794    0.687316    4.224441
     45          1           0       -2.798549    2.292251    3.448823
     46          6           0       -6.577681   -1.102496   -1.359186
     47          8           0       -4.252321   -1.400720   -2.184129
     48          6           0       -7.214781   -0.605400   -0.258076
     49          1           0       -7.097513   -1.525963   -2.206167
     50          6           0       -4.745086   -1.989821   -3.392463
     51          1           0       -8.276320   -0.561981   -0.068193
     52          1           0       -5.374708   -1.285167   -3.942398
     53          1           0       -3.865486   -2.231653   -3.985428
     54          1           0       -5.306489   -2.903946   -3.181161
 ---------------------------------------------------------------------

 The electronic state is 1-A.
 Alpha  occ. eigenvalues --  -88.88459 -88.88207 -19.16579 -19.16570 -19.13064
 Alpha  occ. eigenvalues --  -19.13062 -19.12802 -19.12794 -14.39027 -14.38792
 Alpha  occ. eigenvalues --  -10.31655 -10.31496 -10.31475 -10.31356 -10.24397
 Alpha  occ. eigenvalues --  -10.24293 -10.23761 -10.23247 -10.23079 -10.22870
 Alpha  occ. eigenvalues --  -10.22658 -10.22641 -10.22593 -10.22580 -10.22533
 Alpha  occ. eigenvalues --  -10.21984 -10.21679 -10.21670 -10.21529 -10.21492
 Alpha  occ. eigenvalues --  -10.21427 -10.20980 -10.20859 -10.20444 -10.18642
 Alpha  occ. eigenvalues --  -10.18482  -7.97008  -7.96768  -5.93331  -5.93077
 Alpha  occ. eigenvalues --   -5.92943  -5.92692  -5.92550  -5.92338  -1.09166
 Alpha  occ. eigenvalues --   -1.09047  -1.07938  -1.07854  -1.07364  -1.07204
 Alpha  occ. eigenvalues --   -0.96692  -0.96408  -0.92811  -0.90171  -0.88609
 Alpha  occ. eigenvalues --   -0.86886  -0.84637  -0.80475  -0.78778  -0.77460
 Alpha  occ. eigenvalues --   -0.76007  -0.75455  -0.74823  -0.73028  -0.72633
 Alpha  occ. eigenvalues --   -0.71879  -0.69901  -0.68746  -0.67623  -0.66233
 Alpha  occ. eigenvalues --   -0.65745  -0.65099  -0.61056  -0.59720  -0.58670
 Alpha  occ. eigenvalues --   -0.57722  -0.56550  -0.55645  -0.55585  -0.54344
 Alpha  occ. eigenvalues --   -0.53798  -0.52006  -0.50486  -0.50303  -0.50015
 Alpha  occ. eigenvalues --   -0.49490  -0.49304  -0.48735  -0.48058  -0.47772
 Alpha  occ. eigenvalues --   -0.47662  -0.47551  -0.47037  -0.46871  -0.45887
 Alpha  occ. eigenvalues --   -0.45500  -0.45231  -0.45070  -0.44353  -0.44010
 Alpha  occ. eigenvalues --   -0.42911  -0.42899  -0.42452  -0.41952  -0.41817
 Alpha  occ. eigenvalues --   -0.41477  -0.41330  -0.41270  -0.40764  -0.40127
 Alpha  occ. eigenvalues --   -0.39860  -0.39079  -0.38693  -0.37844  -0.37360
 Alpha  occ. eigenvalues --   -0.35983  -0.35629  -0.34139  -0.33717  -0.33563
 Alpha  occ. eigenvalues --   -0.33384  -0.32539  -0.31727  -0.30857  -0.30042
 Alpha  occ. eigenvalues --   -0.29776  -0.29580  -0.29243  -0.28579  -0.27757
 Alpha  occ. eigenvalues --   -0.26547  -0.24902  -0.24633  -0.19321
 Alpha virt. eigenvalues --   -0.13480  -0.07080  -0.05943  -0.05134  -0.04998
 Alpha virt. eigenvalues --   -0.00640  -0.00599   0.00082   0.00494   0.00573
 Alpha virt. eigenvalues --    0.00729   0.00824   0.00895   0.01346   0.02131

 Mulliken charges:
               1
     1  C    0.462966
     2  C   -0.015235
     3  C    0.209244
     4  C    0.205185
     5  C    0.305071
     6  C   -0.535152
     7  C    0.199208
     8  C    0.120131
     9  C    0.599931
    10  C   -0.430892
    11  C    0.250911
    12  C    0.184895
    13  C   -0.504288
    14  C   -0.652820
    15  H    0.168208
    16  H    0.168248
    17  H    0.165348
    18  N   -0.110290
    19  N   -0.113230
    20  O   -0.337268
    21  O   -0.331159
    22  O   -0.337219
    23  O   -0.178951
    24  C   -0.226460
    25  H    0.190361
    26  H    0.182326
    27  H    0.181339
    28  C   -0.214860
    29  H    0.183430
    30  H    0.184966
    31  H    0.180529
    32  C    0.151834
    33  C   -0.515991
    34  S   -0.241769
    35  C   -0.156263
    36  H    0.150126
    37  C    0.371007
    38  O   -0.171793
    39  C    0.714209
    40  C   -0.236222
    41  C    0.016564
    42  S   -0.253987
    43  H    0.175465
    44  H    0.161019
    45  H    0.165736
    46  C   -0.542916
    47  O   -0.173981
    48  C   -0.359346
    49  H    0.160130
    50  C   -0.247827
    51  H    0.187388
    52  H    0.160374
    53  H    0.172815
    54  H    0.158954
 Sum of Mulliken charges =  -0.00000

 Dipole moment (field-independent basis, Debye):
    X=             -0.7211    Y=              0.0034    Z=              0.3731  Tot=              0.8119
 Quadrupole moment (field-independent basis, Debye-Ang):
   XX=           -219.6016   YY=           -230.7943   ZZ=           -196.9809
   XY=              2.8649   XZ=             11.7660   YZ=             16.3632

 Normal termination of Gaussian 16 at Wed Oct 27 20:23:03 2021.
