 Gaussian 16, Revision C.01,
 Gaussian 16:  ES64L-G16RevC.01  3-Jul-2019

 ---------------------------------------------------------------
 # opt=modredundant b3lyp/6-311+g(d,p) scrf=(pcm, solvent=water)
 ---------------------------------------------------------------

 ------------
 NDI_-105.pdb
 ------------
 Symbolic Z-matrix:
 Charge =  0 Multiplicity = 1

 SCF Done:  E(RB3LYP) =  -2359.35250449     A.U. after   17 cycles
 SCF Done:  E(RB3LYP) =  -2359.35715403     A.U. after   17 cycles
 SCF Done:  E(RB3LYP) =  -2359.35747689     A.U. after   15 cycles
 SCF Done:  E(RB3LYP) =  -2359.35761769     A.U. after   14 cycles
 SCF Done:  E(RB3LYP) =  -2359.35786699     A.U. after   14 cycles
 SCF Done:  E(RB3LYP) =  -2359.35789521     A.U. after   13 cycles
 SCF Done:  E(RB3LYP) =  -2359.35793028     A.U. after   12 cycles
 SCF Done:  E(RB3LYP) =  -2359.35794371     A.U. after   12 cycles
 SCF Done:  E(RB3LYP) =  -2359.35795460     A.U. after   12 cycles
 SCF Done:  E(RB3LYP) =  -2359.35796954     A.U. after   12 cycles
 SCF Done:  E(RB3LYP) =  -2359.35796845     A.U. after   13 cycles
 SCF Done:  E(RB3LYP) =  -2359.35797559     A.U. after   12 cycles
 SCF Done:  E(RB3LYP) =  -2359.35793290     A.U. after   11 cycles
 SCF Done:  E(RB3LYP) =  -2359.35796861     A.U. after   12 cycles
 SCF Done:  E(RB3LYP) =  -2359.35797560     A.U. after   12 cycles
 SCF Done:  E(RB3LYP) =  -2359.35797593     A.U. after   10 cycles
 SCF Done:  E(RB3LYP) =  -2359.35793528     A.U. after   11 cycles
 SCF Done:  E(RB3LYP) =  -2359.35793433     A.U. after    9 cycles
 SCF Done:  E(RB3LYP) =  -2359.35793468     A.U. after   10 cycles
 SCF Done:  E(RB3LYP) =  -2359.35793525     A.U. after    9 cycles
 Optimization completed.
    -- Stationary point found.

                         Standard orientation:
 ---------------------------------------------------------------------
 Center     Atomic      Atomic             Coordinates (Angstroms)
 Number     Number       Type             X           Y           Z
 ---------------------------------------------------------------------
      1          6           0        3.347838   -2.805591   -0.215385
      2          6           0        2.676568   -1.493393   -0.036210
      3          6           0        3.424488   -0.299249   -0.100548
      4          6           0        4.817241   -0.334484   -0.337060
      5          6           0        5.512707   -1.635250   -0.520942
      6          6           0        1.318222   -1.441417    0.183634
      7          6           0        2.761078    0.943679    0.081043
      8          6           0        1.360778    0.979292    0.324689
      9          6           0        0.631259   -0.214715    0.355162
     10          6           0        0.721468    2.300399    0.591962
     11          6           0        2.885084    3.455936    0.190848
     12          6           0        3.528573    2.131893    0.012835
     13          6           0        4.890898    2.075039   -0.223573
     14          6           0        5.538995    0.843155   -0.397473
     15          1           0        6.604941    0.805889   -0.579087
     16          1           0        5.452721    2.998414   -0.272595
     17          1           0        0.754025   -2.364170    0.215132
     18          7           0        1.517745    3.448175    0.462896
     19          7           0        4.725266   -2.791504   -0.445209
     20          8           0        2.742857   -3.864820   -0.167178
     21          8           0        6.713486   -1.701936   -0.727532
     22          8           0        3.514016    4.500295    0.111846
     23          8           0       -0.444332    2.427015    0.921741
     24          6           0        0.837703    4.733542    0.688969
     25          1           0       -0.024980    4.809657    0.028770
     26          1           0        0.498784    4.798794    1.723130
     27          1           0        1.544456    5.528630    0.478405
     28          6           0        5.372194   -4.101782   -0.617722
     29          1           0        5.221617   -4.705605    0.276772
     30          1           0        4.934553   -4.617917   -1.471844
     31          1           0        6.430952   -3.935841   -0.783277
     32          6           0       -0.832129   -0.317167    0.557780
     33          6           0       -1.483484   -0.719407    1.690824
     34         16           0       -1.942579   -0.024378   -0.751489
     35          6           0       -2.896723   -0.766071    1.524175
     36          1           0       -0.969666   -0.951614    2.612455
     37          6           0       -3.334286   -0.423467    0.253277
     38          8           0       -3.803575   -1.112158    2.478324
     39          6           0       -4.686786   -0.400980   -0.250363
     40          6           0       -3.311335   -1.491446    3.768226
     41          6           0       -5.119360   -0.066877   -1.526510
     42         16           0       -6.080313   -0.823221    0.742035
     43          1           0       -4.190361   -1.732058    4.362492
     44          1           0       -2.665470   -2.370854    3.697412
     45          1           0       -2.767554   -0.667021    4.237408
     46          6           0       -6.531316   -0.145280   -1.705678
     47          8           0       -4.207924    0.292126   -2.472099
     48          6           0       -7.174040   -0.539019   -0.566722
     49          1           0       -7.043472    0.078619   -2.630066
     50          6           0       -4.691870    0.640859   -3.773578
     51          1           0       -8.233578   -0.679623   -0.417055
     52          1           0       -5.357828    1.506623   -3.724181
     53          1           0       -3.811043    0.891987   -4.360842
     54          1           0       -5.211718   -0.202398   -4.236362
 ---------------------------------------------------------------------

 The electronic state is 1-A.
 Alpha  occ. eigenvalues --  -88.88339 -88.88194 -19.16583 -19.16551 -19.13072
 Alpha  occ. eigenvalues --  -19.13071 -19.12819 -19.12815 -14.39034 -14.38812
 Alpha  occ. eigenvalues --  -10.31664 -10.31503 -10.31480 -10.31376 -10.24380
 Alpha  occ. eigenvalues --  -10.24267 -10.23762 -10.23289 -10.23106 -10.22890
 Alpha  occ. eigenvalues --  -10.22660 -10.22635 -10.22600 -10.22595 -10.22554
 Alpha  occ. eigenvalues --  -10.21972 -10.21647 -10.21645 -10.21510 -10.21507
 Alpha  occ. eigenvalues --  -10.21442 -10.20982 -10.20862 -10.20422 -10.18663
 Alpha  occ. eigenvalues --  -10.18466  -7.96890  -7.96755  -5.93215  -5.93063
 Alpha  occ. eigenvalues --   -5.92827  -5.92678  -5.92427  -5.92324  -1.09175
 Alpha  occ. eigenvalues --   -1.09070  -1.07935  -1.07841  -1.07373  -1.07227
 Alpha  occ. eigenvalues --   -0.96703  -0.96428  -0.92823  -0.90134  -0.88590
 Alpha  occ. eigenvalues --   -0.86889  -0.84653  -0.80483  -0.78786  -0.77442
 Alpha  occ. eigenvalues --   -0.75994  -0.75465  -0.74792  -0.73033  -0.72699
 Alpha  occ. eigenvalues --   -0.71787  -0.69929  -0.68731  -0.67629  -0.66251
 Alpha  occ. eigenvalues --   -0.65718  -0.65149  -0.61020  -0.59726  -0.58673
 Alpha  occ. eigenvalues --   -0.57749  -0.56611  -0.55605  -0.55421  -0.54355
 Alpha  occ. eigenvalues --   -0.53892  -0.52008  -0.50497  -0.50319  -0.50014
 Alpha  occ. eigenvalues --   -0.49452  -0.49342  -0.48733  -0.48065  -0.47772
 Alpha  occ. eigenvalues --   -0.47647  -0.47566  -0.47043  -0.46882  -0.45893
 Alpha  occ. eigenvalues --   -0.45423  -0.45333  -0.45058  -0.44389  -0.44039
 Alpha  occ. eigenvalues --   -0.42982  -0.42811  -0.42464  -0.41946  -0.41784
 Alpha  occ. eigenvalues --   -0.41507  -0.41318  -0.41275  -0.40761  -0.40155
 Alpha  occ. eigenvalues --   -0.39848  -0.39026  -0.38597  -0.37869  -0.37362
 Alpha  occ. eigenvalues --   -0.35982  -0.35678  -0.34101  -0.33651  -0.33566
 Alpha  occ. eigenvalues --   -0.33384  -0.32553  -0.31715  -0.30840  -0.30062
 Alpha  occ. eigenvalues --   -0.29758  -0.29578  -0.29200  -0.28520  -0.27891
 Alpha  occ. eigenvalues --   -0.26572  -0.24924  -0.24565  -0.19307
 Alpha virt. eigenvalues --   -0.13499  -0.07085  -0.06009  -0.05155  -0.04883
 Alpha virt. eigenvalues --   -0.00681  -0.00617   0.00117   0.00423   0.00592
 Alpha virt. eigenvalues --    0.00706   0.00887   0.00998   0.01248   0.02116

 Mulliken charges:
               1
     1  C    0.449064
     2  C    0.033045
     3  C    0.217588
     4  C    0.213161
     5  C    0.320204
     6  C   -0.541395
     7  C    0.207142
     8  C   -0.033565
     9  C    0.405898
    10  C   -0.291268
    11  C    0.291209
    12  C    0.199702
    13  C   -0.531880
    14  C   -0.662052
    15  H    0.168470
    16  H    0.168606
    17  H    0.161260
    18  N   -0.102869
    19  N   -0.109982
    20  O   -0.336214
    21  O   -0.331965
    22  O   -0.336456
    23  O   -0.205693
    24  C   -0.218199
    25  H    0.184565
    26  H    0.187956
    27  H    0.181595
    28  C   -0.215850
    29  H    0.184139
    30  H    0.184495
    31  H    0.180858
    32  C    0.228761
    33  C   -0.380855
    34  S   -0.270110
    35  C   -0.150140
    36  H    0.148092
    37  C    0.266602
    38  O   -0.165885
    39  C    0.743162
    40  C   -0.235525
    41  C    0.036147
    42  S   -0.255070
    43  H    0.175680
    44  H    0.163766
    45  H    0.163885
    46  C   -0.545234
    47  O   -0.177345
    48  C   -0.359591
    49  H    0.159981
    50  C   -0.246656
    51  H    0.187129
    52  H    0.159818
    53  H    0.172679
    54  H    0.159144
 Sum of Mulliken charges =  -0.00000

 Dipole moment (field-independent basis, Debye):
    X=             -0.6544    Y=             -0.1710    Z=             -0.1925  Tot=              0.7032
 Quadrupole moment (field-independent basis, Debye-Ang):
   XX=           -218.7707   YY=           -235.8867   ZZ=           -193.1080
   XY=             -4.8124   XZ=             14.9094   YZ=             -8.8988

 Normal termination of Gaussian 16 at Wed Oct 27 20:07:28 2021.
