 Gaussian 16, Revision C.01,
 Gaussian 16:  ES64L-G16RevC.01  3-Jul-2019

 ---------------------------------------------------------------
 # opt=modredundant b3lyp/6-311+g(d,p) scrf=(pcm, solvent=water)
 ---------------------------------------------------------------

 ----------
 NDI_25.pdb
 ----------
 Symbolic Z-matrix:
 Charge =  0 Multiplicity = 1

 SCF Done:  E(RB3LYP) =  -2359.34591878     A.U. after   16 cycles
 SCF Done:  E(RB3LYP) =  -2359.33854968     A.U. after   17 cycles
 SCF Done:  E(RB3LYP) =  -2359.35050953     A.U. after   14 cycles
 SCF Done:  E(RB3LYP) =  -2359.35497965     A.U. after   16 cycles
 SCF Done:  E(RB3LYP) =  -2359.35566845     A.U. after   16 cycles
 SCF Done:  E(RB3LYP) =  -2359.35672454     A.U. after   13 cycles
 SCF Done:  E(RB3LYP) =  -2359.35697553     A.U. after   17 cycles
 SCF Done:  E(RB3LYP) =  -2359.35827083     A.U. after   15 cycles
 SCF Done:  E(RB3LYP) =  -2359.35864013     A.U. after   13 cycles
 SCF Done:  E(RB3LYP) =  -2359.35887271     A.U. after   14 cycles
 SCF Done:  E(RB3LYP) =  -2359.35916197     A.U. after   11 cycles
 SCF Done:  E(RB3LYP) =  -2359.35918523     A.U. after   10 cycles
 SCF Done:  E(RB3LYP) =  -2359.35920393     A.U. after   11 cycles
 SCF Done:  E(RB3LYP) =  -2359.35920653     A.U. after   10 cycles
 SCF Done:  E(RB3LYP) =  -2359.35920741     A.U. after   11 cycles
 SCF Done:  E(RB3LYP) =  -2359.35920775     A.U. after   10 cycles
 SCF Done:  E(RB3LYP) =  -2359.35920786     A.U. after    9 cycles
 SCF Done:  E(RB3LYP) =  -2359.35920787     A.U. after    8 cycles
 SCF Done:  E(RB3LYP) =  -2359.35920789     A.U. after    8 cycles
 SCF Done:  E(RB3LYP) =  -2359.35920789     A.U. after    9 cycles
 Optimization completed.
    -- Stationary point found.

                         Standard orientation:
 ---------------------------------------------------------------------
 Center     Atomic      Atomic             Coordinates (Angstroms)
 Number     Number       Type             X           Y           Z
 ---------------------------------------------------------------------
      1          6           0       -2.659870   -3.012058    0.244277
      2          6           0       -2.303149   -1.579178    0.096992
      3          6           0       -3.316289   -0.593314    0.063314
      4          6           0       -4.672611   -0.953417    0.184210
      5          6           0       -5.056023   -2.379911    0.340307
      6          6           0       -0.984182   -1.210988    0.041740
      7          6           0       -2.938960    0.766580   -0.105019
      8          6           0       -1.567498    1.130727   -0.235322
      9          6           0       -0.561147    0.145450   -0.082670
     10          6           0       -1.281591    2.515793   -0.686822
     11          6           0       -3.646234    3.169652   -0.309328
     12          6           0       -3.970557    1.737934   -0.135258
     13          6           0       -5.300082    1.364769    0.001947
     14          6           0       -5.657873    0.022125    0.157309
     15          1           0       -6.696378   -0.264602    0.255009
     16          1           0       -6.060334    2.134594   -0.016563
     17          1           0       -0.241866   -1.992170    0.141095
     18          7           0       -2.310545    3.467091   -0.561228
     19          7           0       -4.017288   -3.321419    0.348735
     20          8           0       -1.822340   -3.900867    0.274595
     21          8           0       -6.220674   -2.728253    0.453439
     22          8           0       -4.496955    4.049099   -0.264931
     23          8           0       -0.222712    2.866552   -1.184396
     24          6           0       -1.960178    4.860461   -0.875697
     25          1           0       -0.982939    5.084146   -0.455445
     26          1           0       -1.925237    5.012830   -1.956269
     27          1           0       -2.718309    5.504910   -0.442523
     28          6           0       -4.353963   -4.746658    0.489901
     29          1           0       -3.946751   -5.302935   -0.353613
     30          1           0       -3.925608   -5.138329    1.412686
     31          1           0       -5.434309   -4.837452    0.513215
     32          6           0        0.862256    0.393592    0.091815
     33          6           0        1.514418    1.500222    0.597827
     34         16           0        2.027053   -0.850308   -0.348212
     35          6           0        2.912098    1.351902    0.652453
     36          1           0        0.998618    2.381835    0.940550
     37          6           0        3.382844    0.128404    0.161808
     38          8           0        3.802981    2.258518    1.124765
     39          6           0        4.743200   -0.313940    0.058490
     40          6           0        3.300551    3.517587    1.590408
     41          6           0        5.206477   -1.538636   -0.419038
     42         16           0        6.117322    0.681138    0.538859
     43          1           0        4.173436    4.089145    1.897674
     44          1           0        2.776799    4.046247    0.789761
     45          1           0        2.633565    3.377709    2.445084
     46          6           0        6.622736   -1.673145   -0.398704
     47          8           0        4.316916   -2.465002   -0.848500
     48          6           0        7.236445   -0.554718    0.091828
     49          1           0        7.159268   -2.550381   -0.728808
     50          6           0        4.822177   -3.717271   -1.332537
     51          1           0        8.294751   -0.385120    0.220038
     52          1           0        5.374212   -4.241475   -0.548593
     53          1           0        3.947826   -4.298547   -1.616306
     54          1           0        5.462398   -3.565555   -2.205045
 ---------------------------------------------------------------------

 The electronic state is 1-A.
 Alpha  occ. eigenvalues --  -88.89080 -88.88754 -19.17310 -19.17154 -19.12873
 Alpha  occ. eigenvalues --  -19.12847 -19.12242 -19.12161 -14.38850 -14.38321
 Alpha  occ. eigenvalues --  -10.31436 -10.31279 -10.30940 -10.30738 -10.25249
 Alpha  occ. eigenvalues --  -10.25215 -10.23807 -10.23137 -10.22949 -10.22911
 Alpha  occ. eigenvalues --  -10.22687 -10.22474 -10.22315 -10.22294 -10.22168
 Alpha  occ. eigenvalues --  -10.22168 -10.22135 -10.21862 -10.21525 -10.21194
 Alpha  occ. eigenvalues --  -10.20918 -10.20894 -10.20812 -10.20712 -10.19315
 Alpha  occ. eigenvalues --  -10.18959  -7.97646  -7.97311  -5.93961  -5.93621
 Alpha  occ. eigenvalues --   -5.93575  -5.93234  -5.93195  -5.92878  -1.08956
 Alpha  occ. eigenvalues --   -1.08717  -1.08592  -1.08469  -1.07144  -1.06565
 Alpha  occ. eigenvalues --   -0.96474  -0.95940  -0.92377  -0.90772  -0.89070
 Alpha  occ. eigenvalues --   -0.86667  -0.84205  -0.80626  -0.78468  -0.77856
 Alpha  occ. eigenvalues --   -0.76459  -0.75502  -0.75194  -0.73412  -0.72467
 Alpha  occ. eigenvalues --   -0.71932  -0.70266  -0.68961  -0.67333  -0.65890
 Alpha  occ. eigenvalues --   -0.65609  -0.64800  -0.61372  -0.60056  -0.58702
 Alpha  occ. eigenvalues --   -0.57455  -0.56787  -0.56230  -0.55439  -0.54943
 Alpha  occ. eigenvalues --   -0.53527  -0.51753  -0.50444  -0.50046  -0.49963
 Alpha  occ. eigenvalues --   -0.49456  -0.49130  -0.48589  -0.48473  -0.48071
 Alpha  occ. eigenvalues --   -0.48039  -0.47199  -0.46928  -0.46541  -0.46042
 Alpha  occ. eigenvalues --   -0.45426  -0.45376  -0.44924  -0.44073  -0.43708
 Alpha  occ. eigenvalues --   -0.42920  -0.42757  -0.42392  -0.42194  -0.41939
 Alpha  occ. eigenvalues --   -0.41855  -0.41330  -0.41105  -0.40649  -0.40055
 Alpha  occ. eigenvalues --   -0.39701  -0.39232  -0.39146  -0.37994  -0.37485
 Alpha  occ. eigenvalues --   -0.36520  -0.36223  -0.34447  -0.34174  -0.33884
 Alpha  occ. eigenvalues --   -0.33768  -0.32156  -0.31519  -0.30802  -0.30075
 Alpha  occ. eigenvalues --   -0.29731  -0.29299  -0.29114  -0.28515  -0.27461
 Alpha  occ. eigenvalues --   -0.26192  -0.25192  -0.24978  -0.19738
 Alpha virt. eigenvalues --   -0.13252  -0.07937  -0.06507  -0.04752  -0.03867
 Alpha virt. eigenvalues --   -0.00637  -0.00571   0.00143   0.00316   0.00466
 Alpha virt. eigenvalues --    0.00781   0.01070   0.01393   0.01536   0.02017

 Mulliken charges:
               1
     1  C    0.375233
     2  C   -0.082803
     3  C    0.201511
     4  C    0.216852
     5  C    0.295779
     6  C    0.028144
     7  C    0.208229
     8  C    0.603010
     9  C    0.223448
    10  C   -0.788065
    11  C    0.285822
    12  C    0.116248
    13  C   -0.492878
    14  C   -0.623282
    15  H    0.164393
    16  H    0.164950
    17  H    0.166961
    18  N    0.015214
    19  N   -0.108434
    20  O   -0.351410
    21  O   -0.334286
    22  O   -0.358735
    23  O   -0.283262
    24  C   -0.191131
    25  H    0.179657
    26  H    0.190019
    27  H    0.179135
    28  C   -0.216597
    29  H    0.181446
    30  H    0.185438
    31  H    0.179680
    32  C   -0.034038
    33  C   -0.533152
    34  S   -0.649193
    35  C   -0.291954
    36  H    0.169638
    37  C    0.729222
    38  O   -0.151023
    39  C    0.843412
    40  C   -0.246059
    41  C    0.036245
    42  S   -0.217482
    43  H    0.179357
    44  H    0.167029
    45  H    0.165057
    46  C   -0.635041
    47  O   -0.154394
    48  C   -0.316461
    49  H    0.164490
    50  C   -0.253394
    51  H    0.193214
    52  H    0.164093
    53  H    0.176500
    54  H    0.163649
 Sum of Mulliken charges =  -0.00000

 Dipole moment (field-independent basis, Debye):
    X=              6.3286    Y=             -0.7893    Z=              1.0342  Tot=              6.4610
 Quadrupole moment (field-independent basis, Debye-Ang):
   XX=           -210.8917   YY=           -209.4089   ZZ=           -220.6474
   XY=             -7.3417   XZ=             -0.6873   YZ=             15.0498

 Normal termination of Gaussian 16 at Wed Oct 27 22:40:20 2021.
