 Gaussian 16, Revision C.01,
 Gaussian 16:  ES64L-G16RevC.01  3-Jul-2019

 ---------------------------------------------------------------
 # opt=modredundant b3lyp/6-311+g(d,p) scrf=(pcm, solvent=water)
 ---------------------------------------------------------------

 -----------
 NDI_-45.pdb
 -----------
 Symbolic Z-matrix:
 Charge =  0 Multiplicity = 1

 SCF Done:  E(RB3LYP) =  -2359.35842644     A.U. after   17 cycles
 SCF Done:  E(RB3LYP) =  -2359.35921912     A.U. after   13 cycles
 SCF Done:  E(RB3LYP) =  -2359.35951097     A.U. after   13 cycles
 SCF Done:  E(RB3LYP) =  -2359.35971890     A.U. after   12 cycles
 SCF Done:  E(RB3LYP) =  -2359.35977638     A.U. after   14 cycles
 SCF Done:  E(RB3LYP) =  -2359.35985106     A.U. after   12 cycles
 SCF Done:  E(RB3LYP) =  -2359.35986983     A.U. after   11 cycles
 SCF Done:  E(RB3LYP) =  -2359.35988654     A.U. after   12 cycles
 SCF Done:  E(RB3LYP) =  -2359.35989573     A.U. after   10 cycles
 SCF Done:  E(RB3LYP) =  -2359.35990945     A.U. after   11 cycles
 SCF Done:  E(RB3LYP) =  -2359.35995495     A.U. after    8 cycles
 SCF Done:  E(RB3LYP) =  -2359.35995497     A.U. after    7 cycles
 SCF Done:  E(RB3LYP) =  -2359.35995498     A.U. after    7 cycles
 SCF Done:  E(RB3LYP) =  -2359.35995499     A.U. after    8 cycles
 SCF Done:  E(RB3LYP) =  -2359.35995501     A.U. after    8 cycles
 SCF Done:  E(RB3LYP) =  -2359.35995502     A.U. after    8 cycles
 SCF Done:  E(RB3LYP) =  -2359.35995504     A.U. after    7 cycles
 SCF Done:  E(RB3LYP) =  -2359.35995505     A.U. after    8 cycles
 SCF Done:  E(RB3LYP) =  -2359.35995505     A.U. after    8 cycles
 SCF Done:  E(RB3LYP) =  -2359.35995506     A.U. after    8 cycles
 Optimization completed.
    -- Stationary point found.

                         Standard orientation:
 ---------------------------------------------------------------------
 Center     Atomic      Atomic             Coordinates (Angstroms)
 Number     Number       Type             X           Y           Z
 ---------------------------------------------------------------------
      1          6           0        2.792401   -2.965107    0.430913
      2          6           0        2.372907   -1.558138    0.213550
      3          6           0        3.344243   -0.542121    0.065238
      4          6           0        4.719312   -0.846845    0.132941
      5          6           0        5.164915   -2.246334    0.356395
      6          6           0        1.037082   -1.240133    0.196758
      7          6           0        2.912882    0.792659   -0.162648
      8          6           0        1.525301    1.099773   -0.238091
      9          6           0        0.573262    0.092269    0.017250
     10          6           0        1.147070    2.458710   -0.710437
     11          6           0        3.511264    3.203615   -0.547757
     12          6           0        3.901928    1.796151   -0.309420
     13          6           0        5.248653    1.477417   -0.227600
     14          6           0        5.662446    0.157954   -0.010027
     15          1           0        6.714761   -0.086633    0.046226
     16          1           0        5.979261    2.268134   -0.336679
     17          1           0        0.318340   -2.030092    0.371503
     18          7           0        2.150130    3.444345   -0.716340
     19          7           0        4.164389   -3.219816    0.481578
     20          8           0        1.992241   -3.878551    0.561903
     21          8           0        6.346316   -2.545580    0.426393
     22          8           0        4.330816    4.109418   -0.617323
     23          8           0        0.034170    2.753366   -1.114186
     24          6           0        1.726510    4.809019   -1.065677
     25          1           0        1.574414    4.898383   -2.143028
     26          1           0        0.791923    5.031983   -0.556850
     27          1           0        2.505434    5.495414   -0.750102
     28          6           0        4.561636   -4.620280    0.695050
     29          1           0        4.191635   -4.966093    1.660366
     30          1           0        4.137523   -5.244016   -0.091018
     31          1           0        5.644605   -4.671062    0.671361
     32          6           0       -0.859918    0.320095    0.188886
     33          6           0       -1.489887    1.291850    0.932031
     34         16           0       -2.022586   -0.807467   -0.477034
     35          6           0       -2.893246    1.143952    0.963815
     36          1           0       -0.954237    2.074923    1.446913
     37          6           0       -3.373731    0.054352    0.235027
     38          8           0       -3.773092    1.938461    1.625804
     39          6           0       -4.740040   -0.345660    0.038849
     40          6           0       -3.257848    3.085178    2.313214
     41          6           0       -5.213029   -1.445773   -0.670752
     42         16           0       -6.106523    0.554228    0.695022
     43          1           0       -4.122458    3.587120    2.741903
     44          1           0       -2.574673    2.785684    3.112390
     45          1           0       -2.748221    3.758233    1.618699
     46          6           0       -6.631760   -1.563271   -0.687084
     47          8           0       -4.329681   -2.283854   -1.268900
     48          6           0       -7.238145   -0.554973    0.007814
     49          1           0       -7.174850   -2.352617   -1.185710
     50          6           0       -4.847444   -3.409017   -1.990644
     51          1           0       -8.295272   -0.400237    0.161446
     52          1           0       -5.479896   -3.081104   -2.819516
     53          1           0       -3.979089   -3.936129   -2.379627
     54          1           0       -5.411826   -4.069886   -1.327853
 ---------------------------------------------------------------------

 The electronic state is 1-A.
 Alpha  occ. eigenvalues --  -88.88922 -88.88567 -19.17062 -19.16957 -19.12925
 Alpha  occ. eigenvalues --  -19.12904 -19.12421 -19.12336 -14.38898 -14.38454
 Alpha  occ. eigenvalues --  -10.31496 -10.31339 -10.31106 -10.30934 -10.24954
 Alpha  occ. eigenvalues --  -10.24926 -10.23705 -10.22846 -10.22829 -10.22792
 Alpha  occ. eigenvalues --  -10.22663 -10.22561 -10.22478 -10.22311 -10.22273
 Alpha  occ. eigenvalues --  -10.22271 -10.22073 -10.21954 -10.21555 -10.21096
 Alpha  occ. eigenvalues --  -10.21021 -10.20939 -10.20917 -10.20755 -10.19143
 Alpha  occ. eigenvalues --  -10.18799  -7.97480  -7.97126  -5.93797  -5.93435
 Alpha  occ. eigenvalues --   -5.93411  -5.93049  -5.93029  -5.92694  -1.09013
 Alpha  occ. eigenvalues --   -1.08629  -1.08449  -1.08350  -1.07204  -1.06752
 Alpha  occ. eigenvalues --   -0.96532  -0.96069  -0.92507  -0.90595  -0.88920
 Alpha  occ. eigenvalues --   -0.86743  -0.84337  -0.80564  -0.78542  -0.77723
 Alpha  occ. eigenvalues --   -0.76329  -0.75301  -0.75261  -0.73264  -0.72515
 Alpha  occ. eigenvalues --   -0.71912  -0.70149  -0.68901  -0.67410  -0.65988
 Alpha  occ. eigenvalues --   -0.65626  -0.64893  -0.61266  -0.59922  -0.58691
 Alpha  occ. eigenvalues --   -0.57519  -0.56703  -0.56029  -0.55501  -0.54737
 Alpha  occ. eigenvalues --   -0.53594  -0.51818  -0.50413  -0.50081  -0.49999
 Alpha  occ. eigenvalues --   -0.49519  -0.49176  -0.48618  -0.48315  -0.47932
 Alpha  occ. eigenvalues --   -0.47927  -0.47312  -0.46981  -0.46599  -0.45930
 Alpha  occ. eigenvalues --   -0.45524  -0.45289  -0.45017  -0.44152  -0.43846
 Alpha  occ. eigenvalues --   -0.42882  -0.42731  -0.42240  -0.42203  -0.41908
 Alpha  occ. eigenvalues --   -0.41728  -0.41440  -0.41151  -0.40666  -0.39999
 Alpha  occ. eigenvalues --   -0.39783  -0.39238  -0.39033  -0.37803  -0.37606
 Alpha  occ. eigenvalues --   -0.36371  -0.35937  -0.34363  -0.34014  -0.33858
 Alpha  occ. eigenvalues --   -0.33663  -0.32246  -0.31587  -0.30797  -0.30020
 Alpha  occ. eigenvalues --   -0.29753  -0.29305  -0.29246  -0.28541  -0.27549
 Alpha  occ. eigenvalues --   -0.26227  -0.25100  -0.24905  -0.19608
 Alpha virt. eigenvalues --   -0.13319  -0.07491  -0.06494  -0.04869  -0.04150
 Alpha virt. eigenvalues --   -0.00729  -0.00569   0.00109   0.00416   0.00482
 Alpha virt. eigenvalues --    0.00687   0.01059   0.01221   0.01490   0.02118

 Mulliken charges:
               1
     1  C    0.438969
     2  C   -0.107108
     3  C    0.121674
     4  C    0.236950
     5  C    0.299960
     6  C   -0.361289
     7  C    0.171506
     8  C    0.401455
     9  C    0.418421
    10  C   -0.505383
    11  C    0.283887
    12  C    0.131576
    13  C   -0.477799
    14  C   -0.620926
    15  H    0.165790
    16  H    0.165885
    17  H    0.174454
    18  N   -0.024975
    19  N   -0.110586
    20  O   -0.347433
    21  O   -0.333379
    22  O   -0.351954
    23  O   -0.246722
    24  C   -0.199373
    25  H    0.190847
    26  H    0.180084
    27  H    0.179745
    28  C   -0.215082
    29  H    0.185482
    30  H    0.181867
    31  H    0.180178
    32  C    0.160921
    33  C   -0.554611
    34  S   -0.566311
    35  C   -0.276180
    36  H    0.162611
    37  C    0.721158
    38  O   -0.158487
    39  C    0.748460
    40  C   -0.242369
    41  C    0.001157
    42  S   -0.234057
    43  H    0.177643
    44  H    0.163658
    45  H    0.166112
    46  C   -0.605647
    47  O   -0.158886
    48  C   -0.313547
    49  H    0.162987
    50  C   -0.252685
    51  H    0.191065
    52  H    0.162846
    53  H    0.175080
    54  H    0.162360
 Sum of Mulliken charges =  -0.00000

 Dipole moment (field-independent basis, Debye):
    X=             -4.4448    Y=             -0.5242    Z=              0.9031  Tot=              4.5658
 Quadrupole moment (field-independent basis, Debye-Ang):
   XX=           -213.7003   YY=           -214.6815   ZZ=           -214.8144
   XY=              6.7736   XZ=              4.6633   YZ=             19.4657

 Normal termination of Gaussian 16 at Wed Oct 27 22:07:04 2021.
