 Gaussian 16, Revision C.01,
 Gaussian 16:  ES64L-G16RevC.01  3-Jul-2019

 ---------------------------------------------------------------
 # opt=modredundant b3lyp/6-311+g(d,p) scrf=(pcm, solvent=water)
 ---------------------------------------------------------------

 -----------
 NDI_-40.pdb
 -----------
 Symbolic Z-matrix:
 Charge =  0 Multiplicity = 1

 SCF Done:  E(RB3LYP) =  -2359.35843630     A.U. after   17 cycles
 SCF Done:  E(RB3LYP) =  -2359.35929299     A.U. after   13 cycles
 SCF Done:  E(RB3LYP) =  -2359.35944737     A.U. after   14 cycles
 SCF Done:  E(RB3LYP) =  -2359.35960846     A.U. after   15 cycles
 SCF Done:  E(RB3LYP) =  -2359.35978672     A.U. after   12 cycles
 SCF Done:  E(RB3LYP) =  -2359.35984000     A.U. after   13 cycles
 SCF Done:  E(RB3LYP) =  -2359.35987415     A.U. after   11 cycles
 SCF Done:  E(RB3LYP) =  -2359.35988373     A.U. after   12 cycles
 SCF Done:  E(RB3LYP) =  -2359.35989550     A.U. after   11 cycles
 SCF Done:  E(RB3LYP) =  -2359.35990634     A.U. after   11 cycles
 SCF Done:  E(RB3LYP) =  -2359.35993908     A.U. after   12 cycles
 SCF Done:  E(RB3LYP) =  -2359.35994600     A.U. after   10 cycles
 SCF Done:  E(RB3LYP) =  -2359.35994923     A.U. after   11 cycles
 SCF Done:  E(RB3LYP) =  -2359.35995313     A.U. after   10 cycles
 SCF Done:  E(RB3LYP) =  -2359.35995537     A.U. after   10 cycles
 SCF Done:  E(RB3LYP) =  -2359.35995668     A.U. after   10 cycles
 SCF Done:  E(RB3LYP) =  -2359.35995824     A.U. after   10 cycles
 SCF Done:  E(RB3LYP) =  -2359.35995891     A.U. after   10 cycles
 SCF Done:  E(RB3LYP) =  -2359.35995906     A.U. after    8 cycles
 SCF Done:  E(RB3LYP) =  -2359.35995913     A.U. after    9 cycles
 Optimization completed.
    -- Stationary point found.

                         Standard orientation:
 ---------------------------------------------------------------------
 Center     Atomic      Atomic             Coordinates (Angstroms)
 Number     Number       Type             X           Y           Z
 ---------------------------------------------------------------------
      1          6           0        2.765621   -2.977160    0.392415
      2          6           0        2.358533   -1.564740    0.187708
      3          6           0        3.338615   -0.553329    0.065301
      4          6           0        4.710236   -0.868101    0.147088
      5          6           0        5.143488   -2.273172    0.358902
      6          6           0        1.025758   -1.237577    0.160203
      7          6           0        2.917917    0.786755   -0.151583
      8          6           0        1.533206    1.104446   -0.241042
      9          6           0        0.569825    0.100029   -0.008075
     10          6           0        1.173938    2.467445   -0.714494
     11          6           0        3.538103    3.197430   -0.499588
     12          6           0        3.915839    1.784966   -0.273175
     13          6           0        5.259595    1.456333   -0.177207
     14          6           0        5.662240    0.132091    0.029216
     15          1           0        6.712081   -0.120194    0.096330
     16          1           0        5.996311    2.243851   -0.266681
     17          1           0        0.302164   -2.026503    0.318998
     18          7           0        2.181760    3.448319   -0.688468
     19          7           0        4.135023   -3.241404    0.459948
     20          8           0        1.957854   -3.887090    0.499596
     21          8           0        6.321900   -2.581496    0.439845
     22          8           0        4.363725    4.099579   -0.544394
     23          8           0        0.073306    2.770282   -1.145898
     24          6           0        1.774511    4.819457   -1.031486
     25          1           0        1.671307    4.929582   -2.112804
     26          1           0        0.818117    5.033213   -0.561101
     27          1           0        2.538432    5.499622   -0.668867
     28          6           0        4.520147   -4.646961    0.661682
     29          1           0        4.126867   -5.004354    1.613410
     30          1           0        4.110553   -5.257279   -0.142518
     31          1           0        5.603087   -4.703387    0.661129
     32          6           0       -0.860280    0.332407    0.166060
     33          6           0       -1.493305    1.344750    0.852283
     34         16           0       -2.025201   -0.827011   -0.443559
     35          6           0       -2.895274    1.198265    0.891486
     36          1           0       -0.960576    2.155421    1.325010
     37          6           0       -3.375613    0.070884    0.220231
     38          8           0       -3.776226    2.025741    1.509218
     39          6           0       -4.741164   -0.339274    0.046535
     40          6           0       -3.260956    3.197825    2.152657
     41          6           0       -5.213627   -1.472648   -0.610014
     42         16           0       -6.108080    0.588427    0.662025
     43          1           0       -4.126380    3.719492    2.555277
     44          1           0       -2.583553    2.928442    2.967311
     45          1           0       -2.744992    3.840591    1.434568
     46          6           0       -6.631951   -1.592858   -0.618297
     47          8           0       -4.329968   -2.336175   -1.168818
     48          6           0       -7.238458   -0.553716    0.029642
     49          1           0       -7.174784   -2.405423   -1.078367
     50          6           0       -4.846375   -3.488684   -1.847567
     51          1           0       -8.295625   -0.393450    0.177301
     52          1           0       -5.476648   -3.192856   -2.690006
     53          1           0       -3.977120   -4.030521   -2.213547
     54          1           0       -5.412372   -4.123221   -1.160934
 ---------------------------------------------------------------------

 The electronic state is 1-A.
 Alpha  occ. eigenvalues --  -88.88970 -88.88619 -19.17128 -19.17014 -19.12909
 Alpha  occ. eigenvalues --  -19.12886 -19.12373 -19.12287 -14.38883 -14.38416
 Alpha  occ. eigenvalues --  -10.31478 -10.31320 -10.31065 -10.30878 -10.25031
 Alpha  occ. eigenvalues --  -10.25012 -10.23717 -10.22876 -10.22856 -10.22794
 Alpha  occ. eigenvalues --  -10.22760 -10.22486 -10.22429 -10.22313 -10.22274
 Alpha  occ. eigenvalues --  -10.22236 -10.22014 -10.22012 -10.21546 -10.21048
 Alpha  occ. eigenvalues --  -10.21007 -10.20965 -10.20909 -10.20746 -10.19202
 Alpha  occ. eigenvalues --  -10.18843  -7.97531  -7.97177  -5.93846  -5.93486
 Alpha  occ. eigenvalues --   -5.93461  -5.93099  -5.93080  -5.92744  -1.08996
 Alpha  occ. eigenvalues --   -1.08582  -1.08520  -1.08417  -1.07186  -1.06699
 Alpha  occ. eigenvalues --   -0.96514  -0.96032  -0.92471  -0.90647  -0.88963
 Alpha  occ. eigenvalues --   -0.86724  -0.84301  -0.80581  -0.78519  -0.77760
 Alpha  occ. eigenvalues --   -0.76369  -0.75358  -0.75244  -0.73304  -0.72502
 Alpha  occ. eigenvalues --   -0.71916  -0.70182  -0.68919  -0.67387  -0.65961
 Alpha  occ. eigenvalues --   -0.65618  -0.64868  -0.61294  -0.59958  -0.58691
 Alpha  occ. eigenvalues --   -0.57500  -0.56730  -0.56084  -0.55483  -0.54793
 Alpha  occ. eigenvalues --   -0.53576  -0.51798  -0.50419  -0.50065  -0.49996
 Alpha  occ. eigenvalues --   -0.49503  -0.49162  -0.48609  -0.48358  -0.47969
 Alpha  occ. eigenvalues --   -0.47961  -0.47275  -0.46971  -0.46577  -0.45959
 Alpha  occ. eigenvalues --   -0.45501  -0.45318  -0.44994  -0.44125  -0.43822
 Alpha  occ. eigenvalues --   -0.42890  -0.42727  -0.42276  -0.42196  -0.41903
 Alpha  occ. eigenvalues --   -0.41788  -0.41425  -0.41132  -0.40659  -0.40011
 Alpha  occ. eigenvalues --   -0.39764  -0.39223  -0.39089  -0.37855  -0.37576
 Alpha  occ. eigenvalues --   -0.36417  -0.36007  -0.34380  -0.34065  -0.33873
 Alpha  occ. eigenvalues --   -0.33703  -0.32220  -0.31568  -0.30797  -0.30028
 Alpha  occ. eigenvalues --   -0.29750  -0.29302  -0.29210  -0.28535  -0.27524
 Alpha  occ. eigenvalues --   -0.26207  -0.25126  -0.24928  -0.19643
 Alpha virt. eigenvalues --   -0.13301  -0.07600  -0.06504  -0.04837  -0.04070
 Alpha virt. eigenvalues --   -0.00711  -0.00572   0.00120   0.00388   0.00475
 Alpha virt. eigenvalues --    0.00703   0.01069   0.01269   0.01502   0.02095

 Mulliken charges:
               1
     1  C    0.425377
     2  C   -0.107119
     3  C    0.137564
     4  C    0.236886
     5  C    0.297650
     6  C   -0.281735
     7  C    0.173964
     8  C    0.464720
     9  C    0.374152
    10  C   -0.559992
    11  C    0.285388
    12  C    0.128366
    13  C   -0.480679
    14  C   -0.624145
    15  H    0.165451
    16  H    0.165641
    17  H    0.173305
    18  N   -0.012112
    19  N   -0.109882
    20  O   -0.348563
    21  O   -0.333566
    22  O   -0.353899
    23  O   -0.255334
    24  C   -0.197864
    25  H    0.190809
    26  H    0.179955
    27  H    0.179471
    28  C   -0.215168
    29  H    0.185083
    30  H    0.182087
    31  H    0.180069
    32  C    0.141058
    33  C   -0.581400
    34  S   -0.590548
    35  C   -0.291448
    36  H    0.164619
    37  C    0.730336
    38  O   -0.156510
    39  C    0.770929
    40  C   -0.243081
    41  C    0.010282
    42  S   -0.229971
    43  H    0.178176
    44  H    0.164231
    45  H    0.166196
    46  C   -0.612128
    47  O   -0.157702
    48  C   -0.312296
    49  H    0.163348
    50  C   -0.253043
    51  H    0.191605
    52  H    0.163212
    53  H    0.175468
    54  H    0.162784
 Sum of Mulliken charges =  -0.00000

 Dipole moment (field-independent basis, Debye):
    X=             -4.9402    Y=             -0.5893    Z=              0.9551  Tot=              5.0660
 Quadrupole moment (field-independent basis, Debye-Ang):
   XX=           -212.9125   YY=           -213.4417   ZZ=           -216.2483
   XY=              6.9377   XZ=              3.8427   YZ=             18.7277

 Normal termination of Gaussian 16 at Wed Oct 27 22:17:48 2021.
