 Gaussian 16, Revision C.01,
 Gaussian 16:  ES64L-G16RevC.01  3-Jul-2019

 ---------------------------------------------------------------
 # opt=modredundant b3lyp/6-311+g(d,p) scrf=(pcm, solvent=water)
 ---------------------------------------------------------------

 ------------
 NDI_-115.pdb
 ------------
 Symbolic Z-matrix:
 Charge =  0 Multiplicity = 1

 SCF Done:  E(RB3LYP) =  -2359.35177135     A.U. after   17 cycles
 SCF Done:  E(RB3LYP) =  -2359.35679109     A.U. after   17 cycles
 SCF Done:  E(RB3LYP) =  -2359.35756567     A.U. after   14 cycles
 SCF Done:  E(RB3LYP) =  -2359.35815002     A.U. after   13 cycles
 SCF Done:  E(RB3LYP) =  -2359.35835683     A.U. after   13 cycles
 SCF Done:  E(RB3LYP) =  -2359.35844078     A.U. after   13 cycles
 SCF Done:  E(RB3LYP) =  -2359.35849146     A.U. after   13 cycles
 SCF Done:  E(RB3LYP) =  -2359.35851216     A.U. after   12 cycles
 SCF Done:  E(RB3LYP) =  -2359.35852192     A.U. after   12 cycles
 SCF Done:  E(RB3LYP) =  -2359.35852824     A.U. after   11 cycles
 SCF Done:  E(RB3LYP) =  -2359.35851478     A.U. after   12 cycles
 SCF Done:  E(RB3LYP) =  -2359.35853337     A.U. after   11 cycles
 SCF Done:  E(RB3LYP) =  -2359.35851831     A.U. after   12 cycles
 SCF Done:  E(RB3LYP) =  -2359.35853564     A.U. after   11 cycles
 SCF Done:  E(RB3LYP) =  -2359.35852103     A.U. after   11 cycles
 SCF Done:  E(RB3LYP) =  -2359.35853762     A.U. after   11 cycles
 SCF Done:  E(RB3LYP) =  -2359.35853953     A.U. after   11 cycles
 SCF Done:  E(RB3LYP) =  -2359.35854003     A.U. after    9 cycles
 SCF Done:  E(RB3LYP) =  -2359.35854045     A.U. after   10 cycles
 SCF Done:  E(RB3LYP) =  -2359.35854044     A.U. after    8 cycles
 Optimization completed.
    -- Stationary point found.

                         Standard orientation:
 ---------------------------------------------------------------------
 Center     Atomic      Atomic             Coordinates (Angstroms)
 Number     Number       Type             X           Y           Z
 ---------------------------------------------------------------------
      1          6           0       -3.463035   -2.736364    0.402908
      2          6           0       -2.737477   -1.472260    0.120500
      3          6           0       -3.430826   -0.242830    0.114318
      4          6           0       -4.816015   -0.195861    0.386248
      5          6           0       -5.563351   -1.446358    0.680195
      6          6           0       -1.380782   -1.496509   -0.111088
      7          6           0       -2.718071    0.951466   -0.174703
      8          6           0       -1.324424    0.904718   -0.452102
      9          6           0       -0.641161   -0.316028   -0.373093
     10          6           0       -0.655221    2.158713   -0.901079
     11          6           0       -2.729071    3.451673   -0.458609
     12          6           0       -3.428775    2.176417   -0.172396
     13          6           0       -4.785188    2.200706    0.103302
     14          6           0       -5.482631    1.016201    0.380617
     15          1           0       -6.543439    1.041559    0.591810
     16          1           0       -5.302700    3.150942    0.102835
     17          1           0       -0.856436   -2.442119   -0.069093
     18          7           0       -1.376828    3.356822   -0.783241
     19          7           0       -4.831715   -2.641232    0.664420
     20          8           0       -2.909130   -3.824431    0.412306
     21          8           0       -6.759333   -1.442406    0.922920
     22          8           0       -3.301273    4.531014   -0.427200
     23          8           0        0.467029    2.188528   -1.374960
     24          6           0       -0.659152    4.589003   -1.146202
     25          1           0        0.326217    4.576425   -0.685982
     26          1           0       -0.544506    4.656507   -2.229413
     27          1           0       -1.236426    5.433822   -0.785874
     28          6           0       -5.533070   -3.904346    0.943356
     29          1           0       -5.431190   -4.576041    0.091439
     30          1           0       -5.099582   -4.379058    1.823318
     31          1           0       -6.579018   -3.677658    1.118243
     32          6           0        0.817185   -0.487000   -0.523017
     33          6           0        1.475072   -1.164304   -1.515515
     34         16           0        1.923401    0.121298    0.678001
     35          6           0        2.884949   -1.172686   -1.333106
     36          1           0        0.966103   -1.615332   -2.355161
     37          6           0        3.316751   -0.523811   -0.183332
     38          8           0        3.797012   -1.748112   -2.162241
     39          6           0        4.664669   -0.388599    0.311269
     40          6           0        3.312662   -2.440026   -3.318726
     41          6           0        5.092150    0.262105    1.461695
     42         16           0        6.059831   -1.070341   -0.521877
     43          1           0        4.194971   -2.826558   -3.824443
     44          1           0        2.660941   -3.270098   -3.032979
     45          1           0        2.777791   -1.758850   -3.986069
     46          6           0        6.501288    0.217885    1.669693
     47          8           0        4.178847    0.863843    2.270685
     48          6           0        7.146454   -0.466837    0.679431
     49          1           0        7.009981    0.669913    2.508602
     50          6           0        4.657463    1.546354    3.435188
     51          1           0        8.205191   -0.652722    0.582572
     52          1           0        5.334319    2.359808    3.160566
     53          1           0        3.775262    1.955170    3.923319
     54          1           0        5.163033    0.853821    4.113482
 ---------------------------------------------------------------------

 The electronic state is 1-A.
 Alpha  occ. eigenvalues --  -88.88418 -88.88279 -19.16673 -19.16666 -19.13032
 Alpha  occ. eigenvalues --  -19.13027 -19.12763 -19.12729 -14.38997 -14.38728
 Alpha  occ. eigenvalues --  -10.31619 -10.31462 -10.31417 -10.31269 -10.24524
 Alpha  occ. eigenvalues --  -10.24421 -10.23715 -10.23107 -10.23016 -10.22793
 Alpha  occ. eigenvalues --  -10.22702 -10.22685 -10.22526 -10.22516 -10.22446
 Alpha  occ. eigenvalues --  -10.22067 -10.21881 -10.21626 -10.21608 -10.21410
 Alpha  occ. eigenvalues --  -10.21354 -10.20966 -10.20858 -10.20542 -10.18838
 Alpha  occ. eigenvalues --  -10.18543  -7.96973  -7.96840  -5.93298  -5.93148
 Alpha  occ. eigenvalues --   -5.92910  -5.92763  -5.92510  -5.92409  -1.09129
 Alpha  occ. eigenvalues --   -1.08982  -1.08048  -1.07962  -1.07326  -1.07131
 Alpha  occ. eigenvalues --   -0.96654  -0.96362  -0.92746  -0.90238  -0.88663
 Alpha  occ. eigenvalues --   -0.86860  -0.84577  -0.80504  -0.78721  -0.77499
 Alpha  occ. eigenvalues --   -0.76078  -0.75420  -0.74905  -0.73096  -0.72693
 Alpha  occ. eigenvalues --   -0.71744  -0.70019  -0.68763  -0.67577  -0.66195
 Alpha  occ. eigenvalues --   -0.65648  -0.65128  -0.61039  -0.59779  -0.58686
 Alpha  occ. eigenvalues --   -0.57712  -0.56671  -0.55695  -0.55309  -0.54459
 Alpha  occ. eigenvalues --   -0.53901  -0.51949  -0.50467  -0.50260  -0.49970
 Alpha  occ. eigenvalues --   -0.49520  -0.49320  -0.48694  -0.48104  -0.47801
 Alpha  occ. eigenvalues --   -0.47698  -0.47554  -0.47044  -0.46820  -0.45859
 Alpha  occ. eigenvalues --   -0.45451  -0.45373  -0.45087  -0.44375  -0.44007
 Alpha  occ. eigenvalues --   -0.42962  -0.42734  -0.42367  -0.41991  -0.41788
 Alpha  occ. eigenvalues --   -0.41629  -0.41393  -0.41232  -0.40756  -0.40152
 Alpha  occ. eigenvalues --   -0.39782  -0.39071  -0.38645  -0.37847  -0.37445
 Alpha  occ. eigenvalues --   -0.36088  -0.35743  -0.34147  -0.33700  -0.33658
 Alpha  occ. eigenvalues --   -0.33463  -0.32449  -0.31695  -0.30841  -0.30026
 Alpha  occ. eigenvalues --   -0.29729  -0.29466  -0.29210  -0.28570  -0.27869
 Alpha  occ. eigenvalues --   -0.26468  -0.25008  -0.24623  -0.19392
 Alpha virt. eigenvalues --   -0.13447  -0.07111  -0.06204  -0.05090  -0.04666
 Alpha virt. eigenvalues --   -0.00778  -0.00617   0.00115   0.00416   0.00537
 Alpha virt. eigenvalues --    0.00724   0.00933   0.01108   0.01233   0.02119

 Mulliken charges:
               1
     1  C    0.452661
     2  C   -0.038530
     3  C    0.170862
     4  C    0.214713
     5  C    0.310551
     6  C   -0.443494
     7  C    0.178495
     8  C    0.046694
     9  C    0.338244
    10  C   -0.348121
    11  C    0.319459
    12  C    0.145179
    13  C   -0.473399
    14  C   -0.648465
    15  H    0.167864
    16  H    0.167966
    17  H    0.161075
    18  N   -0.047550
    19  N   -0.108834
    20  O   -0.338746
    21  O   -0.333728
    22  O   -0.343423
    23  O   -0.233861
    24  C   -0.203154
    25  H    0.182586
    26  H    0.192157
    27  H    0.181307
    28  C   -0.215504
    29  H    0.183707
    30  H    0.184756
    31  H    0.181029
    32  C    0.347770
    33  C   -0.440581
    34  S   -0.399691
    35  C   -0.180222
    36  H    0.153071
    37  C    0.341164
    38  O   -0.161971
    39  C    0.780313
    40  C   -0.235801
    41  C    0.026481
    42  S   -0.251780
    43  H    0.175956
    44  H    0.164618
    45  H    0.164013
    46  C   -0.562663
    47  O   -0.171754
    48  C   -0.344839
    49  H    0.160654
    50  C   -0.248582
    51  H    0.187998
    52  H    0.160205
    53  H    0.173213
    54  H    0.159930
 Sum of Mulliken charges =  -0.00000

 Dipole moment (field-independent basis, Debye):
    X=              1.5749    Y=             -0.2480    Z=              0.5143  Tot=              1.6753
 Quadrupole moment (field-independent basis, Debye-Ang):
   XX=           -216.6214   YY=           -230.4365   ZZ=           -199.9187
   XY=              8.0919   XZ=             14.9796   YZ=             16.0620

 Normal termination of Gaussian 16 at Wed Oct 27 21:10:10 2021.
