 Gaussian 16, Revision C.01,
 Gaussian 16:  ES64L-G16RevC.01  3-Jul-2019

 ---------------------------------------------------------------
 # opt=modredundant b3lyp/6-311+g(d,p) scrf=(pcm, solvent=water)
 ---------------------------------------------------------------

 -----------
 NDI_-60.pdb
 -----------
 Symbolic Z-matrix:
 Charge =  0 Multiplicity = 1

 SCF Done:  E(RB3LYP) =  -2359.35691361     A.U. after   17 cycles
 SCF Done:  E(RB3LYP) =  -2359.35843563     A.U. after   15 cycles
 SCF Done:  E(RB3LYP) =  -2359.35893749     A.U. after   14 cycles
 SCF Done:  E(RB3LYP) =  -2359.35903548     A.U. after   14 cycles
 SCF Done:  E(RB3LYP) =  -2359.35915287     A.U. after   14 cycles
 SCF Done:  E(RB3LYP) =  -2359.35919837     A.U. after   14 cycles
 SCF Done:  E(RB3LYP) =  -2359.35915562     A.U. after   11 cycles
 SCF Done:  E(RB3LYP) =  -2359.35916185     A.U. after   11 cycles
 SCF Done:  E(RB3LYP) =  -2359.35921496     A.U. after   12 cycles
 SCF Done:  E(RB3LYP) =  -2359.35917526     A.U. after   12 cycles
 SCF Done:  E(RB3LYP) =  -2359.35921755     A.U. after   12 cycles
 SCF Done:  E(RB3LYP) =  -2359.35922318     A.U. after   11 cycles
 SCF Done:  E(RB3LYP) =  -2359.35922372     A.U. after    9 cycles
 SCF Done:  E(RB3LYP) =  -2359.35922426     A.U. after    9 cycles
 SCF Done:  E(RB3LYP) =  -2359.35922513     A.U. after   10 cycles
 SCF Done:  E(RB3LYP) =  -2359.35922547     A.U. after    9 cycles
 SCF Done:  E(RB3LYP) =  -2359.35922571     A.U. after    9 cycles
 SCF Done:  E(RB3LYP) =  -2359.35922567     A.U. after    8 cycles
 SCF Done:  E(RB3LYP) =  -2359.35922572     A.U. after    8 cycles
 SCF Done:  E(RB3LYP) =  -2359.35922578     A.U. after    8 cycles
 Optimization completed.
    -- Stationary point found.

                         Standard orientation:
 ---------------------------------------------------------------------
 Center     Atomic      Atomic             Coordinates (Angstroms)
 Number     Number       Type             X           Y           Z
 ---------------------------------------------------------------------
      1          6           0        2.877376   -2.923444    0.525978
      2          6           0        2.418689   -1.532686    0.283036
      3          6           0        3.360266   -0.504242    0.057970
      4          6           0        4.744221   -0.780380    0.070589
      5          6           0        5.228874   -2.163325    0.316622
      6          6           0        1.074979   -1.241408    0.308014
      7          6           0        2.894689    0.815031   -0.189822
      8          6           0        1.499875    1.092214   -0.210324
      9          6           0        0.584393    0.075049    0.105446
     10          6           0        1.064011    2.443804   -0.659814
     11          6           0        3.422295    3.226852   -0.669115
     12          6           0        3.853675    1.833420   -0.410919
     13          6           0        5.207863    1.542768   -0.384760
     14          6           0        5.657240    0.236981   -0.147627
     15          1           0        6.715891    0.014444   -0.134086
     16          1           0        5.917457    2.342396   -0.551753
     17          1           0        0.373960   -2.036183    0.527014
     18          7           0        2.048548    3.440938   -0.761797
     19          7           0        4.255376   -3.149952    0.522734
     20          8           0        2.102910   -3.846932    0.722303
     21          8           0        6.418083   -2.437291    0.337895
     22          8           0        4.220259    4.142118   -0.812355
     23          8           0       -0.084380    2.718812   -0.962580
     24          6           0        1.575676    4.790003   -1.109579
     25          1           0        1.284633    4.831089   -2.160597
     26          1           0        0.713316    5.036047   -0.494049
     27          1           0        2.385235    5.488448   -0.926136
     28          6           0        4.690424   -4.534462    0.765476
     29          1           0        4.354629   -4.858714    1.750429
     30          1           0        4.259821   -5.191218    0.010276
     31          1           0        5.773219   -4.561794    0.712708
     32          6           0       -0.859305    0.280701    0.283320
     33          6           0       -1.487660    1.089112    1.197196
     34         16           0       -2.008713   -0.715505   -0.574296
     35          6           0       -2.895431    0.933463    1.196622
     36          1           0       -0.950989    1.764555    1.847071
     37          6           0       -3.368847   -0.004212    0.282688
     38          8           0       -3.777632    1.593852    1.992496
     39          6           0       -4.734355   -0.368130    0.007893
     40          6           0       -3.266143    2.604368    2.869466
     41          6           0       -5.198858   -1.331877   -0.880160
     42         16           0       -6.107909    0.406599    0.794867
     43          1           0       -4.132259    3.020557    3.379506
     44          1           0       -2.581469    2.173150    3.604735
     45          1           0       -2.759351    3.391030    2.304100
     46          6           0       -6.617853   -1.446522   -0.928347
     47          8           0       -4.308125   -2.057712   -1.605331
     48          6           0       -7.233329   -0.571217   -0.078929
     49          1           0       -7.154546   -2.141541   -1.557377
     50          6           0       -4.818977   -3.048383   -2.505579
     51          1           0       -8.291856   -0.446217    0.090879
     52          1           0       -5.448253   -2.590044   -3.272993
     53          1           0       -3.947422   -3.502687   -2.971911
     54          1           0       -5.385185   -3.811368   -1.964984
 ---------------------------------------------------------------------

 The electronic state is 1-A.
 Alpha  occ. eigenvalues --  -88.88740 -88.88410 -19.16847 -19.16783 -19.12984
 Alpha  occ. eigenvalues --  -19.12968 -19.12593 -19.12534 -14.38953 -14.38600
 Alpha  occ. eigenvalues --  -10.31564 -10.31404 -10.31265 -10.31127 -10.24709
 Alpha  occ. eigenvalues --  -10.24650 -10.23708 -10.22913 -10.22831 -10.22758
 Alpha  occ. eigenvalues --  -10.22753 -10.22647 -10.22435 -10.22405 -10.22274
 Alpha  occ. eigenvalues --  -10.22229 -10.22151 -10.21767 -10.21605 -10.21262
 Alpha  occ. eigenvalues --  -10.21207 -10.20944 -10.20801 -10.20725 -10.18935
 Alpha  occ. eigenvalues --  -10.18662  -7.97294  -7.96970  -5.93613  -5.93279
 Alpha  occ. eigenvalues --   -5.93226  -5.92893  -5.92840  -5.92538  -1.09077
 Alpha  occ. eigenvalues --   -1.08807  -1.08217  -1.08130  -1.07271  -1.06949
 Alpha  occ. eigenvalues --   -0.96597  -0.96217  -0.92639  -0.90421  -0.88785
 Alpha  occ. eigenvalues --   -0.86812  -0.84468  -0.80521  -0.78639  -0.77608
 Alpha  occ. eigenvalues --   -0.76197  -0.75348  -0.75096  -0.73147  -0.72566
 Alpha  occ. eigenvalues --   -0.71906  -0.70039  -0.68838  -0.67503  -0.66091
 Alpha  occ. eigenvalues --   -0.65671  -0.64982  -0.61176  -0.59823  -0.58693
 Alpha  occ. eigenvalues --   -0.57601  -0.56622  -0.55857  -0.55566  -0.54557
 Alpha  occ. eigenvalues --   -0.53671  -0.51897  -0.50424  -0.50168  -0.49989
 Alpha  occ. eigenvalues --   -0.49561  -0.49232  -0.48666  -0.48180  -0.47838
 Alpha  occ. eigenvalues --   -0.47802  -0.47450  -0.47014  -0.46703  -0.45864
 Alpha  occ. eigenvalues --   -0.45572  -0.45204  -0.45098  -0.44246  -0.43923
 Alpha  occ. eigenvalues --   -0.42888  -0.42781  -0.42293  -0.42107  -0.41871
 Alpha  occ. eigenvalues --   -0.41583  -0.41465  -0.41208  -0.40711  -0.40023
 Alpha  occ. eigenvalues --   -0.39808  -0.39229  -0.38883  -0.37735  -0.37587
 Alpha  occ. eigenvalues --   -0.36208  -0.35752  -0.34291  -0.33876  -0.33754
 Alpha  occ. eigenvalues --   -0.33546  -0.32358  -0.31653  -0.30819  -0.30010
 Alpha  occ. eigenvalues --   -0.29765  -0.29397  -0.29285  -0.28574  -0.27640
 Alpha  occ. eigenvalues --   -0.26334  -0.25018  -0.24809  -0.19490
 Alpha virt. eigenvalues --   -0.13383  -0.07212  -0.06375  -0.04985  -0.04479
 Alpha virt. eigenvalues --   -0.00741  -0.00572   0.00079   0.00496   0.00509
 Alpha virt. eigenvalues --    0.00657   0.00996   0.01054   0.01441   0.02169

 Mulliken charges:
               1
     1  C    0.462991
     2  C   -0.082444
     3  C    0.120099
     4  C    0.225332
     5  C    0.304002
     6  C   -0.474277
     7  C    0.186188
     8  C    0.237874
     9  C    0.518114
    10  C   -0.428837
    11  C    0.267466
    12  C    0.135552
    13  C   -0.470855
    14  C   -0.625668
    15  H    0.166851
    16  H    0.166760
    17  H    0.173942
    18  N   -0.063643
    19  N   -0.112673
    20  O   -0.342989
    21  O   -0.332405
    22  O   -0.345988
    23  O   -0.218838
    24  C   -0.207040
    25  H    0.191131
    26  H    0.180996
    27  H    0.180542
    28  C   -0.214412
    29  H    0.185082
    30  H    0.182689
    31  H    0.180343
    32  C    0.144860
    33  C   -0.466736
    34  S   -0.492168
    35  C   -0.203055
    36  H    0.157445
    37  C    0.648516
    38  O   -0.166155
    39  C    0.703604
    40  C   -0.239067
    41  C   -0.018197
    42  S   -0.245534
    43  H    0.176309
    44  H    0.162123
    45  H    0.165702
    46  C   -0.579937
    47  O   -0.163664
    48  C   -0.326571
    49  H    0.161738
    50  C   -0.251193
    51  H    0.189444
    52  H    0.161810
    53  H    0.173950
    54  H    0.160892
 Sum of Mulliken charges =  -0.00000

 Dipole moment (field-independent basis, Debye):
    X=             -2.8073    Y=             -0.3132    Z=              0.7343  Tot=              2.9186
 Quadrupole moment (field-independent basis, Debye-Ang):
   XX=           -216.3997   YY=           -219.7158   ZZ=           -208.9050
   XY=              5.9757   XZ=              7.4423   YZ=             20.7647

 Normal termination of Gaussian 16 at Wed Oct 27 23:01:45 2021.
