 Gaussian 16, Revision C.01,
 Gaussian 16:  ES64L-G16RevC.01  3-Jul-2019

 ---------------------------------------------------------------
 # opt=modredundant b3lyp/6-311+g(d,p) scrf=(pcm, solvent=water)
 ---------------------------------------------------------------

 -----------
 NDI_-55.pdb
 -----------
 Symbolic Z-matrix:
 Charge =  0 Multiplicity = 1

 SCF Done:  E(RB3LYP) =  -2359.35759860     A.U. after   17 cycles
 SCF Done:  E(RB3LYP) =  -2359.35867887     A.U. after   13 cycles
 SCF Done:  E(RB3LYP) =  -2359.35918231     A.U. after   13 cycles
 SCF Done:  E(RB3LYP) =  -2359.35929561     A.U. after   13 cycles
 SCF Done:  E(RB3LYP) =  -2359.35939510     A.U. after   13 cycles
 SCF Done:  E(RB3LYP) =  -2359.35945112     A.U. after   12 cycles
 SCF Done:  E(RB3LYP) =  -2359.35947834     A.U. after   12 cycles
 SCF Done:  E(RB3LYP) =  -2359.35948937     A.U. after   10 cycles
 SCF Done:  E(RB3LYP) =  -2359.35949784     A.U. after   10 cycles
 SCF Done:  E(RB3LYP) =  -2359.35950730     A.U. after   10 cycles
 SCF Done:  E(RB3LYP) =  -2359.35954874     A.U. after   10 cycles
 SCF Done:  E(RB3LYP) =  -2359.35955138     A.U. after   10 cycles
 SCF Done:  E(RB3LYP) =  -2359.35955186     A.U. after    9 cycles
 SCF Done:  E(RB3LYP) =  -2359.35955234     A.U. after    9 cycles
 SCF Done:  E(RB3LYP) =  -2359.35955288     A.U. after    9 cycles
 SCF Done:  E(RB3LYP) =  -2359.35955315     A.U. after    8 cycles
 SCF Done:  E(RB3LYP) =  -2359.35955337     A.U. after    9 cycles
 SCF Done:  E(RB3LYP) =  -2359.35955353     A.U. after    9 cycles
 SCF Done:  E(RB3LYP) =  -2359.35955358     A.U. after    8 cycles
 SCF Done:  E(RB3LYP) =  -2359.35955360     A.U. after    8 cycles
 Optimization completed.
    -- Stationary point found.

                         Standard orientation:
 ---------------------------------------------------------------------
 Center     Atomic      Atomic             Coordinates (Angstroms)
 Number     Number       Type             X           Y           Z
 ---------------------------------------------------------------------
      1          6           0        2.836549   -2.939613    0.498771
      2          6           0        2.396547   -1.541944    0.261592
      3          6           0        3.352573   -0.520925    0.062924
      4          6           0        4.732787   -0.811373    0.097251
      5          6           0        5.198851   -2.201414    0.338537
      6          6           0        1.056301   -1.237172    0.268967
      7          6           0        2.903684    0.804941   -0.181255
      8          6           0        1.512018    1.096824   -0.223844
      9          6           0        0.579832    0.086341    0.071779
     10          6           0        1.100856    2.451553   -0.684571
     11          6           0        3.465186    3.214109   -0.632679
     12          6           0        3.877200    1.814820   -0.377357
     13          6           0        5.228097    1.510160   -0.329285
     14          6           0        5.660349    0.198489   -0.095648
     15          1           0        6.716265   -0.035055   -0.065466
     16          1           0        5.948186    2.304217   -0.476926
     17          1           0        0.345792   -2.027654    0.472288
     18          7           0        2.096227    3.441172   -0.755803
     19          7           0        4.211983   -3.180192    0.517325
     20          8           0        2.049517   -3.857123    0.672419
     21          8           0        6.384678   -2.487947    0.378386
     22          8           0        4.274490    4.123454   -0.750171
     23          8           0       -0.035236    2.736914   -1.023304
     24          6           0        1.644617    4.795932   -1.109220
     25          1           0        1.391296    4.847856   -2.169570
     26          1           0        0.762645    5.042677   -0.522562
     27          1           0        2.451671    5.487527   -0.891654
     28          6           0        4.628740   -4.571420    0.753356
     29          1           0        4.273350   -4.901892    1.729327
     30          1           0        4.204002   -5.216166   -0.015396
     31          1           0        5.711926   -4.609553    0.718223
     32          6           0       -0.860148    0.304398    0.242348
     33          6           0       -1.488630    1.175341    1.098951
     34         16           0       -2.014443   -0.744943   -0.545942
     35          6           0       -2.894665    1.020867    1.112112
     36          1           0       -0.951802    1.892529    1.701967
     37          6           0       -3.370930    0.023391    0.263236
     38          8           0       -3.775617    1.732323    1.863269
     39          6           0       -4.736753   -0.356433    0.017939
     40          6           0       -3.262218    2.794947    2.675340
     41          6           0       -5.204176   -1.378118   -0.802033
     42         16           0       -6.107834    0.470649    0.754496
     43          1           0       -4.127462    3.243265    3.158854
     44          1           0       -2.577599    2.409198    3.435465
     45          1           0       -2.754701    3.543827    2.061503
     46          6           0       -6.623091   -1.494683   -0.838536
     47          8           0       -4.315827   -2.151332   -1.478137
     48          6           0       -7.235437   -0.563217   -0.048470
     49          1           0       -7.162014   -2.230032   -1.417810
     50          6           0       -4.828739   -3.198456   -2.311189
     51          1           0       -8.293484   -0.426281    0.115149
     52          1           0       -5.459496   -2.790465   -3.105229
     53          1           0       -3.958156   -3.682241   -2.748682
     54          1           0       -5.393891   -3.924291   -1.720789
 ---------------------------------------------------------------------

 The electronic state is 1-A.
 Alpha  occ. eigenvalues --  -88.88805 -88.88467 -19.16923 -19.16843 -19.12963
 Alpha  occ. eigenvalues --  -19.12944 -19.12531 -19.12456 -14.38933 -14.38547
 Alpha  occ. eigenvalues --  -10.31539 -10.31380 -10.31203 -10.31060 -10.24795
 Alpha  occ. eigenvalues --  -10.24749 -10.23707 -10.22868 -10.22790 -10.22779
 Alpha  occ. eigenvalues --  -10.22734 -10.22586 -10.22391 -10.22382 -10.22358
 Alpha  occ. eigenvalues --  -10.22202 -10.22196 -10.21833 -10.21583 -10.21201
 Alpha  occ. eigenvalues --  -10.21141 -10.20934 -10.20803 -10.20782 -10.19013
 Alpha  occ. eigenvalues --  -10.18713  -7.97361  -7.97026  -5.93679  -5.93336
 Alpha  occ. eigenvalues --   -5.93293  -5.92949  -5.92908  -5.92595  -1.09054
 Alpha  occ. eigenvalues --   -1.08741  -1.08299  -1.08207  -1.07246  -1.06877
 Alpha  occ. eigenvalues --   -0.96573  -0.96162  -0.92590  -0.90485  -0.88834
 Alpha  occ. eigenvalues --   -0.86787  -0.84420  -0.80535  -0.78602  -0.77650
 Alpha  occ. eigenvalues --   -0.76245  -0.75320  -0.75168  -0.73186  -0.72548
 Alpha  occ. eigenvalues --   -0.71908  -0.70078  -0.68860  -0.67469  -0.66053
 Alpha  occ. eigenvalues --   -0.65652  -0.64950  -0.61208  -0.59857  -0.58694
 Alpha  occ. eigenvalues --   -0.57569  -0.56650  -0.55919  -0.55544  -0.54621
 Alpha  occ. eigenvalues --   -0.53641  -0.51868  -0.50415  -0.50133  -0.49992
 Alpha  occ. eigenvalues --   -0.49553  -0.49211  -0.48648  -0.48225  -0.47871
 Alpha  occ. eigenvalues --   -0.47845  -0.47401  -0.47002  -0.46661  -0.45881
 Alpha  occ. eigenvalues --   -0.45562  -0.45234  -0.45069  -0.44214  -0.43897
 Alpha  occ. eigenvalues --   -0.42882  -0.42758  -0.42260  -0.42150  -0.41893
 Alpha  occ. eigenvalues --   -0.41623  -0.41467  -0.41189  -0.40693  -0.40001
 Alpha  occ. eigenvalues --   -0.39802  -0.39244  -0.38934  -0.37724  -0.37629
 Alpha  occ. eigenvalues --   -0.36268  -0.35807  -0.34318  -0.33927  -0.33795
 Alpha  occ. eigenvalues --   -0.33592  -0.32315  -0.31627  -0.30808  -0.30010
 Alpha  occ. eigenvalues --   -0.29761  -0.29351  -0.29288  -0.28560  -0.27609
 Alpha  occ. eigenvalues --   -0.26291  -0.25046  -0.24848  -0.19534
 Alpha virt. eigenvalues --   -0.13359  -0.07293  -0.06438  -0.04943  -0.04353
 Alpha virt. eigenvalues --   -0.00747  -0.00568   0.00089   0.00472   0.00497
 Alpha virt. eigenvalues --    0.00664   0.01028   0.01113   0.01460   0.02159

 Mulliken charges:
               1
     1  C    0.456336
     2  C   -0.093330
     3  C    0.113979
     4  C    0.231396
     5  C    0.302213
     6  C   -0.454441
     7  C    0.181962
     8  C    0.285088
     9  C    0.490960
    10  C   -0.440930
    11  C    0.273753
    12  C    0.135548
    13  C   -0.474777
    14  C   -0.622274
    15  H    0.166472
    16  H    0.166433
    17  H    0.175004
    18  N   -0.052820
    19  N   -0.112060
    20  O   -0.344596
    21  O   -0.332645
    22  O   -0.347839
    23  O   -0.229256
    24  C   -0.203898
    25  H    0.190825
    26  H    0.180624
    27  H    0.180329
    28  C   -0.214392
    29  H    0.184995
    30  H    0.182601
    31  H    0.180324
    32  C    0.150953
    33  C   -0.486295
    34  S   -0.520022
    35  C   -0.226127
    36  H    0.159166
    37  C    0.684937
    38  O   -0.163956
    39  C    0.711959
    40  C   -0.239870
    41  C   -0.017499
    42  S   -0.242344
    43  H    0.176727
    44  H    0.162567
    45  H    0.165806
    46  C   -0.587620
    47  O   -0.162081
    48  C   -0.320268
    49  H    0.162241
    50  C   -0.251791
    51  H    0.190029
    52  H    0.162085
    53  H    0.174341
    54  H    0.161478
 Sum of Mulliken charges =  -0.00000

 Dipole moment (field-independent basis, Debye):
    X=             -3.3814    Y=             -0.4036    Z=              0.8063  Tot=              3.4995
 Quadrupole moment (field-independent basis, Debye-Ang):
   XX=           -215.4974   YY=           -217.7556   ZZ=           -211.1428
   XY=              6.3830   XZ=              6.4127   YZ=             20.5035

 Normal termination of Gaussian 16 at Wed Oct 27 22:43:36 2021.
