 Gaussian 16, Revision C.01,
 Gaussian 16:  ES64L-G16RevC.01  3-Jul-2019

 ---------------------------------------------------------------
 # opt=modredundant b3lyp/6-311+g(d,p) scrf=(pcm, solvent=water)
 ---------------------------------------------------------------

 ------------
 NDI_-150.pdb
 ------------
 Symbolic Z-matrix:
 Charge =  0 Multiplicity = 1

 SCF Done:  E(RB3LYP) =  -2359.33537297     A.U. after   16 cycles
 SCF Done:  E(RB3LYP) =  -2359.34538253     A.U. after   17 cycles
 SCF Done:  E(RB3LYP) =  -2359.35315967     A.U. after   16 cycles
 SCF Done:  E(RB3LYP) =  -2359.35596491     A.U. after   14 cycles
 SCF Done:  E(RB3LYP) =  -2359.35653042     A.U. after   15 cycles
 SCF Done:  E(RB3LYP) =  -2359.35666907     A.U. after   13 cycles
 SCF Done:  E(RB3LYP) =  -2359.35685096     A.U. after   12 cycles
 SCF Done:  E(RB3LYP) =  -2359.35690766     A.U. after   13 cycles
 SCF Done:  E(RB3LYP) =  -2359.35695709     A.U. after   12 cycles
 SCF Done:  E(RB3LYP) =  -2359.35698392     A.U. after   12 cycles
 SCF Done:  E(RB3LYP) =  -2359.35915607     A.U. after   13 cycles
 SCF Done:  E(RB3LYP) =  -2359.35918816     A.U. after   11 cycles
 SCF Done:  E(RB3LYP) =  -2359.35919815     A.U. after   11 cycles
 SCF Done:  E(RB3LYP) =  -2359.35919948     A.U. after   10 cycles
 SCF Done:  E(RB3LYP) =  -2359.35919572     A.U. after   10 cycles
 SCF Done:  E(RB3LYP) =  -2359.35920200     A.U. after   10 cycles
 SCF Done:  E(RB3LYP) =  -2359.35920142     A.U. after    9 cycles
 SCF Done:  E(RB3LYP) =  -2359.35920248     A.U. after    9 cycles
 SCF Done:  E(RB3LYP) =  -2359.35920245     A.U. after    8 cycles
 SCF Done:  E(RB3LYP) =  -2359.35920239     A.U. after    8 cycles
 Optimization completed.
    -- Stationary point found.

                         Standard orientation:
 ---------------------------------------------------------------------
 Center     Atomic      Atomic             Coordinates (Angstroms)
 Number     Number       Type             X           Y           Z
 ---------------------------------------------------------------------
      1          6           0       -3.532703   -2.683257    0.340594
      2          6           0       -2.771991   -1.442355    0.050571
      3          6           0       -3.416222   -0.184922    0.111363
      4          6           0       -4.778501   -0.089067    0.459757
      5          6           0       -5.558912   -1.315600    0.764838
      6          6           0       -1.429431   -1.515224   -0.227538
      7          6           0       -2.667836    0.983173   -0.193686
      8          6           0       -1.292592    0.887137   -0.545479
      9          6           0       -0.639050   -0.360686   -0.490019
     10          6           0       -0.648866    2.099880   -1.111282
     11          6           0       -2.596190    3.482923   -0.441318
     12          6           0       -3.328110    2.234600   -0.130384
     13          6           0       -4.666048    2.308535    0.226982
     14          6           0       -5.395765    1.150623    0.519744
     15          1           0       -6.441056    1.213098    0.791407
     16          1           0       -5.140411    3.279975    0.274851
     17          1           0       -0.950338   -2.484358   -0.195936
     18          7           0       -1.288783    3.332613   -0.897591
     19          7           0       -4.881645   -2.539547    0.672754
     20          8           0       -3.025421   -3.793561    0.297014
     21          8           0       -6.737799   -1.271180    1.078766
     22          8           0       -3.107407    4.589379   -0.333986
     23          8           0        0.377804    2.072335   -1.771195
     24          6           0       -0.569710    4.536752   -1.340712
     25          1           0        0.485171    4.425407   -1.103960
     26          1           0       -0.680176    4.675313   -2.418163
     27          1           0       -0.989156    5.392073   -0.820743
     28          6           0       -5.620486   -3.780046    0.955549
     29          1           0       -5.559845   -4.445396    0.095073
     30          1           0       -5.185918   -4.279948    1.821300
     31          1           0       -6.653681   -3.518939    1.156291
     32          6           0        0.803076   -0.585855   -0.562440
     33          6           0        1.427547   -1.707261   -1.076169
     34         16           0        1.953726    0.432961    0.267822
     35          6           0        2.819552   -1.726009   -0.848018
     36          1           0        0.899149   -2.472007   -1.626682
     37          6           0        3.289869   -0.640664   -0.107168
     38          8           0        3.695851   -2.675303   -1.266978
     39          6           0        4.635786   -0.382541    0.323053
     40          6           0        3.176178   -3.801504   -1.984074
     41          6           0        5.099676    0.694222    1.074601
     42         16           0        5.985439   -1.452336   -0.054856
     43          1           0        4.034338   -4.430717   -2.209720
     44          1           0        2.463372   -4.358957   -1.370569
     45          1           0        2.699616   -3.484108   -2.915414
     46          6           0        6.498572    0.662883    1.335984
     47          8           0        4.226399    1.646479    1.485369
     48          6           0        7.098280   -0.435798    0.787632
     49          1           0        7.032899    1.412596    1.900722
     50          6           0        4.737294    2.756118    2.236148
     51          1           0        8.141431   -0.709855    0.830764
     52          1           0        5.470948    3.316441    1.651178
     53          1           0        3.878743    3.389043    2.449265
     54          1           0        5.185358    2.417331    3.173672
 ---------------------------------------------------------------------

 The electronic state is 1-A.
 Alpha  occ. eigenvalues --  -88.88732 -88.88623 -19.17134 -19.16954 -19.12904
 Alpha  occ. eigenvalues --  -19.12879 -19.12403 -19.12402 -14.38873 -14.38449
 Alpha  occ. eigenvalues --  -10.31472 -10.31316 -10.31084 -10.30911 -10.25038
 Alpha  occ. eigenvalues --  -10.24937 -10.23712 -10.22880 -10.22839 -10.22765
 Alpha  occ. eigenvalues --  -10.22738 -10.22457 -10.22433 -10.22420 -10.22256
 Alpha  occ. eigenvalues --  -10.22231 -10.22034 -10.22011 -10.21556 -10.21057
 Alpha  occ. eigenvalues --  -10.21023 -10.20975 -10.20902 -10.20780 -10.19410
 Alpha  occ. eigenvalues --  -10.18847  -7.97295  -7.97181  -5.93617  -5.93491
 Alpha  occ. eigenvalues --   -5.93226  -5.93103  -5.92832  -5.92749  -1.08983
 Alpha  occ. eigenvalues --   -1.08631  -1.08519  -1.08354  -1.07177  -1.06750
 Alpha  occ. eigenvalues --   -0.96499  -0.96095  -0.92479  -0.90618  -0.88964
 Alpha  occ. eigenvalues --   -0.86725  -0.84303  -0.80635  -0.78496  -0.77703
 Alpha  occ. eigenvalues --   -0.76384  -0.75365  -0.75218  -0.73386  -0.72589
 Alpha  occ. eigenvalues --   -0.71612  -0.70335  -0.68904  -0.67384  -0.66002
 Alpha  occ. eigenvalues --   -0.65482  -0.65031  -0.61166  -0.60006  -0.58724
 Alpha  occ. eigenvalues --   -0.57576  -0.56795  -0.56037  -0.55019  -0.54841
 Alpha  occ. eigenvalues --   -0.53895  -0.51747  -0.50365  -0.50143  -0.49810
 Alpha  occ. eigenvalues --   -0.49619  -0.49194  -0.48598  -0.48340  -0.48022
 Alpha  occ. eigenvalues --   -0.47945  -0.47303  -0.47005  -0.46593  -0.45828
 Alpha  occ. eigenvalues --   -0.45504  -0.45368  -0.45138  -0.44330  -0.43831
 Alpha  occ. eigenvalues --   -0.42877  -0.42611  -0.42211  -0.42078  -0.41942
 Alpha  occ. eigenvalues --   -0.41808  -0.41556  -0.41139  -0.40742  -0.40099
 Alpha  occ. eigenvalues --   -0.39661  -0.39222  -0.38858  -0.37855  -0.37522
 Alpha  occ. eigenvalues --   -0.36436  -0.36146  -0.34323  -0.34027  -0.33835
 Alpha  occ. eigenvalues --   -0.33681  -0.32114  -0.31543  -0.30750  -0.30125
 Alpha  occ. eigenvalues --   -0.29679  -0.29321  -0.29167  -0.28653  -0.27598
 Alpha  occ. eigenvalues --   -0.26184  -0.25235  -0.24784  -0.19644
 Alpha virt. eigenvalues --   -0.13287  -0.07634  -0.06477  -0.04848  -0.04074
 Alpha virt. eigenvalues --   -0.00815  -0.00601   0.00108   0.00315   0.00392
 Alpha virt. eigenvalues --    0.00777   0.01186   0.01259   0.01492   0.02048

 Mulliken charges:
               1
     1  C    0.437487
     2  C   -0.085680
     3  C    0.128842
     4  C    0.260028
     5  C    0.286197
     6  C   -0.098996
     7  C    0.125903
     8  C    0.266904
     9  C    0.289595
    10  C   -0.512797
    11  C    0.359396
    12  C    0.071393
    13  C   -0.490757
    14  C   -0.594025
    15  H    0.165415
    16  H    0.165593
    17  H    0.166630
    18  N    0.030607
    19  N   -0.112640
    20  O   -0.345728
    21  O   -0.334616
    22  O   -0.355517
    23  O   -0.286133
    24  C   -0.206895
    25  H    0.182642
    26  H    0.191805
    27  H    0.180915
    28  C   -0.211385
    29  H    0.181571
    30  H    0.185532
    31  H    0.180198
    32  C    0.176528
    33  C   -0.667542
    34  S   -0.691078
    35  C   -0.114819
    36  H    0.167786
    37  C    0.657113
    38  O   -0.162588
    39  C    0.852393
    40  C   -0.239604
    41  C    0.003796
    42  S   -0.225028
    43  H    0.178095
    44  H    0.167157
    45  H    0.163140
    46  C   -0.619146
    47  O   -0.158658
    48  C   -0.312241
    49  H    0.163310
    50  C   -0.253774
    51  H    0.191783
    52  H    0.163356
    53  H    0.175715
    54  H    0.162821
 Sum of Mulliken charges =  -0.00000

 Dipole moment (field-independent basis, Debye):
    X=              4.8556    Y=             -0.9875    Z=              1.2367  Tot=              5.1070
 Quadrupole moment (field-independent basis, Debye-Ang):
   XX=           -209.1549   YY=           -217.4121   ZZ=           -216.5283
   XY=             12.8890   XZ=             15.6862   YZ=             16.6736

 Normal termination of Gaussian 16 at Thu Oct 28 01:03:34 2021.
