 Gaussian 16, Revision C.01,
 Gaussian 16:  ES64L-G16RevC.01  3-Jul-2019

 ---------------------------------------------------------------
 # opt=modredundant b3lyp/6-311+g(d,p) scrf=(pcm, solvent=water)
 ---------------------------------------------------------------

 ------------
 NDI_-100.pdb
 ------------
 Symbolic Z-matrix:
 Charge =  0 Multiplicity = 1

 SCF Done:  E(RB3LYP) =  -2359.35269785     A.U. after   17 cycles
 SCF Done:  E(RB3LYP) =  -2359.35701888     A.U. after   14 cycles
 SCF Done:  E(RB3LYP) =  -2359.35738238     A.U. after   14 cycles
 SCF Done:  E(RB3LYP) =  -2359.35749870     A.U. after   13 cycles
 SCF Done:  E(RB3LYP) =  -2359.35765607     A.U. after   12 cycles
 SCF Done:  E(RB3LYP) =  -2359.35768046     A.U. after   12 cycles
 SCF Done:  E(RB3LYP) =  -2359.35769715     A.U. after   12 cycles
 SCF Done:  E(RB3LYP) =  -2359.35765184     A.U. after   11 cycles
 SCF Done:  E(RB3LYP) =  -2359.35766631     A.U. after   11 cycles
 SCF Done:  E(RB3LYP) =  -2359.35766693     A.U. after   10 cycles
 SCF Done:  E(RB3LYP) =  -2359.35765540     A.U. after   12 cycles
 SCF Done:  E(RB3LYP) =  -2359.35767743     A.U. after   11 cycles
 SCF Done:  E(RB3LYP) =  -2359.35767756     A.U. after    9 cycles
 SCF Done:  E(RB3LYP) =  -2359.35767771     A.U. after    9 cycles
 SCF Done:  E(RB3LYP) =  -2359.35767836     A.U. after   10 cycles
 SCF Done:  E(RB3LYP) =  -2359.35767790     A.U. after   10 cycles
 SCF Done:  E(RB3LYP) =  -2359.35767779     A.U. after    8 cycles
 SCF Done:  E(RB3LYP) =  -2359.35767836     A.U. after    9 cycles
 SCF Done:  E(RB3LYP) =  -2359.35767763     A.U. after    9 cycles
 SCF Done:  E(RB3LYP) =  -2359.35767742     A.U. after    7 cycles
 Optimization completed on the basis of negligible forces.
    -- Stationary point found.

                         Standard orientation:
 ---------------------------------------------------------------------
 Center     Atomic      Atomic             Coordinates (Angstroms)
 Number     Number       Type             X           Y           Z
 ---------------------------------------------------------------------
      1          6           0        3.276034   -2.840147   -0.034762
      2          6           0        2.637826   -1.502458    0.056777
      3          6           0        3.416220   -0.334082   -0.076343
      4          6           0        4.809908   -0.419453   -0.295573
      5          6           0        5.473126   -1.746546   -0.389180
      6          6           0        1.280593   -1.402313    0.267393
      7          6           0        2.783104    0.934199    0.016387
      8          6           0        1.381461    1.020375    0.239499
      9          6           0        0.624895   -0.150472    0.357087
     10          6           0        0.765254    2.373212    0.372058
     11          6           0        2.972196    3.444881   -0.029194
     12          6           0        3.581953    2.095892   -0.117945
     13          6           0        4.944458    1.989732   -0.334255
     14          6           0        5.562190    0.733152   -0.422955
     15          1           0        6.628429    0.657649   -0.590768
     16          1           0        5.530611    2.893649   -0.434287
     17          1           0        0.694058   -2.306736    0.361196
     18          7           0        1.598961    3.489256    0.207518
     19          7           0        4.654404   -2.875504   -0.255855
     20          8           0        2.643390   -3.878288    0.075403
     21          8           0        6.674228   -1.856354   -0.573992
     22          8           0        3.631965    4.465495   -0.152616
     23          8           0       -0.414218    2.551655    0.618018
     24          6           0        0.946259    4.803174    0.324261
     25          1           0        0.140624    4.877491   -0.405130
     26          1           0        0.530021    4.922203    1.324535
     27          1           0        1.693456    5.566538    0.137691
     28          6           0        5.267734   -4.210136   -0.345160
     29          1           0        5.125034   -4.744619    0.593948
     30          1           0        4.798174   -4.775135   -1.149659
     31          1           0        6.325922   -4.082260   -0.544620
     32          6           0       -0.840202   -0.202959    0.578276
     33          6           0       -1.492688   -0.418076    1.759691
     34         16           0       -1.947519   -0.128405   -0.763251
     35          6           0       -2.906488   -0.492522    1.600069
     36          1           0       -0.979937   -0.501619    2.706921
     37          6           0       -3.341799   -0.359805    0.290372
     38          8           0       -3.814650   -0.683137    2.596328
     39          6           0       -4.693832   -0.409566   -0.213784
     40          6           0       -3.326658   -0.814853    3.935903
     41          6           0       -5.122016   -0.296907   -1.529372
     42         16           0       -6.092520   -0.635062    0.833676
     43          1           0       -4.206934   -0.953199    4.560216
     44          1           0       -2.671418   -1.685109    4.030155
     45          1           0       -2.794542    0.087537    4.249081
     46          6           0       -6.535018   -0.387568   -1.695253
     47          8           0       -4.205997   -0.118189   -2.521302
     48          6           0       -7.182882   -0.569451   -0.506826
     49          1           0       -7.044505   -0.321943   -2.645525
     50          6           0       -4.684956   -0.001427   -3.865300
     51          1           0       -8.243964   -0.670432   -0.337478
     52          1           0       -5.343818    0.864619   -3.972164
     53          1           0       -3.801107    0.135048   -4.485008
     54          1           0       -5.210816   -0.909206   -4.173485
 ---------------------------------------------------------------------

 The electronic state is 1-A.
 Alpha  occ. eigenvalues --  -88.88330 -88.88168 -19.16554 -19.16516 -19.13089
 Alpha  occ. eigenvalues --  -19.13087 -19.12847 -19.12844 -14.39051 -14.38840
 Alpha  occ. eigenvalues --  -10.31681 -10.31522 -10.31513 -10.31408 -10.24345
 Alpha  occ. eigenvalues --  -10.24224 -10.23786 -10.23356 -10.23138 -10.22925
 Alpha  occ. eigenvalues --  -10.22648 -10.22628 -10.22623 -10.22621 -10.22591
 Alpha  occ. eigenvalues --  -10.21950 -10.21662 -10.21576 -10.21545 -10.21480
 Alpha  occ. eigenvalues --  -10.21472 -10.20993 -10.20866 -10.20385 -10.18614
 Alpha  occ. eigenvalues --  -10.18445  -7.96880  -7.96730  -5.93205  -5.93038
 Alpha  occ. eigenvalues --   -5.92817  -5.92653  -5.92418  -5.92300  -1.09194
 Alpha  occ. eigenvalues --   -1.09100  -1.07892  -1.07798  -1.07392  -1.07260
 Alpha  occ. eigenvalues --   -0.96723  -0.96450  -0.92851  -0.90110  -0.88574
 Alpha  occ. eigenvalues --   -0.86901  -0.84679  -0.80479  -0.78811  -0.77426
 Alpha  occ. eigenvalues --   -0.75971  -0.75481  -0.74762  -0.73018  -0.72694
 Alpha  occ. eigenvalues --   -0.71812  -0.69899  -0.68724  -0.67650  -0.66271
 Alpha  occ. eigenvalues --   -0.65747  -0.65152  -0.61017  -0.59713  -0.58667
 Alpha  occ. eigenvalues --   -0.57763  -0.56590  -0.55581  -0.55479  -0.54320
 Alpha  occ. eigenvalues --   -0.53883  -0.52029  -0.50511  -0.50338  -0.50031
 Alpha  occ. eigenvalues --   -0.49444  -0.49341  -0.48746  -0.48058  -0.47771
 Alpha  occ. eigenvalues --   -0.47640  -0.47554  -0.47045  -0.46908  -0.45907
 Alpha  occ. eigenvalues --   -0.45425  -0.45315  -0.45051  -0.44396  -0.44046
 Alpha  occ. eigenvalues --   -0.42987  -0.42845  -0.42492  -0.41937  -0.41789
 Alpha  occ. eigenvalues --   -0.41472  -0.41300  -0.41286  -0.40768  -0.40161
 Alpha  occ. eigenvalues --   -0.39870  -0.39017  -0.38595  -0.37878  -0.37330
 Alpha  occ. eigenvalues --   -0.35949  -0.35658  -0.34076  -0.33647  -0.33532
 Alpha  occ. eigenvalues --   -0.33377  -0.32589  -0.31731  -0.30852  -0.30073
 Alpha  occ. eigenvalues --   -0.29771  -0.29613  -0.29207  -0.28524  -0.27880
 Alpha  occ. eigenvalues --   -0.26610  -0.24897  -0.24557  -0.19285
 Alpha virt. eigenvalues --   -0.13516  -0.07086  -0.05916  -0.05176  -0.04998
 Alpha virt. eigenvalues --   -0.00653  -0.00616   0.00112   0.00427   0.00612
 Alpha virt. eigenvalues --    0.00688   0.00866   0.00942   0.01263   0.02112

 Mulliken charges:
               1
     1  C    0.448602
     2  C    0.059120
     3  C    0.240846
     4  C    0.214307
     5  C    0.318798
     6  C   -0.583504
     7  C    0.216512
     8  C   -0.041096
     9  C    0.475074
    10  C   -0.309194
    11  C    0.267526
    12  C    0.217075
    13  C   -0.546961
    14  C   -0.665866
    15  H    0.168775
    16  H    0.168843
    17  H    0.161799
    18  N   -0.120372
    19  N   -0.111293
    20  O   -0.335414
    21  O   -0.331185
    22  O   -0.333934
    23  O   -0.191230
    24  C   -0.226401
    25  H    0.185260
    26  H    0.186334
    27  H    0.181573
    28  C   -0.216038
    29  H    0.185535
    30  H    0.183227
    31  H    0.180756
    32  C    0.155928
    33  C   -0.384593
    34  S   -0.187826
    35  C   -0.113659
    36  H    0.146821
    37  C    0.218239
    38  O   -0.168959
    39  C    0.724818
    40  C   -0.235589
    41  C    0.046853
    42  S   -0.255963
    43  H    0.175625
    44  H    0.162825
    45  H    0.164450
    46  C   -0.541156
    47  O   -0.179820
    48  C   -0.367212
    49  H    0.159711
    50  C   -0.246076
    51  H    0.186867
    52  H    0.159655
    53  H    0.172545
    54  H    0.159043
 Sum of Mulliken charges =  -0.00000

 Dipole moment (field-independent basis, Debye):
    X=             -0.3564    Y=             -0.1097    Z=             -0.0799  Tot=              0.3814
 Quadrupole moment (field-independent basis, Debye-Ang):
   XX=           -219.6443   YY=           -237.5899   ZZ=           -190.7293
   XY=             -2.7635   XZ=             14.4054   YZ=             -2.5749

 Normal termination of Gaussian 16 at Wed Oct 27 20:02:06 2021.
