 Gaussian 16, Revision C.01,
 Gaussian 16:  ES64L-G16RevC.01  3-Jul-2019

 ---------------------------------------------------------------
 # opt=modredundant b3lyp/6-311+g(d,p) scrf=(pcm, solvent=water)
 ---------------------------------------------------------------

 -----------
 NDI_100.pdb
 -----------
 Symbolic Z-matrix:
 Charge =  0 Multiplicity = 1

 SCF Done:  E(RB3LYP) =  -2359.35364308     A.U. after   17 cycles
 SCF Done:  E(RB3LYP) =  -2359.35664780     A.U. after   14 cycles
 SCF Done:  E(RB3LYP) =  -2359.35732035     A.U. after   15 cycles
 SCF Done:  E(RB3LYP) =  -2359.35750225     A.U. after   13 cycles
 SCF Done:  E(RB3LYP) =  -2359.35762852     A.U. after   12 cycles
 SCF Done:  E(RB3LYP) =  -2359.35766838     A.U. after   12 cycles
 SCF Done:  E(RB3LYP) =  -2359.35768206     A.U. after   12 cycles
 SCF Done:  E(RB3LYP) =  -2359.35767763     A.U. after   12 cycles
 SCF Done:  E(RB3LYP) =  -2359.35766817     A.U. after   11 cycles
 SCF Done:  E(RB3LYP) =  -2359.35766809     A.U. after   13 cycles
 SCF Done:  E(RB3LYP) =  -2359.35767964     A.U. after   12 cycles
 SCF Done:  E(RB3LYP) =  -2359.35767807     A.U. after    9 cycles
 SCF Done:  E(RB3LYP) =  -2359.35768818     A.U. after   11 cycles
 SCF Done:  E(RB3LYP) =  -2359.35768879     A.U. after    9 cycles
 SCF Done:  E(RB3LYP) =  -2359.35767975     A.U. after   11 cycles
 SCF Done:  E(RB3LYP) =  -2359.35767816     A.U. after    9 cycles
 SCF Done:  E(RB3LYP) =  -2359.35768817     A.U. after   11 cycles
 SCF Done:  E(RB3LYP) =  -2359.35768878     A.U. after    9 cycles
 SCF Done:  E(RB3LYP) =  -2359.35767983     A.U. after   11 cycles
 SCF Done:  E(RB3LYP) =  -2359.35767809     A.U. after    9 cycles
 Optimization completed on the basis of negligible forces.
    -- Stationary point found.

                         Standard orientation:
 ---------------------------------------------------------------------
 Center     Atomic      Atomic             Coordinates (Angstroms)
 Number     Number       Type             X           Y           Z
 ---------------------------------------------------------------------
      1          6           0        3.275903   -2.840188    0.035423
      2          6           0        2.637749   -1.502491   -0.056373
      3          6           0        3.416200   -0.334120    0.076480
      4          6           0        4.809880   -0.419508    0.295751
      5          6           0        5.473016   -1.746612    0.389784
      6          6           0        1.280524   -1.402331   -0.267008
      7          6           0        2.783153    0.934169   -0.016598
      8          6           0        1.381511    1.020359   -0.239731
      9          6           0        0.624880   -0.150476   -0.356977
     10          6           0        0.765375    2.373191   -0.372661
     11          6           0        2.972379    3.444855    0.028296
     12          6           0        3.582065    2.095854    0.117411
     13          6           0        4.944565    1.989681    0.333755
     14          6           0        5.562226    0.733091    0.422805
     15          1           0        6.628461    0.657574    0.590643
     16          1           0        5.530769    2.893592    0.433523
     17          1           0        0.693947   -2.306747   -0.360615
     18          7           0        1.599230    3.489240   -0.208890
     19          7           0        4.654242   -2.875561    0.256706
     20          8           0        2.643240   -3.878323   -0.074696
     21          8           0        6.674095   -1.856441    0.574727
     22          8           0        3.632147    4.465464    0.151781
     23          8           0       -0.414152    2.551635   -0.618346
     24          6           0        0.946623    4.803150   -0.326260
     25          1           0        0.528904    4.920933   -1.326049
     26          1           0        0.142099    4.878636    0.404258
     27          1           0        1.694263    5.566586   -0.141776
     28          6           0        5.267503   -4.210203    0.346358
     29          1           0        4.797471   -4.775175    1.150594
     30          1           0        5.125333   -4.744703   -0.592825
     31          1           0        6.325580   -4.082340    0.546413
     32          6           0       -0.840215   -0.202984   -0.578166
     33          6           0       -1.492683   -0.418420   -1.759537
     34         16           0       -1.947558   -0.127964    0.763310
     35          6           0       -2.906489   -0.492790   -1.599919
     36          1           0       -0.979898   -0.502252   -2.706723
     37          6           0       -3.341815   -0.359668   -0.290264
     38          8           0       -3.814661   -0.683516   -2.596141
     39          6           0       -4.693858   -0.409398    0.213875
     40          6           0       -3.326509   -0.818170   -3.935366
     41          6           0       -5.122108   -0.295979    1.529381
     42         16           0       -6.092441   -0.636114   -0.833452
     43          1           0       -4.206773   -0.957011   -4.559584
     44          1           0       -2.793648    0.083208   -4.250193
     45          1           0       -2.671917   -1.689106   -4.027805
     46          6           0       -6.535086   -0.386949    1.695287
     47          8           0       -4.206157   -0.116385    2.521215
     48          6           0       -7.182861   -0.569868    0.506969
     49          1           0       -7.044632   -0.320793    2.645491
     50          6           0       -4.685230    0.001968    3.865036
     51          1           0       -8.243911   -0.671249    0.337659
     52          1           0       -5.211062   -0.905466    4.174283
     53          1           0       -3.801436    0.139232    4.484648
     54          1           0       -5.344147    0.868108    3.970794
 ---------------------------------------------------------------------

 The electronic state is 1-A.
 Alpha  occ. eigenvalues --  -88.88330 -88.88168 -19.16554 -19.16516 -19.13089
 Alpha  occ. eigenvalues --  -19.13087 -19.12847 -19.12844 -14.39051 -14.38840
 Alpha  occ. eigenvalues --  -10.31681 -10.31522 -10.31513 -10.31408 -10.24346
 Alpha  occ. eigenvalues --  -10.24224 -10.23786 -10.23356 -10.23138 -10.22925
 Alpha  occ. eigenvalues --  -10.22648 -10.22628 -10.22623 -10.22621 -10.22591
 Alpha  occ. eigenvalues --  -10.21950 -10.21662 -10.21576 -10.21545 -10.21479
 Alpha  occ. eigenvalues --  -10.21472 -10.20993 -10.20866 -10.20385 -10.18614
 Alpha  occ. eigenvalues --  -10.18445  -7.96880  -7.96730  -5.93205  -5.93038
 Alpha  occ. eigenvalues --   -5.92817  -5.92653  -5.92418  -5.92300  -1.09194
 Alpha  occ. eigenvalues --   -1.09100  -1.07892  -1.07798  -1.07392  -1.07260
 Alpha  occ. eigenvalues --   -0.96722  -0.96450  -0.92851  -0.90110  -0.88574
 Alpha  occ. eigenvalues --   -0.86901  -0.84679  -0.80479  -0.78811  -0.77426
 Alpha  occ. eigenvalues --   -0.75971  -0.75480  -0.74762  -0.73018  -0.72694
 Alpha  occ. eigenvalues --   -0.71812  -0.69899  -0.68724  -0.67650  -0.66270
 Alpha  occ. eigenvalues --   -0.65747  -0.65152  -0.61017  -0.59713  -0.58667
 Alpha  occ. eigenvalues --   -0.57763  -0.56589  -0.55580  -0.55479  -0.54320
 Alpha  occ. eigenvalues --   -0.53883  -0.52029  -0.50511  -0.50338  -0.50031
 Alpha  occ. eigenvalues --   -0.49444  -0.49341  -0.48746  -0.48058  -0.47771
 Alpha  occ. eigenvalues --   -0.47640  -0.47554  -0.47045  -0.46908  -0.45907
 Alpha  occ. eigenvalues --   -0.45426  -0.45315  -0.45051  -0.44396  -0.44046
 Alpha  occ. eigenvalues --   -0.42986  -0.42845  -0.42492  -0.41937  -0.41789
 Alpha  occ. eigenvalues --   -0.41472  -0.41300  -0.41286  -0.40768  -0.40161
 Alpha  occ. eigenvalues --   -0.39870  -0.39017  -0.38595  -0.37878  -0.37330
 Alpha  occ. eigenvalues --   -0.35949  -0.35658  -0.34077  -0.33646  -0.33533
 Alpha  occ. eigenvalues --   -0.33376  -0.32589  -0.31731  -0.30852  -0.30073
 Alpha  occ. eigenvalues --   -0.29771  -0.29613  -0.29207  -0.28524  -0.27880
 Alpha  occ. eigenvalues --   -0.26610  -0.24897  -0.24557  -0.19285
 Alpha virt. eigenvalues --   -0.13516  -0.07086  -0.05916  -0.05176  -0.04998
 Alpha virt. eigenvalues --   -0.00653  -0.00615   0.00112   0.00427   0.00613
 Alpha virt. eigenvalues --    0.00688   0.00866   0.00942   0.01263   0.02112

 Mulliken charges:
               1
     1  C    0.448564
     2  C    0.059076
     3  C    0.240747
     4  C    0.214326
     5  C    0.318788
     6  C   -0.583735
     7  C    0.216603
     8  C   -0.041271
     9  C    0.475028
    10  C   -0.308693
    11  C    0.267714
    12  C    0.217190
    13  C   -0.547245
    14  C   -0.665966
    15  H    0.168775
    16  H    0.168842
    17  H    0.161795
    18  N   -0.120445
    19  N   -0.111298
    20  O   -0.335416
    21  O   -0.331191
    22  O   -0.333934
    23  O   -0.191285
    24  C   -0.226389
    25  H    0.186283
    26  H    0.185310
    27  H    0.181574
    28  C   -0.216040
    29  H    0.183209
    30  H    0.185555
    31  H    0.180757
    32  C    0.156267
    33  C   -0.385163
    34  S   -0.187566
    35  C   -0.113821
    36  H    0.146814
    37  C    0.218559
    38  O   -0.168954
    39  C    0.724834
    40  C   -0.235559
    41  C    0.046886
    42  S   -0.255943
    43  H    0.175626
    44  H    0.164415
    45  H    0.162858
    46  C   -0.541166
    47  O   -0.179834
    48  C   -0.367220
    49  H    0.159710
    50  C   -0.246077
    51  H    0.186866
    52  H    0.159045
    53  H    0.172544
    54  H    0.159654
 Sum of Mulliken charges =  -0.00000

 Dipole moment (field-independent basis, Debye):
    X=             -0.3565    Y=             -0.1120    Z=              0.0784  Tot=              0.3818
 Quadrupole moment (field-independent basis, Debye-Ang):
   XX=           -219.6443   YY=           -237.5819   ZZ=           -190.7360
   XY=             -2.7590   XZ=            -14.4105   YZ=              2.6007

 Normal termination of Gaussian 16 at Thu Oct 28 05:50:07 2021.
