 Gaussian 16, Revision C.01,
 Gaussian 16:  ES64L-G16RevC.01  3-Jul-2019

 ---------------------------------------------------------------
 # opt=modredundant b3lyp/6-311+g(d,p) scrf=(pcm, solvent=water)
 ---------------------------------------------------------------

 -----------
 NDI_-70.pdb
 -----------
 Symbolic Z-matrix:
 Charge =  0 Multiplicity = 1

 SCF Done:  E(RB3LYP) =  -2359.35548937     A.U. after   17 cycles
 SCF Done:  E(RB3LYP) =  -2359.35785283     A.U. after   15 cycles
 SCF Done:  E(RB3LYP) =  -2359.35832699     A.U. after   13 cycles
 SCF Done:  E(RB3LYP) =  -2359.35837569     A.U. after   14 cycles
 SCF Done:  E(RB3LYP) =  -2359.35848045     A.U. after   12 cycles
 SCF Done:  E(RB3LYP) =  -2359.35851061     A.U. after   13 cycles
 SCF Done:  E(RB3LYP) =  -2359.35846077     A.U. after   11 cycles
 SCF Done:  E(RB3LYP) =  -2359.35846480     A.U. after   10 cycles
 SCF Done:  E(RB3LYP) =  -2359.35846922     A.U. after   10 cycles
 SCF Done:  E(RB3LYP) =  -2359.35851353     A.U. after   12 cycles
 SCF Done:  E(RB3LYP) =  -2359.35849330     A.U. after   11 cycles
 SCF Done:  E(RB3LYP) =  -2359.35851565     A.U. after   11 cycles
 SCF Done:  E(RB3LYP) =  -2359.35855875     A.U. after   13 cycles
 SCF Done:  E(RB3LYP) =  -2359.35851564     A.U. after   12 cycles
 SCF Done:  E(RB3LYP) =  -2359.35851499     A.U. after   10 cycles
 SCF Done:  E(RB3LYP) =  -2359.35855892     A.U. after   13 cycles
 SCF Done:  E(RB3LYP) =  -2359.35851583     A.U. after   12 cycles
 SCF Done:  E(RB3LYP) =  -2359.35851481     A.U. after    9 cycles
 SCF Done:  E(RB3LYP) =  -2359.35851578     A.U. after    9 cycles
 SCF Done:  E(RB3LYP) =  -2359.35851584     A.U. after    7 cycles
 Optimization completed.
    -- Stationary point found.

                         Standard orientation:
 ---------------------------------------------------------------------
 Center     Atomic      Atomic             Coordinates (Angstroms)
 Number     Number       Type             X           Y           Z
 ---------------------------------------------------------------------
      1          6           0        2.971451   -2.889247    0.555036
      2          6           0        2.470432   -1.511961    0.317660
      3          6           0        3.376609   -0.465110    0.042819
      4          6           0        4.766684   -0.709953   -0.003147
      5          6           0        5.293533   -2.079028    0.235044
      6          6           0        1.120869   -1.251725    0.388559
      7          6           0        2.872235    0.841705   -0.193754
      8          6           0        1.472345    1.087321   -0.153659
      9          6           0        0.595165    0.049728    0.189816
     10          6           0        0.983280    2.438917   -0.550277
     11          6           0        3.322397    3.262493   -0.710395
     12          6           0        3.796468    1.879887   -0.464381
     13          6           0        5.155857    1.619410   -0.498630
     14          6           0        5.644538    0.325182   -0.270917
     15          1           0        6.707635    0.126844   -0.302777
     16          1           0        5.839495    2.432469   -0.704339
     17          1           0        0.443765   -2.059600    0.633358
     18          7           0        1.941462    3.451359   -0.718314
     19          7           0        4.353007   -3.084410    0.495418
     20          8           0        2.227416   -3.827376    0.793837
     21          8           0        6.488416   -2.325589    0.205853
     22          8           0        4.092730    4.190226   -0.909207
     23          8           0       -0.189999    2.699185   -0.751275
     24          6           0        1.422478    4.792883   -1.028286
     25          1           0        1.038807    4.823710   -2.049352
     26          1           0        0.615230    5.032311   -0.339544
     27          1           0        2.236419    5.501826   -0.920801
     28          6           0        4.829904   -4.455823    0.734154
     29          1           0        4.537089   -4.778501    1.733153
     30          1           0        4.389126   -5.129969    0.000373
     31          1           0        5.910472   -4.457634    0.642939
     32          6           0       -0.857226    0.215596    0.387559
     33          6           0       -1.493857    0.865494    1.411360
     34         16           0       -1.989734   -0.638219   -0.626666
     35          6           0       -2.904582    0.708952    1.370029
     36          1           0       -0.965502    1.433314    2.163257
     37          6           0       -3.364062   -0.074083    0.318049
     38          8           0       -3.796063    1.237190    2.251431
     39          6           0       -4.726217   -0.396171   -0.026345
     40          6           0       -3.298270    2.120516    3.262843
     41          6           0       -5.177701   -1.211375   -1.056764
     42         16           0       -6.110679    0.245883    0.854811
     43          1           0       -4.170193    2.452039    3.822763
     44          1           0       -2.610541    1.598876    3.933875
     45          1           0       -2.798906    2.984039    2.815260
     46          6           0       -6.596250   -1.319208   -1.138669
     47          8           0       -4.276530   -1.816201   -1.876610
     48          6           0       -7.224617   -0.586523   -0.172101
     49          1           0       -7.123264   -1.909788   -1.873759
     50          6           0       -4.775550   -2.667199   -2.914812
     51          1           0       -8.285270   -0.490549    0.003018
     52          1           0       -5.403438   -2.105892   -3.611843
     53          1           0       -3.898591   -3.044038   -3.436899
     54          1           0       -5.340232   -3.504273   -2.495706
 ---------------------------------------------------------------------

 The electronic state is 1-A.
 Alpha  occ. eigenvalues --  -88.88601 -88.88298 -19.16693 -19.16667 -19.13027
 Alpha  occ. eigenvalues --  -19.13018 -19.12712 -19.12688 -14.38992 -14.38710
 Alpha  occ. eigenvalues --  -10.31613 -10.31453 -10.31392 -10.31254 -10.24537
 Alpha  occ. eigenvalues --  -10.24457 -10.23731 -10.23065 -10.22994 -10.22770
 Alpha  occ. eigenvalues --  -10.22698 -10.22693 -10.22524 -10.22502 -10.22418
 Alpha  occ. eigenvalues --  -10.22066 -10.21928 -10.21644 -10.21637 -10.21386
 Alpha  occ. eigenvalues --  -10.21333 -10.20963 -10.20840 -10.20573 -10.18776
 Alpha  occ. eigenvalues --  -10.18565  -7.97152  -7.96858  -5.93473  -5.93167
 Alpha  occ. eigenvalues --   -5.93086  -5.92782  -5.92697  -5.92427  -1.09124
 Alpha  occ. eigenvalues --   -1.08944  -1.08060  -1.07979  -1.07321  -1.07094
 Alpha  occ. eigenvalues --   -0.96648  -0.96328  -0.92736  -0.90291  -0.88690
 Alpha  occ. eigenvalues --   -0.86858  -0.84563  -0.80496  -0.78716  -0.77529
 Alpha  occ. eigenvalues --   -0.76095  -0.75408  -0.74950  -0.73078  -0.72603
 Alpha  occ. eigenvalues --   -0.71901  -0.69962  -0.68789  -0.67572  -0.66170
 Alpha  occ. eigenvalues --   -0.65712  -0.65047  -0.61112  -0.59765  -0.58685
 Alpha  occ. eigenvalues --   -0.57668  -0.56577  -0.55740  -0.55595  -0.54438
 Alpha  occ. eigenvalues --   -0.53736  -0.51958  -0.50455  -0.50242  -0.49997
 Alpha  occ. eigenvalues --   -0.49543  -0.49275  -0.48705  -0.48102  -0.47786
 Alpha  occ. eigenvalues --   -0.47724  -0.47527  -0.47033  -0.46794  -0.45863
 Alpha  occ. eigenvalues --   -0.45557  -0.45191  -0.45113  -0.44308  -0.43972
 Alpha  occ. eigenvalues --   -0.42900  -0.42843  -0.42376  -0.42023  -0.41836
 Alpha  occ. eigenvalues --   -0.41536  -0.41397  -0.41243  -0.40743  -0.40081
 Alpha  occ. eigenvalues --   -0.39832  -0.39166  -0.38781  -0.37794  -0.37467
 Alpha  occ. eigenvalues --   -0.36087  -0.35670  -0.34250  -0.33766  -0.33665
 Alpha  occ. eigenvalues --   -0.33436  -0.32455  -0.31701  -0.30846  -0.30021
 Alpha  occ. eigenvalues --   -0.29776  -0.29497  -0.29268  -0.28592  -0.27701
 Alpha  occ. eigenvalues --   -0.26443  -0.24960  -0.24720  -0.19405
 Alpha virt. eigenvalues --   -0.13435  -0.07115  -0.06179  -0.05071  -0.04750
 Alpha virt. eigenvalues --   -0.00700  -0.00585   0.00069   0.00508   0.00551
 Alpha virt. eigenvalues --    0.00671   0.00927   0.00939   0.01396   0.02158

 Mulliken charges:
               1
     1  C    0.467122
     2  C   -0.055022
     3  C    0.157079
     4  C    0.210868
     5  C    0.304134
     6  C   -0.492342
     7  C    0.193084
     8  C    0.169003
     9  C    0.564595
    10  C   -0.422940
    11  C    0.253071
    12  C    0.149072
    13  C   -0.472088
    14  C   -0.635720
    15  H    0.167580
    16  H    0.167529
    17  H    0.170101
    18  N   -0.087098
    19  N   -0.113202
    20  O   -0.339632
    21  O   -0.331769
    22  O   -0.342105
    23  O   -0.196425
    24  C   -0.217986
    25  H    0.191755
    26  H    0.181685
    27  H    0.180887
    28  C   -0.214564
    29  H    0.184968
    30  H    0.183103
    31  H    0.180361
    32  C    0.137373
    33  C   -0.469267
    34  S   -0.396076
    35  C   -0.167401
    36  H    0.153657
    37  C    0.526158
    38  O   -0.169992
    39  C    0.703017
    40  C   -0.238799
    41  C   -0.011553
    42  S   -0.251793
    43  H    0.175487
    44  H    0.161057
    45  H    0.166241
    46  C   -0.558577
    47  O   -0.167513
    48  C   -0.340992
    49  H    0.160926
    50  C   -0.249374
    51  H    0.188342
    52  H    0.160918
    53  H    0.173224
    54  H    0.159833
 Sum of Mulliken charges =  -0.00000

 Dipole moment (field-independent basis, Debye):
    X=             -1.6637    Y=             -0.1332    Z=              0.5502  Tot=              1.7574
 Quadrupole moment (field-independent basis, Debye-Ang):
   XX=           -218.1897   YY=           -224.2451   ZZ=           -203.7752
   XY=              4.7331   XZ=              9.6656   YZ=             20.2637

 Normal termination of Gaussian 16 at Wed Oct 27 21:22:39 2021.
