 Gaussian 16, Revision C.01,
 Gaussian 16:  ES64L-G16RevC.01  3-Jul-2019

 ---------------------------------------------------------------
 # opt=modredundant b3lyp/6-311+g(d,p) scrf=(pcm, solvent=water)
 ---------------------------------------------------------------

 ----------
 NDI_45.pdb
 ----------
 Symbolic Z-matrix:
 Charge =  0 Multiplicity = 1

 SCF Done:  E(RB3LYP) =  -2359.35349253     A.U. after   17 cycles
 SCF Done:  E(RB3LYP) =  -2359.35540290     A.U. after   16 cycles
 SCF Done:  E(RB3LYP) =  -2359.35790646     A.U. after   14 cycles
 SCF Done:  E(RB3LYP) =  -2359.35843880     A.U. after   15 cycles
 SCF Done:  E(RB3LYP) =  -2359.35905596     A.U. after   16 cycles
 SCF Done:  E(RB3LYP) =  -2359.35952519     A.U. after   12 cycles
 SCF Done:  E(RB3LYP) =  -2359.35969326     A.U. after   14 cycles
 SCF Done:  E(RB3LYP) =  -2359.35979122     A.U. after   11 cycles
 SCF Done:  E(RB3LYP) =  -2359.35983357     A.U. after   12 cycles
 SCF Done:  E(RB3LYP) =  -2359.35986582     A.U. after   12 cycles
 SCF Done:  E(RB3LYP) =  -2359.35993141     A.U. after   11 cycles
 SCF Done:  E(RB3LYP) =  -2359.35994113     A.U. after   10 cycles
 SCF Done:  E(RB3LYP) =  -2359.35994452     A.U. after   10 cycles
 SCF Done:  E(RB3LYP) =  -2359.35994716     A.U. after   10 cycles
 SCF Done:  E(RB3LYP) =  -2359.35994991     A.U. after   10 cycles
 SCF Done:  E(RB3LYP) =  -2359.35995241     A.U. after   10 cycles
 SCF Done:  E(RB3LYP) =  -2359.35995374     A.U. after   10 cycles
 SCF Done:  E(RB3LYP) =  -2359.35995448     A.U. after   10 cycles
 SCF Done:  E(RB3LYP) =  -2359.35995461     A.U. after    9 cycles
 SCF Done:  E(RB3LYP) =  -2359.35995461     A.U. after    8 cycles
 Optimization completed.
    -- Stationary point found.

                         Standard orientation:
 ---------------------------------------------------------------------
 Center     Atomic      Atomic             Coordinates (Angstroms)
 Number     Number       Type             X           Y           Z
 ---------------------------------------------------------------------
      1          6           0       -2.792572   -2.965002    0.431209
      2          6           0       -2.373001   -1.558064    0.213792
      3          6           0       -3.344282   -0.542034    0.065241
      4          6           0       -4.719376   -0.846725    0.132713
      5          6           0       -5.165061   -2.246192    0.356152
      6          6           0       -1.037159   -1.240107    0.197125
      7          6           0       -2.912854    0.792716   -0.162681
      8          6           0       -1.525251    1.099781   -0.237945
      9          6           0       -0.573287    0.092263    0.017564
     10          6           0       -1.146909    2.458709   -0.710249
     11          6           0       -3.511123    3.203677   -0.547993
     12          6           0       -3.901852    1.796226   -0.309666
     13          6           0       -5.248595    1.477530   -0.228067
     14          6           0       -5.662457    0.158081   -0.010513
     15          1           0       -6.714787   -0.086490    0.045537
     16          1           0       -5.979162    2.268263   -0.337304
     17          1           0       -0.318455   -2.030076    0.371992
     18          7           0       -2.149956    3.444343   -0.716455
     19          7           0       -4.164569   -3.219624    0.482018
     20          8           0       -1.992468   -3.878508    0.562123
     21          8           0       -6.346490   -2.545451    0.425574
     22          8           0       -4.330649    4.109489   -0.617656
     23          8           0       -0.033899    2.753370   -1.113692
     24          6           0       -1.726194    4.808969   -1.065833
     25          1           0       -0.791946    5.032124   -0.556460
     26          1           0       -1.573380    4.898063   -2.143106
     27          1           0       -2.505382    5.495366   -0.750934
     28          6           0       -4.561853   -4.620042    0.695742
     29          1           0       -4.140085   -5.243642   -0.091728
     30          1           0       -4.189433   -4.966423    1.659901
     31          1           0       -5.644899   -4.670353    0.674797
     32          6           0        0.859920    0.320028    0.189172
     33          6           0        1.489922    1.291527    0.932601
     34         16           0        2.022527   -0.807359   -0.477142
     35          6           0        2.893297    1.143603    0.964270
     36          1           0        0.954305    2.074447    1.447751
     37          6           0        3.373726    0.054232    0.235128
     38          8           0        3.773180    1.937895    1.626481
     39          6           0        4.740029   -0.345736    0.038748
     40          6           0        3.258010    3.084554    2.314051
     41          6           0        5.212972   -1.445690   -0.671121
     42         16           0        6.106549    0.554044    0.694979
     43          1           0        4.122652    3.586376    2.742816
     44          1           0        2.748434    3.757741    1.619626
     45          1           0        2.574807    2.784999    3.113180
     46          6           0        6.631707   -1.563147   -0.687623
     47          8           0        4.329582   -2.283678   -1.269358
     48          6           0        7.238139   -0.554992    0.007439
     49          1           0        7.174765   -2.352380   -1.186465
     50          6           0        4.847318   -3.408637   -1.991438
     51          1           0        8.295276   -0.400273    0.161017
     52          1           0        5.411795   -4.069652   -1.328873
     53          1           0        3.978947   -3.935688   -2.380469
     54          1           0        5.479676   -3.080490   -2.820290
 ---------------------------------------------------------------------

 The electronic state is 1-A.
 Alpha  occ. eigenvalues --  -88.88922 -88.88567 -19.17061 -19.16957 -19.12925
 Alpha  occ. eigenvalues --  -19.12904 -19.12421 -19.12336 -14.38898 -14.38454
 Alpha  occ. eigenvalues --  -10.31497 -10.31339 -10.31106 -10.30935 -10.24953
 Alpha  occ. eigenvalues --  -10.24926 -10.23705 -10.22846 -10.22829 -10.22792
 Alpha  occ. eigenvalues --  -10.22662 -10.22561 -10.22479 -10.22311 -10.22274
 Alpha  occ. eigenvalues --  -10.22271 -10.22073 -10.21953 -10.21555 -10.21096
 Alpha  occ. eigenvalues --  -10.21021 -10.20939 -10.20917 -10.20755 -10.19143
 Alpha  occ. eigenvalues --  -10.18799  -7.97480  -7.97125  -5.93796  -5.93435
 Alpha  occ. eigenvalues --   -5.93411  -5.93048  -5.93029  -5.92693  -1.09013
 Alpha  occ. eigenvalues --   -1.08629  -1.08448  -1.08349  -1.07204  -1.06753
 Alpha  occ. eigenvalues --   -0.96532  -0.96069  -0.92507  -0.90595  -0.88919
 Alpha  occ. eigenvalues --   -0.86743  -0.84337  -0.80564  -0.78543  -0.77723
 Alpha  occ. eigenvalues --   -0.76329  -0.75301  -0.75261  -0.73264  -0.72515
 Alpha  occ. eigenvalues --   -0.71912  -0.70148  -0.68901  -0.67410  -0.65988
 Alpha  occ. eigenvalues --   -0.65626  -0.64893  -0.61266  -0.59921  -0.58691
 Alpha  occ. eigenvalues --   -0.57519  -0.56703  -0.56028  -0.55501  -0.54737
 Alpha  occ. eigenvalues --   -0.53594  -0.51818  -0.50412  -0.50081  -0.49999
 Alpha  occ. eigenvalues --   -0.49519  -0.49176  -0.48618  -0.48314  -0.47932
 Alpha  occ. eigenvalues --   -0.47927  -0.47312  -0.46981  -0.46599  -0.45930
 Alpha  occ. eigenvalues --   -0.45524  -0.45288  -0.45017  -0.44152  -0.43847
 Alpha  occ. eigenvalues --   -0.42883  -0.42730  -0.42240  -0.42203  -0.41908
 Alpha  occ. eigenvalues --   -0.41728  -0.41440  -0.41151  -0.40666  -0.39999
 Alpha  occ. eigenvalues --   -0.39783  -0.39238  -0.39032  -0.37803  -0.37607
 Alpha  occ. eigenvalues --   -0.36371  -0.35937  -0.34363  -0.34013  -0.33858
 Alpha  occ. eigenvalues --   -0.33662  -0.32246  -0.31587  -0.30797  -0.30019
 Alpha  occ. eigenvalues --   -0.29754  -0.29306  -0.29246  -0.28541  -0.27549
 Alpha  occ. eigenvalues --   -0.26227  -0.25100  -0.24905  -0.19608
 Alpha virt. eigenvalues --   -0.13319  -0.07490  -0.06494  -0.04869  -0.04151
 Alpha virt. eigenvalues --   -0.00729  -0.00569   0.00109   0.00416   0.00482
 Alpha virt. eigenvalues --    0.00687   0.01060   0.01220   0.01490   0.02118

 Mulliken charges:
               1
     1  C    0.439047
     2  C   -0.107232
     3  C    0.121630
     4  C    0.237073
     5  C    0.299857
     6  C   -0.361821
     7  C    0.171563
     8  C    0.401152
     9  C    0.418736
    10  C   -0.505084
    11  C    0.283873
    12  C    0.131687
    13  C   -0.477895
    14  C   -0.621112
    15  H    0.165790
    16  H    0.165887
    17  H    0.174459
    18  N   -0.025092
    19  N   -0.110583
    20  O   -0.347423
    21  O   -0.333349
    22  O   -0.351932
    23  O   -0.246672
    24  C   -0.199351
    25  H    0.180086
    26  H    0.190841
    27  H    0.179748
    28  C   -0.215011
    29  H    0.181961
    30  H    0.185374
    31  H    0.180180
    32  C    0.160858
    33  C   -0.554253
    34  S   -0.566190
    35  C   -0.275920
    36  H    0.162596
    37  C    0.721096
    38  O   -0.158501
    39  C    0.748291
    40  C   -0.242366
    41  C    0.001043
    42  S   -0.234088
    43  H    0.177639
    44  H    0.166114
    45  H    0.163654
    46  C   -0.605556
    47  O   -0.158900
    48  C   -0.313544
    49  H    0.162985
    50  C   -0.252683
    51  H    0.191061
    52  H    0.162355
    53  H    0.175077
    54  H    0.162844
 Sum of Mulliken charges =  -0.00000

 Dipole moment (field-independent basis, Debye):
    X=              4.4414    Y=             -0.5233    Z=              0.9039  Tot=              4.5625
 Quadrupole moment (field-independent basis, Debye-Ang):
   XX=           -213.7061   YY=           -214.6907   ZZ=           -214.8024
   XY=             -6.7728   XZ=             -4.6792   YZ=             19.4601

 Normal termination of Gaussian 16 at Wed Oct 27 22:44:30 2021.
