 Gaussian 16, Revision C.01,
 Gaussian 16:  ES64L-G16RevC.01  3-Jul-2019

 ---------------------------------------------------------------
 # opt=modredundant b3lyp/6-311+g(d,p) scrf=(pcm, solvent=water)
 ---------------------------------------------------------------

 -----------
 NDI_155.pdb
 -----------
 Symbolic Z-matrix:
 Charge =  0 Multiplicity = 1

 SCF Done:  E(RB3LYP) =  -2359.32953654     A.U. after   17 cycles
 SCF Done:  E(RB3LYP) =  -2359.34485927     A.U. after   18 cycles
 SCF Done:  E(RB3LYP) =  -2359.35160698     A.U. after   16 cycles
 SCF Done:  E(RB3LYP) =  -2359.35497191     A.U. after   15 cycles
 SCF Done:  E(RB3LYP) =  -2359.35618637     A.U. after   15 cycles
 SCF Done:  E(RB3LYP) =  -2359.35676640     A.U. after   16 cycles
 SCF Done:  E(RB3LYP) =  -2359.35704313     A.U. after   12 cycles
 SCF Done:  E(RB3LYP) =  -2359.35741896     A.U. after   16 cycles
 SCF Done:  E(RB3LYP) =  -2359.35741628     A.U. after   16 cycles
 SCF Done:  E(RB3LYP) =  -2359.35788257     A.U. after   14 cycles
 SCF Done:  E(RB3LYP) =  -2359.35884521     A.U. after    7 cycles
 SCF Done:  E(RB3LYP) =  -2359.35884538     A.U. after    8 cycles
 SCF Done:  E(RB3LYP) =  -2359.35884545     A.U. after    8 cycles
 SCF Done:  E(RB3LYP) =  -2359.35884548     A.U. after    8 cycles
 SCF Done:  E(RB3LYP) =  -2359.35884549     A.U. after    8 cycles
 SCF Done:  E(RB3LYP) =  -2359.35884550     A.U. after    8 cycles
 SCF Done:  E(RB3LYP) =  -2359.35884553     A.U. after    8 cycles
 SCF Done:  E(RB3LYP) =  -2359.35884560     A.U. after    8 cycles
 SCF Done:  E(RB3LYP) =  -2359.35884568     A.U. after    8 cycles
 SCF Done:  E(RB3LYP) =  -2359.35884576     A.U. after    8 cycles
 Optimization completed.
    -- Stationary point found.

                         Standard orientation:
 ---------------------------------------------------------------------
 Center     Atomic      Atomic             Coordinates (Angstroms)
 Number     Number       Type             X           Y           Z
 ---------------------------------------------------------------------
      1          6           0       -3.542958   -2.677992   -0.298922
      2          6           0       -2.777649   -1.436581   -0.023529
      3          6           0       -3.415229   -0.176894   -0.107165
      4          6           0       -4.774392   -0.079354   -0.465412
      5          6           0       -5.559290   -1.306406   -0.756134
      6          6           0       -1.437195   -1.512437    0.260840
      7          6           0       -2.661480    0.990966    0.185025
      8          6           0       -1.288622    0.892881    0.546554
      9          6           0       -0.638789   -0.359433    0.511035
     10          6           0       -0.647514    2.109278    1.105386
     11          6           0       -2.579448    3.493674    0.396019
     12          6           0       -3.314964    2.244715    0.098322
     13          6           0       -4.650332    2.320453   -0.269466
     14          6           0       -5.384768    1.162745   -0.549076
     15          1           0       -6.427900    1.226618   -0.828562
     16          1           0       -5.118516    3.293843   -0.335354
     17          1           0       -0.966487   -2.485740    0.242438
     18          7           0       -1.277950    3.342709    0.868150
     19          7           0       -4.889884   -2.532551   -0.638272
     20          8           0       -3.041328   -3.790067   -0.237175
     21          8           0       -6.735545   -1.260877   -1.079789
     22          8           0       -3.083136    4.601416    0.266305
     23          8           0        0.370062    2.085652    1.780085
     24          6           0       -0.557025    4.548417    1.303746
     25          1           0       -0.675766    4.699650    2.378604
     26          1           0        0.499349    4.429813    1.077218
     27          1           0       -0.968183    5.399640    0.770613
     28          6           0       -5.634568   -3.773364   -0.903700
     29          1           0       -5.210670   -4.281831   -1.769911
     30          1           0       -5.566228   -4.431441   -0.038384
     31          1           0       -6.669133   -3.511337   -1.096037
     32          6           0        0.801338   -0.593101    0.577134
     33          6           0        1.416717   -1.751437    1.020710
     34         16           0        1.963257    0.454395   -0.201996
     35          6           0        2.805167   -1.776794    0.782182
     36          1           0        0.883841   -2.539907    1.531633
     37          6           0        3.285699   -0.657253    0.099686
     38          8           0        3.671238   -2.759573    1.140228
     39          6           0        4.632811   -0.390935   -0.318919
     40          6           0        3.142847   -3.910488    1.810158
     41          6           0        5.106735    0.719747   -1.013689
     42         16           0        5.972454   -1.492002    0.001059
     43          1           0        3.994058   -4.561447    1.997004
     44          1           0        2.680510   -3.629575    2.760193
     45          1           0        2.415821   -4.428854    1.179307
     46          6           0        6.504938    0.688624   -1.277603
     47          8           0        4.243007    1.700490   -1.372067
     48          6           0        7.093967   -0.443241   -0.788079
     49          1           0        7.046469    1.461514   -1.802811
     50          6           0        4.763462    2.840694   -2.068976
     51          1           0        8.134365   -0.724771   -0.847112
     52          1           0        5.206785    2.543311   -3.022592
     53          1           0        3.910697    3.491339   -2.249206
     54          1           0        5.503323    3.364547   -1.458663
 ---------------------------------------------------------------------

 The electronic state is 1-A.
 Alpha  occ. eigenvalues --  -88.88768 -88.88672 -19.17200 -19.16986 -19.12889
 Alpha  occ. eigenvalues --  -19.12863 -19.12360 -19.12358 -14.38858 -14.38418
 Alpha  occ. eigenvalues --  -10.31453 -10.31300 -10.31039 -10.30866 -10.25125
 Alpha  occ. eigenvalues --  -10.24977 -10.23744 -10.22908 -10.22874 -10.22856
 Alpha  occ. eigenvalues --  -10.22706 -10.22517 -10.22368 -10.22361 -10.22218
 Alpha  occ. eigenvalues --  -10.22194 -10.22068 -10.21981 -10.21543 -10.21092
 Alpha  occ. eigenvalues --  -10.21012 -10.20922 -10.20895 -10.20767 -10.19483
 Alpha  occ. eigenvalues --  -10.18890  -7.97331  -7.97229  -5.93653  -5.93539
 Alpha  occ. eigenvalues --   -5.93261  -5.93152  -5.92868  -5.92797  -1.08967
 Alpha  occ. eigenvalues --   -1.08594  -1.08588  -1.08396  -1.07160  -1.06703
 Alpha  occ. eigenvalues --   -0.96481  -0.96062  -0.92445  -0.90662  -0.89004
 Alpha  occ. eigenvalues --   -0.86705  -0.84268  -0.80653  -0.78468  -0.77730
 Alpha  occ. eigenvalues --   -0.76422  -0.75408  -0.75209  -0.73423  -0.72574
 Alpha  occ. eigenvalues --   -0.71599  -0.70377  -0.68923  -0.67361  -0.65981
 Alpha  occ. eigenvalues --   -0.65468  -0.65017  -0.61184  -0.60040  -0.58728
 Alpha  occ. eigenvalues --   -0.57562  -0.56807  -0.56084  -0.55003  -0.54883
 Alpha  occ. eigenvalues --   -0.53895  -0.51723  -0.50356  -0.50140  -0.49789
 Alpha  occ. eigenvalues --   -0.49612  -0.49179  -0.48592  -0.48378  -0.48053
 Alpha  occ. eigenvalues --   -0.47978  -0.47278  -0.46997  -0.46573  -0.45834
 Alpha  occ. eigenvalues --   -0.45502  -0.45375  -0.45119  -0.44321  -0.43808
 Alpha  occ. eigenvalues --   -0.42873  -0.42618  -0.42227  -0.42069  -0.41960
 Alpha  occ. eigenvalues --   -0.41834  -0.41547  -0.41131  -0.40741  -0.40095
 Alpha  occ. eigenvalues --   -0.39671  -0.39234  -0.38881  -0.37854  -0.37497
 Alpha  occ. eigenvalues --   -0.36469  -0.36214  -0.34352  -0.34067  -0.33856
 Alpha  occ. eigenvalues --   -0.33705  -0.32074  -0.31523  -0.30746  -0.30163
 Alpha  occ. eigenvalues --   -0.29672  -0.29322  -0.29137  -0.28646  -0.27562
 Alpha  occ. eigenvalues --   -0.26164  -0.25256  -0.24798  -0.19676
 Alpha virt. eigenvalues --   -0.13268  -0.07745  -0.06473  -0.04815  -0.04025
 Alpha virt. eigenvalues --   -0.00793  -0.00591   0.00112   0.00297   0.00378
 Alpha virt. eigenvalues --    0.00785   0.01226   0.01271   0.01533   0.02034

 Mulliken charges:
               1
     1  C    0.432921
     2  C   -0.076875
     3  C    0.133056
     4  C    0.260319
     5  C    0.282882
     6  C   -0.019865
     7  C    0.119821
     8  C    0.314012
     9  C    0.280520
    10  C   -0.560696
    11  C    0.369494
    12  C    0.067924
    13  C   -0.496265
    14  C   -0.595748
    15  H    0.165118
    16  H    0.165338
    17  H    0.166012
    18  N    0.040351
    19  N   -0.113347
    20  O   -0.346556
    21  O   -0.334663
    22  O   -0.356655
    23  O   -0.288016
    24  C   -0.208869
    25  H    0.191533
    26  H    0.182844
    27  H    0.180793
    28  C   -0.211235
    29  H    0.186016
    30  H    0.180941
    31  H    0.180055
    32  C    0.130097
    33  C   -0.680147
    34  S   -0.703919
    35  C   -0.166002
    36  H    0.167026
    37  C    0.692671
    38  O   -0.161799
    39  C    0.859679
    40  C   -0.240066
    41  C   -0.002824
    42  S   -0.219575
    43  H    0.178506
    44  H    0.163305
    45  H    0.166824
    46  C   -0.611847
    47  O   -0.156742
    48  C   -0.311191
    49  H    0.163661
    50  C   -0.254135
    51  H    0.192322
    52  H    0.163191
    53  H    0.176010
    54  H    0.163798
 Sum of Mulliken charges =  -0.00000

 Dipole moment (field-independent basis, Debye):
    X=              5.2744    Y=             -1.0823    Z=             -1.2780  Tot=              5.5339
 Quadrupole moment (field-independent basis, Debye-Ang):
   XX=           -207.9756   YY=           -216.2812   ZZ=           -218.2325
   XY=             13.4404   XZ=            -15.7202   YZ=            -15.7124

 Normal termination of Gaussian 16 at Thu Oct 28 06:06:10 2021.
