 Gaussian 16, Revision C.01,
 Gaussian 16:  ES64L-G16RevC.01  3-Jul-2019

 ---------------------------------------------------------------
 # opt=modredundant b3lyp/6-311+g(d,p) scrf=(pcm, solvent=water)
 ---------------------------------------------------------------

 -----------
 NDI_115.pdb
 -----------
 Symbolic Z-matrix:
 Charge =  0 Multiplicity = 1

 SCF Done:  E(RB3LYP) =  -2359.35453965     A.U. after   18 cycles
 SCF Done:  E(RB3LYP) =  -2359.35762365     A.U. after   16 cycles
 SCF Done:  E(RB3LYP) =  -2359.35768916     A.U. after   14 cycles
 SCF Done:  E(RB3LYP) =  -2359.35836923     A.U. after   12 cycles
 SCF Done:  E(RB3LYP) =  -2359.35842891     A.U. after   12 cycles
 SCF Done:  E(RB3LYP) =  -2359.35846016     A.U. after   11 cycles
 SCF Done:  E(RB3LYP) =  -2359.35847198     A.U. after   12 cycles
 SCF Done:  E(RB3LYP) =  -2359.35848102     A.U. after   10 cycles
 SCF Done:  E(RB3LYP) =  -2359.35849544     A.U. after   11 cycles
 SCF Done:  E(RB3LYP) =  -2359.35855531     A.U. after   13 cycles
 SCF Done:  E(RB3LYP) =  -2359.35857851     A.U. after   11 cycles
 SCF Done:  E(RB3LYP) =  -2359.35858314     A.U. after   11 cycles
 SCF Done:  E(RB3LYP) =  -2359.35858695     A.U. after   11 cycles
 SCF Done:  E(RB3LYP) =  -2359.35859044     A.U. after   11 cycles
 SCF Done:  E(RB3LYP) =  -2359.35854058     A.U. after    9 cycles
 SCF Done:  E(RB3LYP) =  -2359.35854071     A.U. after   10 cycles
 SCF Done:  E(RB3LYP) =  -2359.35854083     A.U. after   10 cycles
 SCF Done:  E(RB3LYP) =  -2359.35854084     A.U. after    9 cycles
 SCF Done:  E(RB3LYP) =  -2359.35854085     A.U. after    9 cycles
 SCF Done:  E(RB3LYP) =  -2359.35854086     A.U. after    9 cycles
 Optimization completed.
    -- Stationary point found.

                         Standard orientation:
 ---------------------------------------------------------------------
 Center     Atomic      Atomic             Coordinates (Angstroms)
 Number     Number       Type             X           Y           Z
 ---------------------------------------------------------------------
      1          6           0        3.463264   -2.736208    0.403766
      2          6           0        2.737682   -1.472281    0.120676
      3          6           0        3.430877   -0.242770    0.114408
      4          6           0        4.816064   -0.195581    0.386286
      5          6           0        5.563591   -1.446004    0.680082
      6          6           0        1.381004   -1.496735   -0.111121
      7          6           0        2.717977    0.951375   -0.174908
      8          6           0        1.324423    0.904432   -0.452511
      9          6           0        0.641261   -0.316383   -0.373328
     10          6           0        0.655088    2.158263   -0.901670
     11          6           0        2.728641    3.451581   -0.459006
     12          6           0        3.428518    2.176436   -0.172674
     13          6           0        4.784899    2.200941    0.103112
     14          6           0        5.482531    1.016559    0.380485
     15          1           0        6.543351    1.042107    0.591574
     16          1           0        5.302258    3.151262    0.102599
     17          1           0        0.856800   -2.442425   -0.069110
     18          7           0        1.376452    3.356482   -0.783945
     19          7           0        4.831930   -2.640874    0.665291
     20          8           0        2.909472   -3.824319    0.413455
     21          8           0        6.759685   -1.441940    0.922244
     22          8           0        3.300619    4.531011   -0.427268
     23          8           0       -0.467083    2.187835   -1.375802
     24          6           0        0.658562    4.588469   -1.147132
     25          1           0        0.543246    4.655335   -2.230306
     26          1           0       -0.326532    4.576176   -0.686303
     27          1           0        1.236044    5.433479   -0.787621
     28          6           0        5.533337   -3.903817    0.944811
     29          1           0        5.097647   -4.379632    1.823055
     30          1           0        5.434328   -4.574804    0.091960
     31          1           0        6.578662   -3.676670    1.122760
     32          6           0       -0.817034   -0.487557   -0.522975
     33          6           0       -1.475078   -1.165053   -1.515196
     34         16           0       -1.923196    0.121232    0.677984
     35          6           0       -2.884924   -1.173277   -1.332715
     36          1           0       -0.966202   -1.616463   -2.354706
     37          6           0       -3.316665   -0.523862   -0.183248
     38          8           0       -3.796999   -1.749391   -2.161402
     39          6           0       -4.664484   -0.388822    0.311589
     40          6           0       -3.312826   -2.440272   -3.318529
     41          6           0       -5.092220    0.263603    1.460931
     42         16           0       -6.059391   -1.073148   -0.520006
     43          1           0       -4.195156   -2.826848   -3.824176
     44          1           0       -2.778491   -1.758435   -3.985625
     45          1           0       -2.660646   -3.270304   -3.033685
     46          6           0       -6.501276    0.218705    1.669341
     47          8           0       -4.179236    0.867563    2.268614
     48          6           0       -7.146149   -0.468359    0.680523
     49          1           0       -7.010079    0.671920    2.507537
     50          6           0       -4.657935    1.550570    3.432725
     51          1           0       -8.204785   -0.655084    0.584183
     52          1           0       -5.162307    0.858102    4.111977
     53          1           0       -3.775940    1.960894    3.919970
     54          1           0       -5.335902    2.363008    3.157816
 ---------------------------------------------------------------------

 The electronic state is 1-A.
 Alpha  occ. eigenvalues --  -88.88418 -88.88279 -19.16674 -19.16667 -19.13032
 Alpha  occ. eigenvalues --  -19.13027 -19.12762 -19.12730 -14.38997 -14.38728
 Alpha  occ. eigenvalues --  -10.31619 -10.31462 -10.31416 -10.31269 -10.24525
 Alpha  occ. eigenvalues --  -10.24422 -10.23714 -10.23106 -10.23016 -10.22793
 Alpha  occ. eigenvalues --  -10.22701 -10.22684 -10.22526 -10.22516 -10.22446
 Alpha  occ. eigenvalues --  -10.22067 -10.21882 -10.21626 -10.21608 -10.21410
 Alpha  occ. eigenvalues --  -10.21354 -10.20965 -10.20858 -10.20543 -10.18838
 Alpha  occ. eigenvalues --  -10.18543  -7.96974  -7.96840  -5.93298  -5.93148
 Alpha  occ. eigenvalues --   -5.92910  -5.92763  -5.92510  -5.92409  -1.09129
 Alpha  occ. eigenvalues --   -1.08982  -1.08049  -1.07963  -1.07326  -1.07131
 Alpha  occ. eigenvalues --   -0.96654  -0.96362  -0.92746  -0.90238  -0.88663
 Alpha  occ. eigenvalues --   -0.86860  -0.84577  -0.80505  -0.78721  -0.77500
 Alpha  occ. eigenvalues --   -0.76078  -0.75420  -0.74905  -0.73097  -0.72693
 Alpha  occ. eigenvalues --   -0.71744  -0.70019  -0.68763  -0.67577  -0.66195
 Alpha  occ. eigenvalues --   -0.65648  -0.65129  -0.61039  -0.59779  -0.58687
 Alpha  occ. eigenvalues --   -0.57712  -0.56672  -0.55695  -0.55309  -0.54460
 Alpha  occ. eigenvalues --   -0.53901  -0.51949  -0.50467  -0.50260  -0.49971
 Alpha  occ. eigenvalues --   -0.49520  -0.49320  -0.48695  -0.48104  -0.47801
 Alpha  occ. eigenvalues --   -0.47698  -0.47554  -0.47044  -0.46820  -0.45859
 Alpha  occ. eigenvalues --   -0.45451  -0.45373  -0.45088  -0.44375  -0.44007
 Alpha  occ. eigenvalues --   -0.42962  -0.42733  -0.42367  -0.41991  -0.41788
 Alpha  occ. eigenvalues --   -0.41629  -0.41393  -0.41232  -0.40757  -0.40152
 Alpha  occ. eigenvalues --   -0.39782  -0.39070  -0.38646  -0.37847  -0.37445
 Alpha  occ. eigenvalues --   -0.36087  -0.35743  -0.34147  -0.33701  -0.33656
 Alpha  occ. eigenvalues --   -0.33465  -0.32449  -0.31695  -0.30841  -0.30025
 Alpha  occ. eigenvalues --   -0.29729  -0.29466  -0.29210  -0.28570  -0.27868
 Alpha  occ. eigenvalues --   -0.26468  -0.25008  -0.24623  -0.19392
 Alpha virt. eigenvalues --   -0.13447  -0.07111  -0.06205  -0.05090  -0.04666
 Alpha virt. eigenvalues --   -0.00778  -0.00618   0.00114   0.00416   0.00537
 Alpha virt. eigenvalues --    0.00724   0.00933   0.01108   0.01233   0.02119

 Mulliken charges:
               1
     1  C    0.452558
     2  C   -0.038480
     3  C    0.170929
     4  C    0.214575
     5  C    0.310438
     6  C   -0.442878
     7  C    0.178889
     8  C    0.046894
     9  C    0.337679
    10  C   -0.348708
    11  C    0.319652
    12  C    0.145310
    13  C   -0.473676
    14  C   -0.648315
    15  H    0.167859
    16  H    0.167964
    17  H    0.161061
    18  N   -0.047444
    19  N   -0.108839
    20  O   -0.338744
    21  O   -0.333726
    22  O   -0.343384
    23  O   -0.233880
    24  C   -0.203088
    25  H    0.192136
    26  H    0.182601
    27  H    0.181311
    28  C   -0.215483
    29  H    0.184623
    30  H    0.183830
    31  H    0.181034
    32  C    0.347591
    33  C   -0.440736
    34  S   -0.399271
    35  C   -0.180464
    36  H    0.153084
    37  C    0.340953
    38  O   -0.161972
    39  C    0.780480
    40  C   -0.235814
    41  C    0.026126
    42  S   -0.251819
    43  H    0.175955
    44  H    0.164010
    45  H    0.164624
    46  C   -0.562494
    47  O   -0.171774
    48  C   -0.344573
    49  H    0.160655
    50  C   -0.248597
    51  H    0.188004
    52  H    0.159947
    53  H    0.173214
    54  H    0.160169
 Sum of Mulliken charges =  -0.00000

 Dipole moment (field-independent basis, Debye):
    X=             -1.5770    Y=             -0.2455    Z=              0.5137  Tot=              1.6766
 Quadrupole moment (field-independent basis, Debye-Ang):
   XX=           -216.6155   YY=           -230.4254   ZZ=           -199.9302
   XY=             -8.1008   XZ=            -14.9624   YZ=             16.0649

 Normal termination of Gaussian 16 at Thu Oct 28 02:54:16 2021.
