 Gaussian 16, Revision C.01,
 Gaussian 16:  ES64L-G16RevC.01  3-Jul-2019

 ---------------------------------------------------------------
 # opt=modredundant b3lyp/6-311+g(d,p) scrf=(pcm, solvent=water)
 ---------------------------------------------------------------

 -----------
 NDI_160.pdb
 -----------
 Symbolic Z-matrix:
 Charge =  0 Multiplicity = 1

 SCF Done:  E(RB3LYP) =  -2359.32381656     A.U. after   17 cycles
 SCF Done:  E(RB3LYP) =  -2359.34430745     A.U. after   18 cycles
 SCF Done:  E(RB3LYP) =  -2359.35218098     A.U. after   14 cycles
 SCF Done:  E(RB3LYP) =  -2359.35509335     A.U. after   14 cycles
 SCF Done:  E(RB3LYP) =  -2359.35602210     A.U. after   15 cycles
 SCF Done:  E(RB3LYP) =  -2359.35647581     A.U. after   15 cycles
 SCF Done:  E(RB3LYP) =  -2359.35670878     A.U. after   11 cycles
 SCF Done:  E(RB3LYP) =  -2359.35682124     A.U. after   13 cycles
 SCF Done:  E(RB3LYP) =  -2359.35702074     A.U. after   16 cycles
 SCF Done:  E(RB3LYP) =  -2359.35702485     A.U. after   15 cycles
 SCF Done:  E(RB3LYP) =  -2359.35836206     A.U. after    8 cycles
 SCF Done:  E(RB3LYP) =  -2359.35836221     A.U. after    9 cycles
 SCF Done:  E(RB3LYP) =  -2359.35836223     A.U. after    7 cycles
 SCF Done:  E(RB3LYP) =  -2359.35836233     A.U. after    8 cycles
 SCF Done:  E(RB3LYP) =  -2359.35836246     A.U. after    8 cycles
 SCF Done:  E(RB3LYP) =  -2359.35836264     A.U. after    8 cycles
 SCF Done:  E(RB3LYP) =  -2359.35836282     A.U. after    9 cycles
 SCF Done:  E(RB3LYP) =  -2359.35836306     A.U. after    8 cycles
 SCF Done:  E(RB3LYP) =  -2359.35836324     A.U. after    8 cycles
 SCF Done:  E(RB3LYP) =  -2359.35836330     A.U. after    8 cycles
 Optimization completed.
    -- Stationary point found.

                         Standard orientation:
 ---------------------------------------------------------------------
 Center     Atomic      Atomic             Coordinates (Angstroms)
 Number     Number       Type             X           Y           Z
 ---------------------------------------------------------------------
      1          6           0       -3.550622   -2.673175   -0.249390
      2          6           0       -2.782504   -1.429427    0.007082
      3          6           0       -3.415339   -0.169277   -0.102271
      4          6           0       -4.771920   -0.073541   -0.469061
      5          6           0       -5.559934   -1.303020   -0.739984
      6          6           0       -1.443944   -1.505285    0.296930
      7          6           0       -2.657238    0.999943    0.172223
      8          6           0       -1.286184    0.903143    0.542578
      9          6           0       -0.638290   -0.352602    0.531470
     10          6           0       -0.647710    2.127049    1.085316
     11          6           0       -2.568100    3.505957    0.336162
     12          6           0       -3.305727    2.254293    0.057954
     13          6           0       -4.638992    2.328426   -0.319016
     14          6           0       -5.377101    1.169259   -0.580284
     15          1           0       -6.418409    1.231996   -0.866710
     16          1           0       -5.102185    3.302532   -0.406234
     17          1           0       -0.981270   -2.482168    0.294612
     18          7           0       -1.271280    3.358573    0.821449
     19          7           0       -4.896350   -2.529335   -0.593903
     20          8           0       -3.052531   -3.785627   -0.167756
     21          8           0       -6.734207   -1.259559   -1.071217
     22          8           0       -3.066147    4.613177    0.180887
     23          8           0        0.364127    2.112732    1.769593
     24          6           0       -0.548575    4.568812    1.241149
     25          1           0       -0.670953    4.736890    2.313083
     26          1           0        0.508402    4.444026    1.020670
     27          1           0       -0.955421    5.412711    0.693291
     28          6           0       -5.645481   -3.771951   -0.837339
     29          1           0       -5.235761   -4.288773   -1.705613
     30          1           0       -5.563611   -4.421903    0.032724
     31          1           0       -6.682770   -3.511100   -1.016199
     32          6           0        0.800019   -0.595449    0.594730
     33          6           0        1.404013   -1.786320    0.969452
     34         16           0        1.977385    0.476829   -0.127783
     35          6           0        2.788815   -1.820053    0.721121
     36          1           0        0.865681   -2.595818    1.439598
     37          6           0        3.282684   -0.671141    0.098369
     38          8           0        3.642032   -2.833667    1.018597
     39          6           0        4.631323   -0.401886   -0.310539
     40          6           0        3.098424   -4.016662    1.616671
     41          6           0        5.120100    0.740512   -0.941731
     42         16           0        5.954208   -1.541910   -0.064804
     43          1           0        3.940492   -4.690159    1.759884
     44          1           0        2.642155   -3.789382    2.583799
     45          1           0        2.362636   -4.483670    0.956517
     46          6           0        6.515810    0.701660   -1.216457
     47          8           0        4.271557    1.754541   -1.235561
     48          6           0        7.088075   -0.466976   -0.798454
     49          1           0        7.067427    1.494975   -1.698922
     50          6           0        4.808545    2.927732   -1.862079
     51          1           0        8.123245   -0.761590   -0.881142
     52          1           0        5.243124    2.683406   -2.834528
     53          1           0        3.966149    3.602376   -1.996869
     54          1           0        5.559436    3.399362   -1.223375
 ---------------------------------------------------------------------

 The electronic state is 1-A.
 Alpha  occ. eigenvalues --  -88.88795 -88.88717 -19.17264 -19.17011 -19.12874
 Alpha  occ. eigenvalues --  -19.12846 -19.12316 -19.12316 -14.38845 -14.38388
 Alpha  occ. eigenvalues --  -10.31435 -10.31284 -10.30991 -10.30820 -10.25210
 Alpha  occ. eigenvalues --  -10.25005 -10.23788 -10.22972 -10.22933 -10.22870
 Alpha  occ. eigenvalues --  -10.22675 -10.22580 -10.22313 -10.22295 -10.22175
 Alpha  occ. eigenvalues --  -10.22155 -10.22122 -10.21927 -10.21521 -10.21159
 Alpha  occ. eigenvalues --  -10.20965 -10.20889 -10.20868 -10.20753 -10.19550
 Alpha  occ. eigenvalues --  -10.18931  -7.97357  -7.97274  -5.93679  -5.93584
 Alpha  occ. eigenvalues --   -5.93285  -5.93197  -5.92896  -5.92842  -1.08951
 Alpha  occ. eigenvalues --   -1.08662  -1.08553  -1.08429  -1.07143  -1.06659
 Alpha  occ. eigenvalues --   -0.96466  -0.96031  -0.92408  -0.90699  -0.89039
 Alpha  occ. eigenvalues --   -0.86682  -0.84231  -0.80667  -0.78439  -0.77751
 Alpha  occ. eigenvalues --   -0.76457  -0.75451  -0.75195  -0.73455  -0.72558
 Alpha  occ. eigenvalues --   -0.71585  -0.70415  -0.68939  -0.67339  -0.65961
 Alpha  occ. eigenvalues --   -0.65454  -0.65004  -0.61199  -0.60073  -0.58732
 Alpha  occ. eigenvalues --   -0.57548  -0.56815  -0.56126  -0.55014  -0.54899
 Alpha  occ. eigenvalues --   -0.53893  -0.51697  -0.50346  -0.50139  -0.49768
 Alpha  occ. eigenvalues --   -0.49599  -0.49165  -0.48586  -0.48412  -0.48079
 Alpha  occ. eigenvalues --   -0.48009  -0.47260  -0.46985  -0.46555  -0.45836
 Alpha  occ. eigenvalues --   -0.45505  -0.45382  -0.45087  -0.44309  -0.43785
 Alpha  occ. eigenvalues --   -0.42874  -0.42627  -0.42244  -0.42063  -0.41968
 Alpha  occ. eigenvalues --   -0.41850  -0.41537  -0.41125  -0.40739  -0.40092
 Alpha  occ. eigenvalues --   -0.39684  -0.39247  -0.38892  -0.37848  -0.37466
 Alpha  occ. eigenvalues --   -0.36494  -0.36280  -0.34382  -0.34112  -0.33853
 Alpha  occ. eigenvalues --   -0.33709  -0.32036  -0.31504  -0.30746  -0.30201
 Alpha  occ. eigenvalues --   -0.29664  -0.29320  -0.29107  -0.28637  -0.27526
 Alpha  occ. eigenvalues --   -0.26149  -0.25270  -0.24807  -0.19707
 Alpha virt. eigenvalues --   -0.13248  -0.07857  -0.06462  -0.04780  -0.03978
 Alpha virt. eigenvalues --   -0.00768  -0.00577   0.00124   0.00280   0.00368
 Alpha virt. eigenvalues --    0.00801   0.01274   0.01291   0.01564   0.02023

 Mulliken charges:
               1
     1  C    0.428448
     2  C   -0.071964
     3  C    0.142914
     4  C    0.254728
     5  C    0.281013
     6  C    0.053807
     7  C    0.111903
     8  C    0.369658
     9  C    0.282048
    10  C   -0.620084
    11  C    0.372633
    12  C    0.067147
    13  C   -0.495570
    14  C   -0.595645
    15  H    0.164784
    16  H    0.165085
    17  H    0.165414
    18  N    0.049047
    19  N   -0.113983
    20  O   -0.347263
    21  O   -0.334883
    22  O   -0.357541
    23  O   -0.288598
    24  C   -0.210084
    25  H    0.191207
    26  H    0.183015
    27  H    0.180615
    28  C   -0.211602
    29  H    0.186644
    30  H    0.180242
    31  H    0.179861
    32  C    0.069302
    33  C   -0.660880
    34  S   -0.704206
    35  C   -0.244602
    36  H    0.165229
    37  C    0.717295
    38  O   -0.160637
    39  C    0.868702
    40  C   -0.240899
    41  C   -0.010109
    42  S   -0.215237
    43  H    0.178823
    44  H    0.163317
    45  H    0.166659
    46  C   -0.596584
    47  O   -0.154554
    48  C   -0.311104
    49  H    0.164000
    50  C   -0.254334
    51  H    0.192799
    52  H    0.163544
    53  H    0.176266
    54  H    0.164212
 Sum of Mulliken charges =  -0.00000

 Dipole moment (field-independent basis, Debye):
    X=              5.6876    Y=             -1.1913    Z=             -1.3156  Tot=              5.9580
 Quadrupole moment (field-independent basis, Debye-Ang):
   XX=           -206.8265   YY=           -215.0493   ZZ=           -220.0342
   XY=             13.9857   XZ=            -15.8078   YZ=            -14.3576

 Normal termination of Gaussian 16 at Thu Oct 28 08:45:07 2021.
