 Gaussian 16, Revision C.01,
 Gaussian 16:  ES64L-G16RevC.01  3-Jul-2019

 ---------------------------------------------------------------
 # opt=modredundant b3lyp/6-311+g(d,p) scrf=(pcm, solvent=water)
 ---------------------------------------------------------------

 -----------
 NDI_180.pdb
 -----------
 Symbolic Z-matrix:
 Charge =  0 Multiplicity = 1

 SCF Done:  E(RB3LYP) =  -2359.31124383     A.U. after   17 cycles
 SCF Done:  E(RB3LYP) =  -2359.34279008     A.U. after   17 cycles
 SCF Done:  E(RB3LYP) =  -2359.35163187     A.U. after   15 cycles
 SCF Done:  E(RB3LYP) =  -2359.35382095     A.U. after   14 cycles
 SCF Done:  E(RB3LYP) =  -2359.35415409     A.U. after   12 cycles
 SCF Done:  E(RB3LYP) =  -2359.35419447     A.U. after   12 cycles
 SCF Done:  E(RB3LYP) =  -2359.35438738     A.U. after   12 cycles
 SCF Done:  E(RB3LYP) =  -2359.35457478     A.U. after   16 cycles
 SCF Done:  E(RB3LYP) =  -2359.35458357     A.U. after   16 cycles
 SCF Done:  E(RB3LYP) =  -2359.35480794     A.U. after   12 cycles
 SCF Done:  E(RB3LYP) =  -2359.35569403     A.U. after   11 cycles
 SCF Done:  E(RB3LYP) =  -2359.35569627     A.U. after   11 cycles
 SCF Done:  E(RB3LYP) =  -2359.35569835     A.U. after    9 cycles
 SCF Done:  E(RB3LYP) =  -2359.35570105     A.U. after   10 cycles
 SCF Done:  E(RB3LYP) =  -2359.35570401     A.U. after   10 cycles
 SCF Done:  E(RB3LYP) =  -2359.35570731     A.U. after   11 cycles
 SCF Done:  E(RB3LYP) =  -2359.35570796     A.U. after   10 cycles
 SCF Done:  E(RB3LYP) =  -2359.35570882     A.U. after    9 cycles
 SCF Done:  E(RB3LYP) =  -2359.35570888     A.U. after   10 cycles
 SCF Done:  E(RB3LYP) =  -2359.35570902     A.U. after    8 cycles
 Optimization completed.
    -- Stationary point found.

                         Standard orientation:
 ---------------------------------------------------------------------
 Center     Atomic      Atomic             Coordinates (Angstroms)
 Number     Number       Type             X           Y           Z
 ---------------------------------------------------------------------
      1          6           0       -3.629160   -2.625748    0.010224
      2          6           0       -2.832000   -1.379817    0.134529
      3          6           0       -3.443338   -0.121873   -0.072763
      4          6           0       -4.802979   -0.031157   -0.422350
      5          6           0       -5.619834   -1.262712   -0.567180
      6          6           0       -1.492729   -1.460855    0.403396
      7          6           0       -2.651856    1.045107    0.090798
      8          6           0       -1.274007    0.950111    0.448155
      9          6           0       -0.638335   -0.319141    0.525441
     10          6           0       -0.616440    2.205844    0.864705
     11          6           0       -2.521236    3.554986    0.033725
     12          6           0       -3.280272    2.297705   -0.123351
     13          6           0       -4.619347    2.367726   -0.486015
     14          6           0       -5.387098    1.210055   -0.632707
     15          1           0       -6.431982    1.270245   -0.906047
     16          1           0       -5.061391    3.341604   -0.650651
     17          1           0       -1.079493   -2.453588    0.487380
     18          7           0       -1.222513    3.423263    0.515021
     19          7           0       -4.976481   -2.485656   -0.328394
     20          8           0       -3.153181   -3.736556    0.190067
     21          8           0       -6.800612   -1.223989   -0.875552
     22          8           0       -3.001521    4.654420   -0.212209
     23          8           0        0.414980    2.236668    1.522997
     24          6           0       -0.467506    4.647291    0.822974
     25          1           0       -0.525948    4.875065    1.889054
     26          1           0        0.574515    4.501362    0.549274
     27          1           0       -0.900994    5.462135    0.252373
     28          6           0       -5.753133   -3.729313   -0.448516
     29          1           0       -5.338982   -4.348132   -1.244610
     30          1           0       -5.706763   -4.281400    0.489557
     31          1           0       -6.779501   -3.465070   -0.678037
     32          6           0        0.791499   -0.618764    0.568491
     33          6           0        1.330924   -1.904437    0.644777
     34         16           0        2.067659    0.517549    0.165557
     35          6           0        2.706859   -1.971206    0.391983
     36          1           0        0.754787   -2.781085    0.892160
     37          6           0        3.283635   -0.738172    0.071724
     38          8           0        3.488015   -3.080899    0.430732
     39          6           0        4.654516   -0.468481   -0.242932
     40          6           0        2.865784   -4.332999    0.743343
     41          6           0        5.233749    0.760931   -0.561117
     42         16           0        5.893104   -1.724584   -0.290607
     43          1           0        3.662806   -5.072919    0.723870
     44          1           0        2.414703   -4.305698    1.738901
     45          1           0        2.109134   -4.588669   -0.003297
     46          6           0        6.628200    0.693306   -0.832803
     47          8           0        4.464706    1.872792   -0.587945
     48          6           0        7.109867   -0.581423   -0.724034
     49          1           0        7.243105    1.541278   -1.095666
     50          6           0        5.088864    3.123267   -0.913938
     51          1           0        8.124575   -0.917248   -0.875633
     52          1           0        5.519496    3.090988   -1.917616
     53          1           0        4.295527    3.866281   -0.879031
     54          1           0        5.860316    3.373285   -0.181638
 ---------------------------------------------------------------------

 The electronic state is 1-A.
 Alpha  occ. eigenvalues --  -88.88853 -88.88819 -19.17448 -19.17076 -19.12837
 Alpha  occ. eigenvalues --  -19.12803 -19.12242 -19.12158 -14.38810 -14.38330
 Alpha  occ. eigenvalues --  -10.31390 -10.31231 -10.30829 -10.30656 -10.25493
 Alpha  occ. eigenvalues --  -10.25043 -10.24094 -10.23145 -10.23007 -10.22914
 Alpha  occ. eigenvalues --  -10.22890 -10.22592 -10.22280 -10.22151 -10.22113
 Alpha  occ. eigenvalues --  -10.22028 -10.22005 -10.21749 -10.21439 -10.21381
 Alpha  occ. eigenvalues --  -10.20872 -10.20795 -10.20706 -10.20673 -10.19742
 Alpha  occ. eigenvalues --  -10.19058  -7.97410  -7.97354  -5.93719  -5.93677
 Alpha  occ. eigenvalues --   -5.93332  -5.93271  -5.92977  -5.92898  -1.08910
 Alpha  occ. eigenvalues --   -1.08874  -1.08517  -1.08481  -1.07099  -1.06543
 Alpha  occ. eigenvalues --   -0.96425  -0.95967  -0.92269  -0.90760  -0.89109
 Alpha  occ. eigenvalues --   -0.86598  -0.84112  -0.80693  -0.78341  -0.77802
 Alpha  occ. eigenvalues --   -0.76561  -0.75574  -0.75162  -0.73528  -0.72511
 Alpha  occ. eigenvalues --   -0.71571  -0.70521  -0.68979  -0.67277  -0.65921
 Alpha  occ. eigenvalues --   -0.65433  -0.64976  -0.61232  -0.60178  -0.58764
 Alpha  occ. eigenvalues --   -0.57522  -0.56830  -0.56241  -0.55177  -0.54857
 Alpha  occ. eigenvalues --   -0.53877  -0.51626  -0.50347  -0.50145  -0.49722
 Alpha  occ. eigenvalues --   -0.49509  -0.49135  -0.48583  -0.48510  -0.48146
 Alpha  occ. eigenvalues --   -0.48089  -0.47307  -0.46917  -0.46508  -0.45848
 Alpha  occ. eigenvalues --   -0.45621  -0.45388  -0.44863  -0.44246  -0.43714
 Alpha  occ. eigenvalues --   -0.42924  -0.42712  -0.42344  -0.42107  -0.41914
 Alpha  occ. eigenvalues --   -0.41798  -0.41531  -0.41108  -0.40757  -0.40106
 Alpha  occ. eigenvalues --   -0.39736  -0.39283  -0.38909  -0.37749  -0.37290
 Alpha  occ. eigenvalues --   -0.36579  -0.36357  -0.34494  -0.34211  -0.33782
 Alpha  occ. eigenvalues --   -0.33687  -0.31924  -0.31435  -0.30765  -0.30299
 Alpha  occ. eigenvalues --   -0.29647  -0.29320  -0.28961  -0.28616  -0.27420
 Alpha  occ. eigenvalues --   -0.26123  -0.25273  -0.24875  -0.19818
 Alpha virt. eigenvalues --   -0.13159  -0.08250  -0.06416  -0.04667  -0.03853
 Alpha virt. eigenvalues --   -0.00666  -0.00511   0.00174   0.00231   0.00453
 Alpha virt. eigenvalues --    0.00894   0.01327   0.01552   0.01605   0.02155

 Mulliken charges:
               1
     1  C    0.417209
     2  C   -0.084969
     3  C    0.134037
     4  C    0.204987
     5  C    0.289050
     6  C    0.138180
     7  C    0.047242
     8  C    0.395152
     9  C    0.349014
    10  C   -0.594362
    11  C    0.315499
    12  C    0.096863
    13  C   -0.458108
    14  C   -0.591849
    15  H    0.163243
    16  H    0.164429
    17  H    0.166618
    18  N    0.029152
    19  N   -0.117194
    20  O   -0.345830
    21  O   -0.332799
    22  O   -0.360311
    23  O   -0.285672
    24  C   -0.192743
    25  H    0.189797
    26  H    0.182191
    27  H    0.179745
    28  C   -0.214317
    29  H    0.184502
    30  H    0.181612
    31  H    0.179248
    32  C   -0.125565
    33  C   -0.207243
    34  S   -0.707950
    35  C   -0.418015
    36  H    0.157844
    37  C    0.605779
    38  O   -0.160594
    39  C    0.803260
    40  C   -0.241551
    41  C   -0.031183
    42  S   -0.225147
    43  H    0.179999
    44  H    0.165206
    45  H    0.164543
    46  C   -0.532933
    47  O   -0.143222
    48  C   -0.325173
    49  H    0.164971
    50  C   -0.253569
    51  H    0.194026
    52  H    0.164056
    53  H    0.177219
    54  H    0.165625
 Sum of Mulliken charges =  -0.00000

 Dipole moment (field-independent basis, Debye):
    X=              7.0645    Y=             -1.5503    Z=             -1.2794  Tot=              7.3449
 Quadrupole moment (field-independent basis, Debye-Ang):
   XX=           -202.6623   YY=           -211.7894   ZZ=           -225.3258
   XY=             16.2998   XZ=            -13.7014   YZ=             -6.1062

 Normal termination of Gaussian 16 at Thu Oct 28 04:39:05 2021.
