 Gaussian 16, Revision C.01,
 Gaussian 16:  ES64L-G16RevC.01  3-Jul-2019

 ---------------------------------------------------------------
 # opt=modredundant b3lyp/6-311+g(d,p) scrf=(pcm, solvent=water)
 ---------------------------------------------------------------

 ----------
 NDI_55.pdb
 ----------
 Symbolic Z-matrix:
 Charge =  0 Multiplicity = 1

 SCF Done:  E(RB3LYP) =  -2359.35340676     A.U. after   17 cycles
 SCF Done:  E(RB3LYP) =  -2359.35726815     A.U. after   15 cycles
 SCF Done:  E(RB3LYP) =  -2359.35796158     A.U. after   15 cycles
 SCF Done:  E(RB3LYP) =  -2359.35855471     A.U. after   15 cycles
 SCF Done:  E(RB3LYP) =  -2359.35891418     A.U. after   13 cycles
 SCF Done:  E(RB3LYP) =  -2359.35924331     A.U. after   16 cycles
 SCF Done:  E(RB3LYP) =  -2359.35935243     A.U. after   13 cycles
 SCF Done:  E(RB3LYP) =  -2359.35942383     A.U. after   12 cycles
 SCF Done:  E(RB3LYP) =  -2359.35946136     A.U. after   12 cycles
 SCF Done:  E(RB3LYP) =  -2359.35947889     A.U. after   11 cycles
 SCF Done:  E(RB3LYP) =  -2359.35954465     A.U. after   11 cycles
 SCF Done:  E(RB3LYP) =  -2359.35954767     A.U. after   10 cycles
 SCF Done:  E(RB3LYP) =  -2359.35954973     A.U. after    9 cycles
 SCF Done:  E(RB3LYP) =  -2359.35955134     A.U. after    9 cycles
 SCF Done:  E(RB3LYP) =  -2359.35955288     A.U. after   10 cycles
 SCF Done:  E(RB3LYP) =  -2359.35955402     A.U. after   10 cycles
 SCF Done:  E(RB3LYP) =  -2359.35955479     A.U. after   10 cycles
 SCF Done:  E(RB3LYP) =  -2359.35955505     A.U. after    8 cycles
 SCF Done:  E(RB3LYP) =  -2359.35955514     A.U. after    8 cycles
 SCF Done:  E(RB3LYP) =  -2359.35955519     A.U. after    7 cycles
 Optimization completed.
    -- Stationary point found.

                         Standard orientation:
 ---------------------------------------------------------------------
 Center     Atomic      Atomic             Coordinates (Angstroms)
 Number     Number       Type             X           Y           Z
 ---------------------------------------------------------------------
      1          6           0       -2.836169   -2.939664    0.498813
      2          6           0       -2.396349   -1.541945    0.261597
      3          6           0       -3.352497   -0.521030    0.062985
      4          6           0       -4.732677   -0.811627    0.097422
      5          6           0       -5.198560   -2.201741    0.338623
      6          6           0       -1.056139   -1.237026    0.268935
      7          6           0       -2.903750    0.804885   -0.181159
      8          6           0       -1.512120    1.096920   -0.223831
      9          6           0       -0.579787    0.086527    0.071724
     10          6           0       -1.101154    2.451696   -0.684522
     11          6           0       -3.465576    3.214003   -0.632507
     12          6           0       -3.877404    1.814668   -0.377142
     13          6           0       -5.228262    1.509872   -0.328921
     14          6           0       -5.660367    0.198153   -0.095280
     15          1           0       -6.716253   -0.035510   -0.064974
     16          1           0       -5.948423    2.303883   -0.476451
     17          1           0       -0.345575   -2.027464    0.472256
     18          7           0       -2.096644    3.441215   -0.755672
     19          7           0       -4.211567   -3.180518    0.516729
     20          8           0       -2.049033   -3.857010    0.672848
     21          8           0       -6.384351   -2.488346    0.378995
     22          8           0       -4.274994    4.123248   -0.750000
     23          8           0        0.034894    2.737255   -1.023254
     24          6           0       -1.645147    4.796007   -1.109129
     25          1           0       -0.763753    5.043243   -0.521788
     26          1           0       -1.390882    4.847637   -2.169261
     27          1           0       -2.452608    5.487403   -0.892473
     28          6           0       -4.628190   -4.571862    0.752333
     29          1           0       -4.199331   -5.216851   -0.013872
     30          1           0       -4.276978   -4.901217    1.730234
     31          1           0       -5.711174   -4.610974    0.712417
     32          6           0        0.860152    0.304660    0.242184
     33          6           0        1.488712    1.175982    1.098347
     34         16           0        2.014440   -0.744984   -0.545779
     35          6           0        2.894741    1.021573    1.111445
     36          1           0        0.951940    1.893409    1.701127
     37          6           0        3.370968    0.023748    0.262945
     38          8           0        3.775742    1.733359    1.862230
     39          6           0        4.736755   -0.356239    0.017743
     40          6           0        3.262387    2.796290    2.673934
     41          6           0        5.204090   -1.378458   -0.801618
     42         16           0        6.107920    0.471372    0.753565
     43          1           0        4.127652    3.244763    3.157263
     44          1           0        2.754866    3.544956    2.059838
     45          1           0        2.577778    2.410830    3.434214
     46          6           0        6.623005   -1.495038   -0.838197
     47          8           0        4.315677   -2.151985   -1.477266
     48          6           0        7.235434   -0.563055   -0.048813
     49          1           0        7.161853   -2.230772   -1.417052
     50          6           0        4.828429   -3.200828   -2.308266
     51          1           0        8.293498   -0.426019    0.114606
     52          1           0        5.393246   -3.925723   -1.716394
     53          1           0        3.957782   -3.685152   -2.745031
     54          1           0        5.459468   -2.794517   -3.102943
 ---------------------------------------------------------------------

 The electronic state is 1-A.
 Alpha  occ. eigenvalues --  -88.88805 -88.88467 -19.16924 -19.16843 -19.12963
 Alpha  occ. eigenvalues --  -19.12944 -19.12531 -19.12456 -14.38933 -14.38546
 Alpha  occ. eigenvalues --  -10.31539 -10.31380 -10.31202 -10.31060 -10.24795
 Alpha  occ. eigenvalues --  -10.24750 -10.23707 -10.22868 -10.22790 -10.22779
 Alpha  occ. eigenvalues --  -10.22734 -10.22586 -10.22390 -10.22383 -10.22358
 Alpha  occ. eigenvalues --  -10.22202 -10.22196 -10.21834 -10.21583 -10.21201
 Alpha  occ. eigenvalues --  -10.21141 -10.20934 -10.20804 -10.20781 -10.19014
 Alpha  occ. eigenvalues --  -10.18713  -7.97361  -7.97027  -5.93679  -5.93336
 Alpha  occ. eigenvalues --   -5.93293  -5.92950  -5.92908  -5.92595  -1.09054
 Alpha  occ. eigenvalues --   -1.08741  -1.08299  -1.08207  -1.07246  -1.06876
 Alpha  occ. eigenvalues --   -0.96573  -0.96162  -0.92590  -0.90485  -0.88834
 Alpha  occ. eigenvalues --   -0.86787  -0.84420  -0.80535  -0.78602  -0.77650
 Alpha  occ. eigenvalues --   -0.76246  -0.75319  -0.75168  -0.73187  -0.72548
 Alpha  occ. eigenvalues --   -0.71908  -0.70078  -0.68861  -0.67469  -0.66053
 Alpha  occ. eigenvalues --   -0.65652  -0.64950  -0.61208  -0.59857  -0.58694
 Alpha  occ. eigenvalues --   -0.57569  -0.56650  -0.55919  -0.55544  -0.54621
 Alpha  occ. eigenvalues --   -0.53640  -0.51868  -0.50415  -0.50133  -0.49993
 Alpha  occ. eigenvalues --   -0.49553  -0.49211  -0.48648  -0.48226  -0.47871
 Alpha  occ. eigenvalues --   -0.47846  -0.47401  -0.47002  -0.46661  -0.45881
 Alpha  occ. eigenvalues --   -0.45562  -0.45234  -0.45069  -0.44214  -0.43896
 Alpha  occ. eigenvalues --   -0.42882  -0.42758  -0.42260  -0.42151  -0.41894
 Alpha  occ. eigenvalues --   -0.41623  -0.41466  -0.41190  -0.40692  -0.40001
 Alpha  occ. eigenvalues --   -0.39803  -0.39245  -0.38934  -0.37724  -0.37629
 Alpha  occ. eigenvalues --   -0.36268  -0.35808  -0.34318  -0.33925  -0.33796
 Alpha  occ. eigenvalues --   -0.33594  -0.32314  -0.31627  -0.30808  -0.30010
 Alpha  occ. eigenvalues --   -0.29761  -0.29351  -0.29288  -0.28560  -0.27609
 Alpha  occ. eigenvalues --   -0.26290  -0.25046  -0.24848  -0.19534
 Alpha virt. eigenvalues --   -0.13359  -0.07293  -0.06438  -0.04943  -0.04353
 Alpha virt. eigenvalues --   -0.00747  -0.00568   0.00088   0.00471   0.00497
 Alpha virt. eigenvalues --    0.00664   0.01027   0.01113   0.01460   0.02159

 Mulliken charges:
               1
     1  C    0.456287
     2  C   -0.093378
     3  C    0.113974
     4  C    0.231188
     5  C    0.302398
     6  C   -0.454468
     7  C    0.181949
     8  C    0.285027
     9  C    0.490879
    10  C   -0.440823
    11  C    0.273875
    12  C    0.135519
    13  C   -0.474826
    14  C   -0.622049
    15  H    0.166472
    16  H    0.166431
    17  H    0.175014
    18  N   -0.052790
    19  N   -0.112065
    20  O   -0.344607
    21  O   -0.332671
    22  O   -0.347832
    23  O   -0.229330
    24  C   -0.203856
    25  H    0.180627
    26  H    0.190800
    27  H    0.180331
    28  C   -0.214455
    29  H    0.182439
    30  H    0.185168
    31  H    0.180325
    32  C    0.150716
    33  C   -0.486159
    34  S   -0.519987
    35  C   -0.226189
    36  H    0.159172
    37  C    0.685070
    38  O   -0.163957
    39  C    0.711922
    40  C   -0.239879
    41  C   -0.017467
    42  S   -0.242393
    43  H    0.176728
    44  H    0.165810
    45  H    0.162567
    46  C   -0.587702
    47  O   -0.162046
    48  C   -0.320169
    49  H    0.162245
    50  C   -0.251774
    51  H    0.190033
    52  H    0.161480
    53  H    0.174344
    54  H    0.162084
 Sum of Mulliken charges =  -0.00000

 Dipole moment (field-independent basis, Debye):
    X=              3.3849    Y=             -0.4073    Z=              0.8061  Tot=              3.5033
 Quadrupole moment (field-independent basis, Debye-Ang):
   XX=           -215.4949   YY=           -217.7246   ZZ=           -211.1718
   XY=             -6.3931   XZ=             -6.3857   YZ=             20.5114

 Normal termination of Gaussian 16 at Wed Oct 27 22:13:45 2021.
