 Gaussian 16, Revision C.01,
 Gaussian 16:  ES64L-G16RevC.01  3-Jul-2019

 ---------------------------------------------------------------
 # opt=modredundant b3lyp/6-311+g(d,p) scrf=(pcm, solvent=water)
 ---------------------------------------------------------------

 ----------
 NDI_30.pdb
 ----------
 Symbolic Z-matrix:
 Charge =  0 Multiplicity = 1

 SCF Done:  E(RB3LYP) =  -2359.34896042     A.U. after   17 cycles
 SCF Done:  E(RB3LYP) =  -2359.33940748     A.U. after   17 cycles
 SCF Done:  E(RB3LYP) =  -2359.35011733     A.U. after   15 cycles
 SCF Done:  E(RB3LYP) =  -2359.35517806     A.U. after   16 cycles
 SCF Done:  E(RB3LYP) =  -2359.35615103     A.U. after   15 cycles
 SCF Done:  E(RB3LYP) =  -2359.35733410     A.U. after   15 cycles
 SCF Done:  E(RB3LYP) =  -2359.35741363     A.U. after   17 cycles
 SCF Done:  E(RB3LYP) =  -2359.35900921     A.U. after   16 cycles
 SCF Done:  E(RB3LYP) =  -2359.35923135     A.U. after   14 cycles
 SCF Done:  E(RB3LYP) =  -2359.35938830     A.U. after   14 cycles
 SCF Done:  E(RB3LYP) =  -2359.35956061     A.U. after   12 cycles
 SCF Done:  E(RB3LYP) =  -2359.35958441     A.U. after   11 cycles
 SCF Done:  E(RB3LYP) =  -2359.35958914     A.U. after   11 cycles
 SCF Done:  E(RB3LYP) =  -2359.35959162     A.U. after   10 cycles
 SCF Done:  E(RB3LYP) =  -2359.35959355     A.U. after   10 cycles
 SCF Done:  E(RB3LYP) =  -2359.35959460     A.U. after    9 cycles
 SCF Done:  E(RB3LYP) =  -2359.35959516     A.U. after   10 cycles
 SCF Done:  E(RB3LYP) =  -2359.35959549     A.U. after    9 cycles
 SCF Done:  E(RB3LYP) =  -2359.35959556     A.U. after    8 cycles
 SCF Done:  E(RB3LYP) =  -2359.35959557     A.U. after    8 cycles
 Optimization completed.
    -- Stationary point found.

                         Standard orientation:
 ---------------------------------------------------------------------
 Center     Atomic      Atomic             Coordinates (Angstroms)
 Number     Number       Type             X           Y           Z
 ---------------------------------------------------------------------
      1          6           0       -2.699031   -3.000327    0.300660
      2          6           0       -2.323582   -1.574449    0.132976
      3          6           0       -3.324856   -0.578327    0.065443
      4          6           0       -4.687325   -0.921554    0.169472
      5          6           0       -5.089381   -2.340821    0.344020
      6          6           0       -0.999269   -1.221740    0.089237
      7          6           0       -2.931149    0.774765   -0.119653
      8          6           0       -1.554243    1.121506   -0.233895
      9          6           0       -0.563643    0.128015   -0.051289
     10          6           0       -1.241227    2.498188   -0.695722
     11          6           0       -3.606736    3.181882   -0.377042
     12          6           0       -3.950783    1.756706   -0.184568
     13          6           0       -5.286196    1.400190   -0.064510
     14          6           0       -5.660778    0.063853    0.108163
     15          1           0       -6.703899   -0.210065    0.192689
     16          1           0       -6.037956    2.177213   -0.109792
     17          1           0       -0.263889   -2.006247    0.211674
     18          7           0       -2.262914    3.461343   -0.606922
     19          7           0       -4.061430   -3.293032    0.387538
     20          8           0       -1.872157   -3.897444    0.361341
     21          8           0       -6.259613   -2.674312    0.443074
     22          8           0       -4.448578    4.070563   -0.363890
     23          8           0       -0.166795    2.830833   -1.171025
     24          6           0       -1.890627    4.846319   -0.933227
     25          1           0       -0.924273    5.068565   -0.487618
     26          1           0       -1.822210    4.980364   -2.014593
     27          1           0       -2.655341    5.504307   -0.533330
     28          6           0       -4.416189   -4.711789    0.548412
     29          1           0       -4.001310   -5.287521   -0.278151
     30          1           0       -4.007436   -5.091384    1.485029
     31          1           0       -5.497712   -4.790454    0.555232
     32          6           0        0.861733    0.369748    0.123147
     33          6           0        1.507594    1.449916    0.687739
     34         16           0        2.026167   -0.849577   -0.373181
     35          6           0        2.906752    1.302997    0.735176
     36          1           0        0.985692    2.310547    1.073797
     37          6           0        3.380444    0.107406    0.184181
     38          8           0        3.794876    2.187252    1.253898
     39          6           0        4.742620   -0.324034    0.053268
     40          6           0        3.289063    3.423741    1.772917
     41          6           0        5.208406   -1.523208   -0.481907
     42         16           0        6.115217    0.655939    0.567365
     43          1           0        4.159894    3.982010    2.109164
     44          1           0        2.768060    3.987132    0.994426
     45          1           0        2.618673    3.245536    2.617770
     46          6           0        6.625634   -1.650865   -0.478444
     47          8           0        4.320054   -2.434633   -0.946164
     48          6           0        7.237695   -0.552306    0.056821
     49          1           0        7.163942   -2.509577   -0.851637
     50          6           0        4.828617   -3.659618   -1.491989
     51          1           0        8.296011   -0.382906    0.185062
     52          1           0        5.390079   -4.216593   -0.737850
     53          1           0        3.955494   -4.232589   -1.795838
     54          1           0        5.460918   -3.463561   -2.361482
 ---------------------------------------------------------------------

 The electronic state is 1-A.
 Alpha  occ. eigenvalues --  -88.89049 -88.88713 -19.17255 -19.17111 -19.12883
 Alpha  occ. eigenvalues --  -19.12857 -19.12281 -19.12194 -14.38859 -14.38347
 Alpha  occ. eigenvalues --  -10.31448 -10.31290 -10.30975 -10.30781 -10.25175
 Alpha  occ. eigenvalues --  -10.25161 -10.23767 -10.23033 -10.22927 -10.22895
 Alpha  occ. eigenvalues --  -10.22708 -10.22410 -10.22362 -10.22335 -10.22200
 Alpha  occ. eigenvalues --  -10.22165 -10.22120 -10.21907 -10.21528 -10.21136
 Alpha  occ. eigenvalues --  -10.20957 -10.20898 -10.20858 -10.20721 -10.19286
 Alpha  occ. eigenvalues --  -10.18923  -7.97613  -7.97270  -5.93928  -5.93580
 Alpha  occ. eigenvalues --   -5.93542  -5.93192  -5.93163  -5.92837  -1.08967
 Alpha  occ. eigenvalues --   -1.08658  -1.08542  -1.08497  -1.07156  -1.06603
 Alpha  occ. eigenvalues --   -0.96484  -0.95964  -0.92404  -0.90735  -0.89038
 Alpha  occ. eigenvalues --   -0.86683  -0.84233  -0.80611  -0.78481  -0.77827
 Alpha  occ. eigenvalues --   -0.76432  -0.75459  -0.75207  -0.73378  -0.72477
 Alpha  occ. eigenvalues --   -0.71926  -0.70241  -0.68949  -0.67346  -0.65909
 Alpha  occ. eigenvalues --   -0.65609  -0.64819  -0.61348  -0.60025  -0.58695
 Alpha  occ. eigenvalues --   -0.57466  -0.56771  -0.56185  -0.55450  -0.54897
 Alpha  occ. eigenvalues --   -0.53540  -0.51765  -0.50434  -0.50047  -0.49976
 Alpha  occ. eigenvalues --   -0.49468  -0.49139  -0.48593  -0.48439  -0.48041
 Alpha  occ. eigenvalues --   -0.48016  -0.47216  -0.46943  -0.46548  -0.46015
 Alpha  occ. eigenvalues --   -0.45443  -0.45366  -0.44944  -0.44084  -0.43750
 Alpha  occ. eigenvalues --   -0.42907  -0.42742  -0.42354  -0.42196  -0.41900
 Alpha  occ. eigenvalues --   -0.41865  -0.41354  -0.41114  -0.40648  -0.40041
 Alpha  occ. eigenvalues --   -0.39722  -0.39210  -0.39152  -0.37953  -0.37515
 Alpha  occ. eigenvalues --   -0.36490  -0.36154  -0.34430  -0.34142  -0.33886
 Alpha  occ. eigenvalues --   -0.33750  -0.32174  -0.31532  -0.30797  -0.30059
 Alpha  occ. eigenvalues --   -0.29736  -0.29298  -0.29146  -0.28519  -0.27478
 Alpha  occ. eigenvalues --   -0.26191  -0.25168  -0.24964  -0.19709
 Alpha virt. eigenvalues --   -0.13267  -0.07827  -0.06509  -0.04777  -0.03926
 Alpha virt. eigenvalues --   -0.00661  -0.00574   0.00136   0.00338   0.00467
 Alpha virt. eigenvalues --    0.00753   0.01077   0.01355   0.01526   0.02040

 Mulliken charges:
               1
     1  C    0.391665
     2  C   -0.095601
     3  C    0.179855
     4  C    0.224336
     5  C    0.296326
     6  C   -0.077735
     7  C    0.192714
     8  C    0.574425
     9  C    0.271625
    10  C   -0.703146
    11  C    0.289384
    12  C    0.118789
    13  C   -0.491946
    14  C   -0.626533
    15  H    0.164733
    16  H    0.165159
    17  H    0.169376
    18  N    0.007642
    19  N   -0.108754
    20  O   -0.350587
    21  O   -0.334098
    22  O   -0.357112
    23  O   -0.274188
    24  C   -0.192715
    25  H    0.179780
    26  H    0.190108
    27  H    0.179293
    28  C   -0.216198
    29  H    0.181532
    30  H    0.185448
    31  H    0.179789
    32  C    0.043366
    33  C   -0.579137
    34  S   -0.633324
    35  C   -0.292757
    36  H    0.167980
    37  C    0.732924
    38  O   -0.152478
    39  C    0.820196
    40  C   -0.245426
    41  C    0.026769
    42  S   -0.222877
    43  H    0.178944
    44  H    0.166873
    45  H    0.164839
    46  C   -0.628482
    47  O   -0.155104
    48  C   -0.312544
    49  H    0.164128
    50  C   -0.253404
    51  H    0.192690
    52  H    0.163716
    53  H    0.176189
    54  H    0.163552
 Sum of Mulliken charges =  -0.00000

 Dipole moment (field-independent basis, Debye):
    X=              5.9036    Y=             -0.7310    Z=              0.9936  Tot=              6.0311
 Quadrupole moment (field-independent basis, Debye-Ang):
   XX=           -211.5145   YY=           -210.5790   ZZ=           -219.3514
   XY=             -7.1994   XZ=             -1.8410   YZ=             16.3993

 Normal termination of Gaussian 16 at Wed Oct 27 21:35:12 2021.
