 Gaussian 16, Revision C.01,
 Gaussian 16:  ES64L-G16RevC.01  3-Jul-2019

 ---------------------------------------------------------------
 # opt=modredundant b3lyp/6-311+g(d,p) scrf=(pcm, solvent=water)
 ---------------------------------------------------------------

 ----------
 NDI_35.pdb
 ----------
 Symbolic Z-matrix:
 Charge =  0 Multiplicity = 1

 SCF Done:  E(RB3LYP) =  -2359.35126050     A.U. after   17 cycles
 SCF Done:  E(RB3LYP) =  -2359.34263847     A.U. after   17 cycles
 SCF Done:  E(RB3LYP) =  -2359.35205353     A.U. after   14 cycles
 SCF Done:  E(RB3LYP) =  -2359.35647230     A.U. after   16 cycles
 SCF Done:  E(RB3LYP) =  -2359.35741839     A.U. after   15 cycles
 SCF Done:  E(RB3LYP) =  -2359.35863880     A.U. after   16 cycles
 SCF Done:  E(RB3LYP) =  -2359.35909730     A.U. after   16 cycles
 SCF Done:  E(RB3LYP) =  -2359.35949889     A.U. after   13 cycles
 SCF Done:  E(RB3LYP) =  -2359.35961989     A.U. after   14 cycles
 SCF Done:  E(RB3LYP) =  -2359.35969376     A.U. after   14 cycles
 SCF Done:  E(RB3LYP) =  -2359.35982930     A.U. after   11 cycles
 SCF Done:  E(RB3LYP) =  -2359.35983347     A.U. after   11 cycles
 SCF Done:  E(RB3LYP) =  -2359.35983799     A.U. after   11 cycles
 SCF Done:  E(RB3LYP) =  -2359.35984079     A.U. after   10 cycles
 SCF Done:  E(RB3LYP) =  -2359.35984220     A.U. after   10 cycles
 SCF Done:  E(RB3LYP) =  -2359.35984370     A.U. after   10 cycles
 SCF Done:  E(RB3LYP) =  -2359.35984415     A.U. after    9 cycles
 SCF Done:  E(RB3LYP) =  -2359.35984432     A.U. after   10 cycles
 SCF Done:  E(RB3LYP) =  -2359.35984435     A.U. after    8 cycles
 SCF Done:  E(RB3LYP) =  -2359.35984434     A.U. after    7 cycles
 Optimization completed.
    -- Stationary point found.

                         Standard orientation:
 ---------------------------------------------------------------------
 Center     Atomic      Atomic             Coordinates (Angstroms)
 Number     Number       Type             X           Y           Z
 ---------------------------------------------------------------------
      1          6           0       -2.728338   -2.989633    0.346969
      2          6           0       -2.338933   -1.569601    0.161794
      3          6           0       -3.331067   -0.566854    0.066214
      4          6           0       -4.697881   -0.897831    0.157219
      5          6           0       -5.113725   -2.310985    0.348662
      6          6           0       -1.010766   -1.228019    0.126960
      7          6           0       -2.925447    0.780586   -0.133635
      8          6           0       -1.544814    1.114614   -0.234892
      9          6           0       -0.566403    0.116355   -0.027327
     10          6           0       -1.210476    2.485422   -0.701579
     11          6           0       -3.577048    3.189210   -0.435157
     12          6           0       -3.935863    1.769497   -0.227220
     13          6           0       -5.275253    1.425034   -0.120982
     14          6           0       -5.662187    0.093897    0.067081
     15          1           0       -6.708495   -0.170725    0.141319
     16          1           0       -6.020591    2.206596   -0.188697
     17          1           0       -0.280372   -2.014079    0.267812
     18          7           0       -2.227056    3.456203   -0.644025
     19          7           0       -4.094067   -3.270157    0.421471
     20          8           0       -1.909654   -3.892201    0.431960
     21          8           0       -6.287830   -2.633597    0.436866
     22          8           0       -4.412328    4.083771   -0.450215
     23          8           0       -0.122832    2.805424   -1.154050
     24          6           0       -1.838790    4.835219   -0.977032
     25          1           0       -0.879440    5.055041   -0.515389
     26          1           0       -1.749131    4.957802   -2.058196
     27          1           0       -2.606057    5.502708   -0.598329
     28          6           0       -4.462238   -4.683301    0.600602
     29          1           0       -4.044970   -5.275188   -0.213286
     30          1           0       -4.064996   -5.051712    1.546554
     31          1           0       -5.544412   -4.752791    0.598803
     32          6           0        0.861417    0.354236    0.143471
     33          6           0        1.501951    1.404004    0.765856
     34         16           0        2.025263   -0.839518   -0.405896
     35          6           0        2.902368    1.256991    0.808455
     36          1           0        0.975299    2.242697    1.193021
     37          6           0        3.378413    0.091292    0.200457
     38          8           0        3.787770    2.116105    1.373258
     39          6           0        4.741987   -0.330540    0.047017
     40          6           0        3.279297    3.328804    1.943058
     41          6           0        5.209725   -1.503844   -0.540147
     42         16           0        6.113198    0.631287    0.597497
     43          1           0        4.148276    3.871339    2.308666
     44          1           0        2.763025    3.926402    1.187179
     45          1           0        2.604030    3.114285    2.775534
     46          6           0        6.627567   -1.626852   -0.547046
     47          8           0        4.322561   -2.398022   -1.040465
     48          6           0        7.238284   -0.550191    0.032226
     49          1           0        7.167171   -2.467319   -0.958068
     50          6           0        4.833547   -3.599232   -1.634234
     51          1           0        8.296425   -0.382987    0.164582
     52          1           0        5.396765   -4.184399   -0.902984
     53          1           0        3.961627   -4.161936   -1.960047
     54          1           0        5.464899   -3.367882   -2.495757
 ---------------------------------------------------------------------

 The electronic state is 1-A.
 Alpha  occ. eigenvalues --  -88.89013 -88.88669 -19.17197 -19.17065 -19.12895
 Alpha  occ. eigenvalues --  -19.12870 -19.12321 -19.12233 -14.38870 -14.38377
 Alpha  occ. eigenvalues --  -10.31461 -10.31304 -10.31015 -10.30824 -10.25101
 Alpha  occ. eigenvalues --  -10.25100 -10.23743 -10.22923 -10.22903 -10.22878
 Alpha  occ. eigenvalues --  -10.22732 -10.22419 -10.22378 -10.22361 -10.22235
 Alpha  occ. eigenvalues --  -10.22197 -10.22070 -10.21955 -10.21533 -10.21077
 Alpha  occ. eigenvalues --  -10.20998 -10.20906 -10.20903 -10.20731 -10.19249
 Alpha  occ. eigenvalues --  -10.18886  -7.97575  -7.97227  -5.93890  -5.93536
 Alpha  occ. eigenvalues --   -5.93504  -5.93149  -5.93125  -5.92794  -1.08980
 Alpha  occ. eigenvalues --   -1.08594  -1.08537  -1.08479  -1.07169  -1.06646
 Alpha  occ. eigenvalues --   -0.96497  -0.95993  -0.92433  -0.90695  -0.89003
 Alpha  occ. eigenvalues --   -0.86701  -0.84263  -0.80596  -0.78497  -0.77797
 Alpha  occ. eigenvalues --   -0.76402  -0.75413  -0.75224  -0.73344  -0.72488
 Alpha  occ. eigenvalues --   -0.71921  -0.70214  -0.68935  -0.67363  -0.65932
 Alpha  occ. eigenvalues --   -0.65612  -0.64841  -0.61323  -0.59993  -0.58692
 Alpha  occ. eigenvalues --   -0.57480  -0.56752  -0.56137  -0.55464  -0.54849
 Alpha  occ. eigenvalues --   -0.53556  -0.51779  -0.50425  -0.50052  -0.49988
 Alpha  occ. eigenvalues --   -0.49484  -0.49149  -0.48599  -0.48401  -0.48007
 Alpha  occ. eigenvalues --   -0.47991  -0.47240  -0.46956  -0.46558  -0.45988
 Alpha  occ. eigenvalues --   -0.45470  -0.45344  -0.44966  -0.44102  -0.43785
 Alpha  occ. eigenvalues --   -0.42896  -0.42732  -0.42319  -0.42198  -0.41894
 Alpha  occ. eigenvalues --   -0.41832  -0.41386  -0.41122  -0.40651  -0.40027
 Alpha  occ. eigenvalues --   -0.39745  -0.39213  -0.39124  -0.37909  -0.37542
 Alpha  occ. eigenvalues --   -0.36455  -0.36085  -0.34413  -0.34102  -0.33886
 Alpha  occ. eigenvalues --   -0.33728  -0.32194  -0.31548  -0.30796  -0.30044
 Alpha  occ. eigenvalues --   -0.29742  -0.29299  -0.29177  -0.28525  -0.27499
 Alpha  occ. eigenvalues --   -0.26197  -0.25145  -0.24948  -0.19679
 Alpha virt. eigenvalues --   -0.13283  -0.07720  -0.06511  -0.04803  -0.03987
 Alpha virt. eigenvalues --   -0.00686  -0.00573   0.00129   0.00360   0.00470
 Alpha virt. eigenvalues --    0.00728   0.01079   0.01315   0.01516   0.02063

 Mulliken charges:
               1
     1  C    0.408637
     2  C   -0.102807
     3  C    0.157386
     4  C    0.230161
     5  C    0.297252
     6  C   -0.183775
     7  C    0.180652
     8  C    0.526006
     9  C    0.320565
    10  C   -0.621514
    11  C    0.288776
    12  C    0.122183
    13  C   -0.487492
    14  C   -0.624992
    15  H    0.165062
    16  H    0.165373
    17  H    0.171672
    18  N   -0.001981
    19  N   -0.109271
    20  O   -0.349614
    21  O   -0.333838
    22  O   -0.355508
    23  O   -0.265468
    24  C   -0.195102
    25  H    0.179860
    26  H    0.190350
    27  H    0.179367
    28  C   -0.215693
    29  H    0.181720
    30  H    0.185354
    31  H    0.179936
    32  C    0.102834
    33  C   -0.594292
    34  S   -0.610475
    35  C   -0.294411
    36  H    0.166150
    37  C    0.732939
    38  O   -0.154493
    39  C    0.797490
    40  C   -0.244702
    41  C    0.015364
    42  S   -0.227786
    43  H    0.178528
    44  H    0.166660
    45  H    0.164516
    46  C   -0.620541
    47  O   -0.155886
    48  C   -0.310339
    49  H    0.163745
    50  C   -0.253266
    51  H    0.192172
    52  H    0.163381
    53  H    0.175857
    54  H    0.163300
 Sum of Mulliken charges =  -0.00000

 Dipole moment (field-independent basis, Debye):
    X=              5.4604    Y=             -0.6790    Z=              0.9801  Tot=              5.5891
 Quadrupole moment (field-independent basis, Debye-Ang):
   XX=           -212.1798   YY=           -211.6971   ZZ=           -218.0876
   XY=             -7.1109   XZ=             -2.7663   YZ=             17.4883

 Normal termination of Gaussian 16 at Wed Oct 27 22:58:49 2021.
