 Gaussian 16, Revision C.01,
 Gaussian 16:  ES64L-G16RevC.01  3-Jul-2019

 ---------------------------------------------------------------
 # opt=modredundant b3lyp/6-311+g(d,p) scrf=(pcm, solvent=water)
 ---------------------------------------------------------------

 ----------
 NDI_75.pdb
 ----------
 Symbolic Z-matrix:
 Charge =  0 Multiplicity = 1

 SCF Done:  E(RB3LYP) =  -2359.35218442     A.U. after   17 cycles
 SCF Done:  E(RB3LYP) =  -2359.35621786     A.U. after   15 cycles
 SCF Done:  E(RB3LYP) =  -2359.35745757     A.U. after   15 cycles
 SCF Done:  E(RB3LYP) =  -2359.35781457     A.U. after   14 cycles
 SCF Done:  E(RB3LYP) =  -2359.35799168     A.U. after   12 cycles
 SCF Done:  E(RB3LYP) =  -2359.35807043     A.U. after   11 cycles
 SCF Done:  E(RB3LYP) =  -2359.35810659     A.U. after   11 cycles
 SCF Done:  E(RB3LYP) =  -2359.35812128     A.U. after   11 cycles
 SCF Done:  E(RB3LYP) =  -2359.35813018     A.U. after   10 cycles
 SCF Done:  E(RB3LYP) =  -2359.35813922     A.U. after   11 cycles
 SCF Done:  E(RB3LYP) =  -2359.35818382     A.U. after    9 cycles
 SCF Done:  E(RB3LYP) =  -2359.35818512     A.U. after    9 cycles
 SCF Done:  E(RB3LYP) =  -2359.35818657     A.U. after    9 cycles
 SCF Done:  E(RB3LYP) =  -2359.35818730     A.U. after    9 cycles
 SCF Done:  E(RB3LYP) =  -2359.35818839     A.U. after    9 cycles
 SCF Done:  E(RB3LYP) =  -2359.35818920     A.U. after   10 cycles
 SCF Done:  E(RB3LYP) =  -2359.35818999     A.U. after    9 cycles
 SCF Done:  E(RB3LYP) =  -2359.35819018     A.U. after    9 cycles
 SCF Done:  E(RB3LYP) =  -2359.35819027     A.U. after    8 cycles
 SCF Done:  E(RB3LYP) =  -2359.35819028     A.U. after    8 cycles
 Optimization completed.
    -- Stationary point found.

                         Standard orientation:
 ---------------------------------------------------------------------
 Center     Atomic      Atomic             Coordinates (Angstroms)
 Number     Number       Type             X           Y           Z
 ---------------------------------------------------------------------
      1          6           0       -3.020771   -2.877390    0.535090
      2          6           0       -2.497688   -1.505275    0.315658
      3          6           0       -3.384511   -0.445487    0.029523
      4          6           0       -4.776835   -0.672205   -0.045199
      5          6           0       -5.325682   -2.035863    0.174381
      6          6           0       -1.145770   -1.263201    0.410510
      7          6           0       -2.859603    0.856502   -0.187418
      8          6           0       -1.457929    1.083920   -0.117259
      9          6           0       -0.600484    0.031572    0.226366
     10          6           0       -0.943835    2.438797   -0.470702
     11          6           0       -3.269026    3.287815   -0.691585
     12          6           0       -3.764927    1.908683   -0.467775
     13          6           0       -5.126155    1.665690   -0.531466
     14          6           0       -5.635514    0.375757   -0.323002
     15          1           0       -6.700266    0.191526   -0.377111
     16          1           0       -5.795492    2.488702   -0.744458
     17          1           0       -0.482299   -2.081491    0.658088
     18          7           0       -1.886221    3.461499   -0.660434
     19          7           0       -4.403359   -3.054345    0.448328
     20          8           0       -2.293409   -3.826324    0.782077
     21          8           0       -6.522695   -2.266951    0.119465
     22          8           0       -4.024033    4.225138   -0.902382
     23          8           0        0.238643    2.693227   -0.616145
     24          6           0       -1.342648    4.800780   -0.936648
     25          1           0       -0.583666    5.040665   -0.194729
     26          1           0       -0.889355    4.826370   -1.928647
     27          1           0       -2.159861    5.512171   -0.886786
     28          6           0       -4.902096   -4.420996    0.669189
     29          1           0       -4.464062   -5.094697   -0.066771
     30          1           0       -4.623385   -4.756972    1.667720
     31          1           0       -5.981612   -4.406453    0.567385
     32          6           0        0.855768    0.172317    0.435321
     33          6           0        1.495373    0.723528    1.512176
     34         16           0        1.982034   -0.585915   -0.657352
     35          6           0        2.907336    0.569846    1.451159
     36          1           0        0.970405    1.221751    2.314110
     37          6           0        3.361577   -0.113586    0.331220
     38          8           0        3.801993    1.016453    2.374155
     39          6           0        4.722186   -0.408015   -0.045842
     40          6           0        3.304814    1.785580    3.475048
     41          6           0        5.168343   -1.121900   -1.150482
     42         16           0        6.110893    0.139257    0.890618
     43          1           0        4.177863    2.061417    4.062765
     44          1           0        2.798702    2.688830    3.123585
     45          1           0        2.623202    1.192286    4.090603
     46          6           0        6.586457   -1.227540   -1.245375
     47          8           0        4.263156   -1.642257   -2.023251
     48          6           0        7.220062   -0.594724   -0.214002
     49          1           0        7.109243   -1.746247   -2.035655
     50          6           0        4.758494   -2.381780   -3.144997
     51          1           0        8.281387   -0.520191   -0.032717
     52          1           0        5.324184   -3.257806   -2.816412
     53          1           0        3.879832   -2.702789   -3.700534
     54          1           0        5.384573   -1.751860   -3.782633
 ---------------------------------------------------------------------

 The electronic state is 1-A.
 Alpha  occ. eigenvalues --  -88.88531 -88.88250 -19.16629 -19.16623 -19.13046
 Alpha  occ. eigenvalues --  -19.13039 -19.12761 -19.12747 -14.39009 -14.38753
 Alpha  occ. eigenvalues --  -10.31634 -10.31474 -10.31436 -10.31310 -10.24464
 Alpha  occ. eigenvalues --  -10.24371 -10.23745 -10.23157 -10.23038 -10.22822
 Alpha  occ. eigenvalues --  -10.22680 -10.22668 -10.22561 -10.22543 -10.22479
 Alpha  occ. eigenvalues --  -10.22025 -10.21797 -10.21659 -10.21581 -10.21442
 Alpha  occ. eigenvalues --  -10.21383 -10.20971 -10.20851 -10.20506 -10.18705
 Alpha  occ. eigenvalues --  -10.18522  -7.97081  -7.96812  -5.93403  -5.93120
 Alpha  occ. eigenvalues --   -5.93016  -5.92735  -5.92624  -5.92381  -1.09144
 Alpha  occ. eigenvalues --   -1.09000  -1.07996  -1.07914  -1.07342  -1.07154
 Alpha  occ. eigenvalues --   -0.96669  -0.96371  -0.92775  -0.90229  -0.88648
 Alpha  occ. eigenvalues --   -0.86873  -0.84602  -0.80485  -0.78748  -0.77493
 Alpha  occ. eigenvalues --   -0.76049  -0.75432  -0.74884  -0.73050  -0.72618
 Alpha  occ. eigenvalues --   -0.71892  -0.69930  -0.68767  -0.67599  -0.66203
 Alpha  occ. eigenvalues --   -0.65730  -0.65073  -0.61084  -0.59741  -0.58678
 Alpha  occ. eigenvalues --   -0.57696  -0.56561  -0.55690  -0.55596  -0.54390
 Alpha  occ. eigenvalues --   -0.53767  -0.51983  -0.50469  -0.50274  -0.50004
 Alpha  occ. eigenvalues --   -0.49518  -0.49290  -0.48720  -0.48076  -0.47776
 Alpha  occ. eigenvalues --   -0.47691  -0.47547  -0.47036  -0.46835  -0.45874
 Alpha  occ. eigenvalues --   -0.45530  -0.45209  -0.45092  -0.44332  -0.43992
 Alpha  occ. eigenvalues --   -0.42904  -0.42873  -0.42415  -0.41983  -0.41825
 Alpha  occ. eigenvalues --   -0.41511  -0.41359  -0.41260  -0.40756  -0.40104
 Alpha  occ. eigenvalues --   -0.39845  -0.39122  -0.38740  -0.37820  -0.37411
 Alpha  occ. eigenvalues --   -0.36032  -0.35645  -0.34192  -0.33743  -0.33612
 Alpha  occ. eigenvalues --   -0.33417  -0.32498  -0.31715  -0.30853  -0.30031
 Alpha  occ. eigenvalues --   -0.29776  -0.29540  -0.29256  -0.28588  -0.27730
 Alpha  occ. eigenvalues --   -0.26496  -0.24931  -0.24677  -0.19362
 Alpha virt. eigenvalues --   -0.13457  -0.07091  -0.06062  -0.05105  -0.04880
 Alpha virt. eigenvalues --   -0.00669  -0.00594   0.00072   0.00504   0.00562
 Alpha virt. eigenvalues --    0.00698   0.00873   0.00912   0.01371   0.02144

 Mulliken charges:
               1
     1  C    0.467059
     2  C   -0.038334
     3  C    0.181448
     4  C    0.206360
     5  C    0.305407
     6  C   -0.506863
     7  C    0.194664
     8  C    0.147519
     9  C    0.584737
    10  C   -0.430388
    11  C    0.251899
    12  C    0.164839
    13  C   -0.485746
    14  C   -0.644262
    15  H    0.167898
    16  H    0.167886
    17  H    0.167705
    18  N   -0.097616
    19  N   -0.113297
    20  O   -0.338336
    21  O   -0.331441
    22  O   -0.339672
    23  O   -0.187350
    24  C   -0.221463
    25  H    0.182104
    26  H    0.191106
    27  H    0.181150
    28  C   -0.214498
    29  H    0.183603
    30  H    0.184591
    31  H    0.180435
    32  C    0.145008
    33  C   -0.496019
    34  S   -0.327952
    35  C   -0.161633
    36  H    0.151920
    37  C    0.454908
    38  O   -0.171157
    39  C    0.708993
    40  C   -0.237342
    41  C   -0.000738
    42  S   -0.252991
    43  H    0.175498
    44  H    0.166002
    45  H    0.160993
    46  C   -0.548909
    47  O   -0.170340
    48  C   -0.349971
    49  H    0.160433
    50  C   -0.248717
    51  H    0.187856
    52  H    0.159355
    53  H    0.173020
    54  H    0.160638
 Sum of Mulliken charges =  -0.00000

 Dipole moment (field-independent basis, Debye):
    X=              1.1606    Y=             -0.0641    Z=              0.4614  Tot=              1.2506
 Quadrupole moment (field-independent basis, Debye-Ang):
   XX=           -218.9774   YY=           -227.2818   ZZ=           -200.5476
   XY=             -3.9570   XZ=            -10.6454   YZ=             18.9349

 Normal termination of Gaussian 16 at Thu Oct 28 02:33:06 2021.
