 Gaussian 16, Revision C.01,
 Gaussian 16:  ES64L-G16RevC.01  3-Jul-2019

 ---------------------------------------------------------------
 # opt=modredundant b3lyp/6-311+g(d,p) scrf=(pcm, solvent=water)
 ---------------------------------------------------------------

 ----------
 NDI_60.pdb
 ----------
 Symbolic Z-matrix:
 Charge =  0 Multiplicity = 1

 SCF Done:  E(RB3LYP) =  -2359.35301022     A.U. after   17 cycles
 SCF Done:  E(RB3LYP) =  -2359.35703200     A.U. after   15 cycles
 SCF Done:  E(RB3LYP) =  -2359.35788850     A.U. after   15 cycles
 SCF Done:  E(RB3LYP) =  -2359.35833229     A.U. after   15 cycles
 SCF Done:  E(RB3LYP) =  -2359.35877466     A.U. after   13 cycles
 SCF Done:  E(RB3LYP) =  -2359.35900204     A.U. after   13 cycles
 SCF Done:  E(RB3LYP) =  -2359.35906953     A.U. after   12 cycles
 SCF Done:  E(RB3LYP) =  -2359.35912205     A.U. after   12 cycles
 SCF Done:  E(RB3LYP) =  -2359.35914768     A.U. after   12 cycles
 SCF Done:  E(RB3LYP) =  -2359.35915912     A.U. after   11 cycles
 SCF Done:  E(RB3LYP) =  -2359.35917539     A.U. after   10 cycles
 SCF Done:  E(RB3LYP) =  -2359.35918690     A.U. after   11 cycles
 SCF Done:  E(RB3LYP) =  -2359.35919935     A.U. after   11 cycles
 SCF Done:  E(RB3LYP) =  -2359.35920462     A.U. after   10 cycles
 SCF Done:  E(RB3LYP) =  -2359.35921246     A.U. after   11 cycles
 SCF Done:  E(RB3LYP) =  -2359.35928338     A.U. after   12 cycles
 SCF Done:  E(RB3LYP) =  -2359.35928475     A.U. after    9 cycles
 SCF Done:  E(RB3LYP) =  -2359.35921986     A.U. after    9 cycles
 SCF Done:  E(RB3LYP) =  -2359.35922261     A.U. after   10 cycles
 SCF Done:  E(RB3LYP) =  -2359.35922251     A.U. after    8 cycles
 Optimization completed.
    -- Stationary point found.

                         Standard orientation:
 ---------------------------------------------------------------------
 Center     Atomic      Atomic             Coordinates (Angstroms)
 Number     Number       Type             X           Y           Z
 ---------------------------------------------------------------------
      1          6           0       -2.875536   -2.923991    0.522792
      2          6           0       -2.417645   -1.532810    0.281447
      3          6           0       -3.359711   -0.504404    0.058146
      4          6           0       -4.743445   -0.781052    0.071732
      5          6           0       -5.227482   -2.163967    0.318897
      6          6           0       -1.074106   -1.240811    0.305476
      7          6           0       -2.894829    0.815376   -0.189050
      8          6           0       -1.500170    1.093643   -0.209156
      9          6           0       -0.584358    0.076165    0.104965
     10          6           0       -1.064923    2.445763   -0.656854
     11          6           0       -3.424245    3.226653   -0.669430
     12          6           0       -3.854428    1.833071   -0.410269
     13          6           0       -5.208559    1.541618   -0.383882
     14          6           0       -5.657135    0.235878   -0.146282
     15          1           0       -6.715626    0.012699   -0.131997
     16          1           0       -5.918428    2.340893   -0.551294
     17          1           0       -0.372044   -2.035057    0.523089
     18          7           0       -2.050827    3.440673   -0.766769
     19          7           0       -4.253457   -3.150801    0.521606
     20          8           0       -2.100416   -3.847410    0.716704
     21          8           0       -6.416625   -2.437868    0.343143
     22          8           0       -4.223240    4.141327   -0.810542
     23          8           0        0.084680    2.723765   -0.952300
     24          6           0       -1.577269    4.788579   -1.117716
     25          1           0       -0.733206    5.048742   -0.482536
     26          1           0       -1.258266    4.818172   -2.160799
     27          1           0       -2.396021    5.483348   -0.964317
     28          6           0       -4.687812   -4.535634    0.763302
     29          1           0       -4.256592   -5.191527    0.007749
     30          1           0       -4.352256   -4.860525    1.748146
     31          1           0       -5.770542   -4.563552    0.710304
     32          6           0        0.859352    0.281232    0.283732
     33          6           0        1.487610    1.087781    1.199380
     34         16           0        2.008129   -0.714472   -0.574261
     35          6           0        2.895155    0.931667    1.198797
     36          1           0        0.950274    1.761214    1.850834
     37          6           0        3.368298   -0.004772    0.283341
     38          8           0        3.777594    1.590034    1.996033
     39          6           0        4.733884   -0.368096    0.008138
     40          6           0        3.268090    2.609470    2.863725
     41          6           0        5.198246   -1.333529   -0.878250
     42         16           0        6.107663    0.411599    0.789628
     43          1           0        4.134705    3.026684    3.372044
     44          1           0        2.764935    3.393050    2.290924
     45          1           0        2.580702    2.186746    3.601368
     46          6           0        6.617246   -1.445288   -0.929594
     47          8           0        4.307409   -2.062462   -1.600009
     48          6           0        7.232910   -0.566227   -0.084112
     49          1           0        7.153908   -2.141139   -1.557701
     50          6           0        4.817839   -3.057587   -2.495463
     51          1           0        8.291553   -0.439105    0.083210
     52          1           0        5.385392   -3.817142   -1.951532
     53          1           0        3.946033   -3.515102   -2.958130
     54          1           0        5.445722   -2.602985   -3.266215
 ---------------------------------------------------------------------

 The electronic state is 1-A.
 Alpha  occ. eigenvalues --  -88.88741 -88.88411 -19.16848 -19.16783 -19.12984
 Alpha  occ. eigenvalues --  -19.12967 -19.12589 -19.12520 -14.38952 -14.38598
 Alpha  occ. eigenvalues --  -10.31562 -10.31403 -10.31253 -10.31126 -10.24708
 Alpha  occ. eigenvalues --  -10.24652 -10.23706 -10.22912 -10.22827 -10.22758
 Alpha  occ. eigenvalues --  -10.22750 -10.22645 -10.22434 -10.22402 -10.22270
 Alpha  occ. eigenvalues --  -10.22230 -10.22148 -10.21768 -10.21603 -10.21256
 Alpha  occ. eigenvalues --  -10.21202 -10.20943 -10.20792 -10.20726 -10.18933
 Alpha  occ. eigenvalues --  -10.18662  -7.97297  -7.96971  -5.93616  -5.93280
 Alpha  occ. eigenvalues --   -5.93229  -5.92895  -5.92844  -5.92540  -1.09077
 Alpha  occ. eigenvalues --   -1.08802  -1.08222  -1.08134  -1.07271  -1.06944
 Alpha  occ. eigenvalues --   -0.96599  -0.96213  -0.92638  -0.90429  -0.88790
 Alpha  occ. eigenvalues --   -0.86813  -0.84468  -0.80521  -0.78637  -0.77609
 Alpha  occ. eigenvalues --   -0.76199  -0.75348  -0.75100  -0.73147  -0.72566
 Alpha  occ. eigenvalues --   -0.71908  -0.70041  -0.68838  -0.67501  -0.66090
 Alpha  occ. eigenvalues --   -0.65669  -0.64982  -0.61176  -0.59824  -0.58693
 Alpha  occ. eigenvalues --   -0.57600  -0.56623  -0.55860  -0.55565  -0.54558
 Alpha  occ. eigenvalues --   -0.53670  -0.51897  -0.50424  -0.50165  -0.49989
 Alpha  occ. eigenvalues --   -0.49562  -0.49233  -0.48666  -0.48182  -0.47838
 Alpha  occ. eigenvalues --   -0.47805  -0.47448  -0.47011  -0.46700  -0.45864
 Alpha  occ. eigenvalues --   -0.45568  -0.45204  -0.45096  -0.44244  -0.43923
 Alpha  occ. eigenvalues --   -0.42886  -0.42782  -0.42297  -0.42110  -0.41872
 Alpha  occ. eigenvalues --   -0.41577  -0.41458  -0.41212  -0.40708  -0.40018
 Alpha  occ. eigenvalues --   -0.39809  -0.39234  -0.38883  -0.37733  -0.37589
 Alpha  occ. eigenvalues --   -0.36212  -0.35750  -0.34309  -0.33873  -0.33759
 Alpha  occ. eigenvalues --   -0.33534  -0.32357  -0.31647  -0.30812  -0.30014
 Alpha  occ. eigenvalues --   -0.29762  -0.29398  -0.29285  -0.28568  -0.27638
 Alpha  occ. eigenvalues --   -0.26332  -0.25017  -0.24809  -0.19492
 Alpha virt. eigenvalues --   -0.13385  -0.07211  -0.06375  -0.04982  -0.04475
 Alpha virt. eigenvalues --   -0.00741  -0.00569   0.00079   0.00498   0.00512
 Alpha virt. eigenvalues --    0.00657   0.01005   0.01057   0.01442   0.02169

 Mulliken charges:
               1
     1  C    0.459278
     2  C   -0.081352
     3  C    0.119750
     4  C    0.224648
     5  C    0.302687
     6  C   -0.470866
     7  C    0.191772
     8  C    0.234152
     9  C    0.517868
    10  C   -0.422665
    11  C    0.268399
    12  C    0.137820
    13  C   -0.475102
    14  C   -0.626387
    15  H    0.166809
    16  H    0.166716
    17  H    0.174036
    18  N   -0.067411
    19  N   -0.112758
    20  O   -0.342993
    21  O   -0.332317
    22  O   -0.345489
    23  O   -0.218789
    24  C   -0.206510
    25  H    0.181137
    26  H    0.190517
    27  H    0.180609
    28  C   -0.214467
    29  H    0.182592
    30  H    0.185165
    31  H    0.180316
    32  C    0.141880
    33  C   -0.460127
    34  S   -0.491179
    35  C   -0.201164
    36  H    0.157262
    37  C    0.644383
    38  O   -0.166126
    39  C    0.702094
    40  C   -0.239722
    41  C   -0.021438
    42  S   -0.246171
    43  H    0.176185
    44  H    0.165838
    45  H    0.162055
    46  C   -0.578479
    47  O   -0.163570
    48  C   -0.325546
    49  H    0.161732
    50  C   -0.251143
    51  H    0.189446
    52  H    0.160855
    53  H    0.173934
    54  H    0.161836
 Sum of Mulliken charges =  -0.00000

 Dipole moment (field-independent basis, Debye):
    X=              2.8235    Y=             -0.3232    Z=              0.6984  Tot=              2.9265
 Quadrupole moment (field-independent basis, Debye-Ang):
   XX=           -216.3931   YY=           -219.6752   ZZ=           -208.9529
   XY=             -5.9336   XZ=             -7.3995   YZ=             20.6683

 Normal termination of Gaussian 16 at Thu Oct 28 02:04:04 2021.
