 Gaussian 16, Revision C.01,
 Gaussian 16:  ES64L-G16RevC.01  3-Jul-2019

 ---------------------------------------------------------------
 # opt=modredundant b3lyp/6-311+g(d,p) scrf=(pcm, solvent=water)
 ---------------------------------------------------------------

 ------------
 NDI_-160.pdb
 ------------
 Symbolic Z-matrix:
 Charge =  0 Multiplicity = 1

 SCF Done:  E(RB3LYP) =  -2359.32535971     A.U. after   17 cycles
 SCF Done:  E(RB3LYP) =  -2359.34497682     A.U. after   17 cycles
 SCF Done:  E(RB3LYP) =  -2359.35367911     A.U. after   16 cycles
 SCF Done:  E(RB3LYP) =  -2359.35560870     A.U. after   14 cycles
 SCF Done:  E(RB3LYP) =  -2359.35623901     A.U. after   15 cycles
 SCF Done:  E(RB3LYP) =  -2359.35630861     A.U. after   15 cycles
 SCF Done:  E(RB3LYP) =  -2359.35642968     A.U. after   12 cycles
 SCF Done:  E(RB3LYP) =  -2359.35650641     A.U. after   11 cycles
 SCF Done:  E(RB3LYP) =  -2359.35661501     A.U. after   13 cycles
 SCF Done:  E(RB3LYP) =  -2359.35668559     A.U. after   13 cycles
 SCF Done:  E(RB3LYP) =  -2359.35830195     A.U. after   10 cycles
 SCF Done:  E(RB3LYP) =  -2359.35832486     A.U. after   11 cycles
 SCF Done:  E(RB3LYP) =  -2359.35834399     A.U. after   11 cycles
 SCF Done:  E(RB3LYP) =  -2359.35835572     A.U. after   12 cycles
 SCF Done:  E(RB3LYP) =  -2359.35835890     A.U. after   10 cycles
 SCF Done:  E(RB3LYP) =  -2359.35836043     A.U. after    9 cycles
 SCF Done:  E(RB3LYP) =  -2359.35836155     A.U. after   10 cycles
 SCF Done:  E(RB3LYP) =  -2359.35836165     A.U. after    8 cycles
 SCF Done:  E(RB3LYP) =  -2359.35836168     A.U. after    8 cycles
 SCF Done:  E(RB3LYP) =  -2359.35836169     A.U. after    8 cycles
 Optimization completed.
    -- Stationary point found.

                         Standard orientation:
 ---------------------------------------------------------------------
 Center     Atomic      Atomic             Coordinates (Angstroms)
 Number     Number       Type             X           Y           Z
 ---------------------------------------------------------------------
      1          6           0       -3.550711   -2.673151    0.249087
      2          6           0       -2.782537   -1.429408   -0.007227
      3          6           0       -3.415334   -0.169242    0.102266
      4          6           0       -4.771889   -0.073491    0.469132
      5          6           0       -5.559932   -1.302961    0.740007
      6          6           0       -1.443987   -1.505286   -0.297093
      7          6           0       -2.657201    0.999971   -0.172163
      8          6           0       -1.286162    0.903153   -0.542580
      9          6           0       -0.638286   -0.352611   -0.531549
     10          6           0       -0.647733    2.127054   -1.085361
     11          6           0       -2.567974    3.505994   -0.335895
     12          6           0       -3.305636    2.254334   -0.057756
     13          6           0       -4.638883    2.328486    0.319287
     14          6           0       -5.377022    1.169326    0.580488
     15          1           0       -6.418312    1.232077    0.866978
     16          1           0       -5.102035    3.302603    0.406614
     17          1           0       -0.981367   -2.482195   -0.294841
     18          7           0       -1.271241    3.358590   -0.821390
     19          7           0       -4.896362   -2.529286    0.593892
     20          8           0       -3.052754   -3.785635    0.167048
     21          8           0       -6.734205   -1.259469    1.071242
     22          8           0       -3.065930    4.613225   -0.180404
     23          8           0        0.364066    2.112761   -1.769709
     24          6           0       -0.548558    4.568831   -1.241106
     25          1           0        0.508472    4.443908   -1.020979
     26          1           0       -0.671256    4.737103   -2.312978
     27          1           0       -0.955183    5.412681   -0.693005
     28          6           0       -5.645474   -3.771922    0.837284
     29          1           0       -5.564812   -4.421290   -0.033342
     30          1           0       -5.234801   -4.289441    1.704682
     31          1           0       -6.682492   -3.510972    1.017558
     32          6           0        0.800004   -0.595474   -0.594763
     33          6           0        1.403970   -1.786440   -0.969280
     34         16           0        1.977413    0.476852    0.127602
     35          6           0        2.788760   -1.820197   -0.720921
     36          1           0        0.865637   -2.596009   -1.439293
     37          6           0        3.282669   -0.671208   -0.098334
     38          8           0        3.641943   -2.833896   -1.018207
     39          6           0        4.631296   -0.401948    0.310589
     40          6           0        3.098326   -4.016898   -1.616259
     41          6           0        5.120121    0.740582    0.941508
     42         16           0        5.954107   -1.542152    0.065264
     43          1           0        3.940373   -4.690441   -1.759374
     44          1           0        2.362467   -4.483841   -0.956137
     45          1           0        2.642139   -3.789645   -2.583434
     46          6           0        6.515802    0.701675    1.216376
     47          8           0        4.271639    1.754752    1.235012
     48          6           0        7.087993   -0.467138    0.798767
     49          1           0        7.067448    1.495078    1.698664
     50          6           0        4.808729    2.928187    1.860989
     51          1           0        8.123129   -0.761826    0.881635
     52          1           0        5.559613    3.399489    1.222034
     53          1           0        3.966376    3.602935    1.995533
     54          1           0        5.243346    2.684262    2.833522
 ---------------------------------------------------------------------

 The electronic state is 1-A.
 Alpha  occ. eigenvalues --  -88.88795 -88.88717 -19.17264 -19.17011 -19.12874
 Alpha  occ. eigenvalues --  -19.12846 -19.12316 -19.12315 -14.38845 -14.38388
 Alpha  occ. eigenvalues --  -10.31435 -10.31284 -10.30991 -10.30820 -10.25211
 Alpha  occ. eigenvalues --  -10.25005 -10.23788 -10.22973 -10.22933 -10.22870
 Alpha  occ. eigenvalues --  -10.22675 -10.22580 -10.22313 -10.22295 -10.22175
 Alpha  occ. eigenvalues --  -10.22155 -10.22122 -10.21927 -10.21521 -10.21159
 Alpha  occ. eigenvalues --  -10.20965 -10.20889 -10.20868 -10.20753 -10.19550
 Alpha  occ. eigenvalues --  -10.18931  -7.97357  -7.97275  -5.93679  -5.93584
 Alpha  occ. eigenvalues --   -5.93285  -5.93197  -5.92896  -5.92842  -1.08951
 Alpha  occ. eigenvalues --   -1.08662  -1.08552  -1.08429  -1.07143  -1.06659
 Alpha  occ. eigenvalues --   -0.96466  -0.96031  -0.92408  -0.90700  -0.89039
 Alpha  occ. eigenvalues --   -0.86682  -0.84231  -0.80667  -0.78439  -0.77751
 Alpha  occ. eigenvalues --   -0.76457  -0.75451  -0.75195  -0.73455  -0.72558
 Alpha  occ. eigenvalues --   -0.71585  -0.70416  -0.68939  -0.67339  -0.65961
 Alpha  occ. eigenvalues --   -0.65454  -0.65004  -0.61199  -0.60073  -0.58732
 Alpha  occ. eigenvalues --   -0.57548  -0.56815  -0.56126  -0.55014  -0.54899
 Alpha  occ. eigenvalues --   -0.53893  -0.51697  -0.50346  -0.50139  -0.49767
 Alpha  occ. eigenvalues --   -0.49599  -0.49165  -0.48586  -0.48413  -0.48079
 Alpha  occ. eigenvalues --   -0.48009  -0.47260  -0.46985  -0.46554  -0.45836
 Alpha  occ. eigenvalues --   -0.45505  -0.45382  -0.45087  -0.44309  -0.43785
 Alpha  occ. eigenvalues --   -0.42874  -0.42627  -0.42245  -0.42063  -0.41968
 Alpha  occ. eigenvalues --   -0.41850  -0.41537  -0.41125  -0.40739  -0.40093
 Alpha  occ. eigenvalues --   -0.39684  -0.39247  -0.38892  -0.37848  -0.37466
 Alpha  occ. eigenvalues --   -0.36495  -0.36280  -0.34382  -0.34113  -0.33854
 Alpha  occ. eigenvalues --   -0.33709  -0.32036  -0.31504  -0.30746  -0.30201
 Alpha  occ. eigenvalues --   -0.29664  -0.29320  -0.29107  -0.28637  -0.27526
 Alpha  occ. eigenvalues --   -0.26149  -0.25270  -0.24807  -0.19707
 Alpha virt. eigenvalues --   -0.13248  -0.07857  -0.06462  -0.04780  -0.03978
 Alpha virt. eigenvalues --   -0.00768  -0.00577   0.00124   0.00280   0.00368
 Alpha virt. eigenvalues --    0.00801   0.01274   0.01291   0.01564   0.02023

 Mulliken charges:
               1
     1  C    0.428479
     2  C   -0.072013
     3  C    0.142897
     4  C    0.254847
     5  C    0.281039
     6  C    0.053908
     7  C    0.111839
     8  C    0.369978
     9  C    0.282165
    10  C   -0.620365
    11  C    0.372565
    12  C    0.067126
    13  C   -0.495646
    14  C   -0.595757
    15  H    0.164782
    16  H    0.165083
    17  H    0.165414
    18  N    0.049097
    19  N   -0.113991
    20  O   -0.347262
    21  O   -0.334861
    22  O   -0.357556
    23  O   -0.288623
    24  C   -0.210085
    25  H    0.183017
    26  H    0.191205
    27  H    0.180614
    28  C   -0.211547
    29  H    0.180278
    30  H    0.186596
    31  H    0.179861
    32  C    0.069107
    33  C   -0.660821
    34  S   -0.704122
    35  C   -0.244713
    36  H    0.165227
    37  C    0.717329
    38  O   -0.160636
    39  C    0.868737
    40  C   -0.240902
    41  C   -0.010185
    42  S   -0.215237
    43  H    0.178824
    44  H    0.166658
    45  H    0.163319
    46  C   -0.596517
    47  O   -0.154540
    48  C   -0.311107
    49  H    0.164002
    50  C   -0.254336
    51  H    0.192802
    52  H    0.164217
    53  H    0.176267
    54  H    0.163542
 Sum of Mulliken charges =  -0.00000

 Dipole moment (field-independent basis, Debye):
    X=              5.6897    Y=             -1.1915    Z=              1.3158  Tot=              5.9602
 Quadrupole moment (field-independent basis, Debye-Ang):
   XX=           -206.8216   YY=           -215.0462   ZZ=           -220.0404
   XY=             13.9865   XZ=             15.8036   YZ=             14.3463

 Normal termination of Gaussian 16 at Wed Oct 27 22:01:27 2021.
