 Gaussian 16, Revision C.01,
 Gaussian 16:  ES64L-G16RevC.01  3-Jul-2019

 ---------------------------------------------------------------
 # opt=modredundant b3lyp/6-311+g(d,p) scrf=(pcm, solvent=water)
 ---------------------------------------------------------------

 -----------
 NDI_-50.pdb
 -----------
 Symbolic Z-matrix:
 Charge =  0 Multiplicity = 1

 SCF Done:  E(RB3LYP) =  -2359.35809955     A.U. after   17 cycles
 SCF Done:  E(RB3LYP) =  -2359.35898463     A.U. after   13 cycles
 SCF Done:  E(RB3LYP) =  -2359.35940109     A.U. after   13 cycles
 SCF Done:  E(RB3LYP) =  -2359.35955140     A.U. after   13 cycles
 SCF Done:  E(RB3LYP) =  -2359.35965269     A.U. after   13 cycles
 SCF Done:  E(RB3LYP) =  -2359.35971011     A.U. after   12 cycles
 SCF Done:  E(RB3LYP) =  -2359.35973024     A.U. after   11 cycles
 SCF Done:  E(RB3LYP) =  -2359.35974326     A.U. after   12 cycles
 SCF Done:  E(RB3LYP) =  -2359.35975221     A.U. after   12 cycles
 SCF Done:  E(RB3LYP) =  -2359.35976390     A.U. after   11 cycles
 SCF Done:  E(RB3LYP) =  -2359.35980805     A.U. after   10 cycles
 SCF Done:  E(RB3LYP) =  -2359.35980910     A.U. after    9 cycles
 SCF Done:  E(RB3LYP) =  -2359.35980954     A.U. after    9 cycles
 SCF Done:  E(RB3LYP) =  -2359.35980981     A.U. after    9 cycles
 SCF Done:  E(RB3LYP) =  -2359.35981007     A.U. after    8 cycles
 SCF Done:  E(RB3LYP) =  -2359.35981022     A.U. after    8 cycles
 SCF Done:  E(RB3LYP) =  -2359.35981054     A.U. after    8 cycles
 SCF Done:  E(RB3LYP) =  -2359.35981069     A.U. after   10 cycles
 SCF Done:  E(RB3LYP) =  -2359.35981073     A.U. after    8 cycles
 SCF Done:  E(RB3LYP) =  -2359.35981077     A.U. after    8 cycles
 Optimization completed.
    -- Stationary point found.

                         Standard orientation:
 ---------------------------------------------------------------------
 Center     Atomic      Atomic             Coordinates (Angstroms)
 Number     Number       Type             X           Y           Z
 ---------------------------------------------------------------------
      1          6           0        2.810883   -2.952678    0.467653
      2          6           0        2.382827   -1.549832    0.239843
      3          6           0        3.347861   -0.532411    0.065309
      4          6           0        4.725282   -0.831706    0.115518
      5          6           0        5.179448   -2.227120    0.347706
      6          6           0        1.045096   -1.236997    0.235075
      7          6           0        2.909259    0.798423   -0.171176
      8          6           0        1.519801    1.099476   -0.230159
      9          6           0        0.576391    0.091449    0.045840
     10          6           0        1.126560    2.456774   -0.696826
     11          6           0        3.492582    3.207719   -0.591289
     12          6           0        3.891992    1.803885   -0.343672
     13          6           0        5.240591    1.490548   -0.279360
     14          6           0        5.662040    0.174481   -0.053493
     15          1           0        6.715990   -0.065866   -0.011010
     16          1           0        5.967020    2.282056   -0.408606
     17          1           0        0.329488   -2.026341    0.424574
     18          7           0        2.127626    3.442968   -0.737623
     19          7           0        4.184409   -3.202014    0.501308
     20          8           0        2.016074   -3.867216    0.621004
     21          8           0        6.362875   -2.521511    0.401233
     22          8           0        4.308493    4.114282   -0.685150
     23          8           0        0.001486    2.748758   -1.066434
     24          6           0        1.690978    4.802715   -1.090423
     25          1           0        1.477761    4.869420   -2.158839
     26          1           0        0.787920    5.042731   -0.534055
     27          1           0        2.489991    5.490414   -0.833919
     28          6           0        4.589670   -4.598443    0.726163
     29          1           0        4.224450   -4.936767    1.695834
     30          1           0        4.166451   -5.231999   -0.052624
     31          1           0        5.672811   -4.643796    0.699133
     32          6           0       -0.860245    0.315571    0.213779
     33          6           0       -1.490275    1.240972    1.011987
     34         16           0       -2.018070   -0.777842   -0.510780
     35          6           0       -2.894839    1.089213    1.034392
     36          1           0       -0.954484    1.994497    1.569513
     37          6           0       -3.372489    0.041099    0.247461
     38          8           0       -3.775907    1.845483    1.739242
     39          6           0       -4.738416   -0.349801    0.026239
     40          6           0       -3.263141    2.957829    2.482462
     41          6           0       -5.208008   -1.417598   -0.732333
     42         16           0       -6.107880    0.522021    0.712951
     43          1           0       -4.128641    3.435083    2.936872
     44          1           0       -2.578012    2.621224    3.265066
     45          1           0       -2.756418    3.666522    1.822092
     46          6           0       -6.626918   -1.533443   -0.761357
     47          8           0       -4.321660   -2.230050   -1.362027
     48          6           0       -7.236932   -0.555687   -0.027243
     49          1           0       -7.167513   -2.300600   -1.296070
     50          6           0       -4.836187   -3.329593   -2.123978
     51          1           0       -8.294729   -0.407325    0.127950
     52          1           0       -5.468470   -2.974083   -2.941574
     53          1           0       -3.966364   -3.840844   -2.530552
     54          1           0       -5.400041   -4.014918   -1.485946
 ---------------------------------------------------------------------

 The electronic state is 1-A.
 Alpha  occ. eigenvalues --  -88.88866 -88.88519 -19.16995 -19.16900 -19.12943
 Alpha  occ. eigenvalues --  -19.12923 -19.12472 -19.12387 -14.38915 -14.38497
 Alpha  occ. eigenvalues --  -10.31517 -10.31359 -10.31147 -10.30995 -10.24876
 Alpha  occ. eigenvalues --  -10.24842 -10.23706 -10.22828 -10.22819 -10.22805
 Alpha  occ. eigenvalues --  -10.22644 -10.22530 -10.22528 -10.22349 -10.22313
 Alpha  occ. eigenvalues --  -10.22234 -10.22134 -10.21896 -10.21565 -10.21145
 Alpha  occ. eigenvalues --  -10.21078 -10.20925 -10.20874 -10.20764 -10.19081
 Alpha  occ. eigenvalues --  -10.18758  -7.97423  -7.97077  -5.93740  -5.93387
 Alpha  occ. eigenvalues --   -5.93355  -5.93000  -5.92972  -5.92646  -1.09032
 Alpha  occ. eigenvalues --   -1.08680  -1.08376  -1.08280  -1.07224  -1.06809
 Alpha  occ. eigenvalues --   -0.96552  -0.96111  -0.92545  -0.90542  -0.88878
 Alpha  occ. eigenvalues --   -0.86763  -0.84375  -0.80549  -0.78569  -0.77688
 Alpha  occ. eigenvalues --   -0.76288  -0.75294  -0.75231  -0.73226  -0.72530
 Alpha  occ. eigenvalues --   -0.71909  -0.70114  -0.68881  -0.67438  -0.66017
 Alpha  occ. eigenvalues --   -0.65637  -0.64920  -0.61238  -0.59889  -0.58692
 Alpha  occ. eigenvalues --   -0.57541  -0.56677  -0.55975  -0.55521  -0.54681
 Alpha  occ. eigenvalues --   -0.53615  -0.51841  -0.50410  -0.50104  -0.49997
 Alpha  occ. eigenvalues --   -0.49537  -0.49192  -0.48631  -0.48271  -0.47901
 Alpha  occ. eigenvalues --   -0.47888  -0.47353  -0.46990  -0.46625  -0.45904
 Alpha  occ. eigenvalues --   -0.45544  -0.45262  -0.45040  -0.44183  -0.43870
 Alpha  occ. eigenvalues --   -0.42879  -0.42740  -0.42236  -0.42191  -0.41907
 Alpha  occ. eigenvalues --   -0.41669  -0.41452  -0.41171  -0.40676  -0.39992
 Alpha  occ. eigenvalues --   -0.39796  -0.39248  -0.38980  -0.37755  -0.37626
 Alpha  occ. eigenvalues --   -0.36321  -0.35871  -0.34349  -0.33960  -0.33835
 Alpha  occ. eigenvalues --   -0.33631  -0.32277  -0.31604  -0.30800  -0.30013
 Alpha  occ. eigenvalues --   -0.29757  -0.29316  -0.29279  -0.28547  -0.27577
 Alpha  occ. eigenvalues --   -0.26255  -0.25071  -0.24879  -0.19573
 Alpha virt. eigenvalues --   -0.13338  -0.07388  -0.06476  -0.04904  -0.04242
 Alpha virt. eigenvalues --   -0.00741  -0.00566   0.00098   0.00443   0.00490
 Alpha virt. eigenvalues --    0.00674   0.01052   0.01168   0.01476   0.02139

 Mulliken charges:
               1
     1  C    0.448300
     2  C   -0.102807
     3  C    0.114932
     4  C    0.234742
     5  C    0.300631
     6  C   -0.418899
     7  C    0.176106
     8  C    0.340505
     9  C    0.457786
    10  C   -0.464032
    11  C    0.279667
    12  C    0.134930
    13  C   -0.477400
    14  C   -0.620282
    15  H    0.166105
    16  H    0.166138
    17  H    0.175171
    18  N   -0.040331
    19  N   -0.111314
    20  O   -0.346063
    21  O   -0.332949
    22  O   -0.349770
    23  O   -0.238383
    24  C   -0.201315
    25  H    0.190677
    26  H    0.180318
    27  H    0.180069
    28  C   -0.214582
    29  H    0.185091
    30  H    0.182358
    31  H    0.180270
    32  C    0.158628
    33  C   -0.518158
    34  S   -0.542130
    35  C   -0.251398
    36  H    0.160860
    37  C    0.706434
    38  O   -0.161182
    39  C    0.728069
    40  C   -0.241331
    41  C   -0.011145
    42  S   -0.238809
    43  H    0.177129
    44  H    0.163052
    45  H    0.166036
    46  C   -0.596212
    47  O   -0.160220
    48  C   -0.315341
    49  H    0.162639
    50  C   -0.252217
    51  H    0.190568
    52  H    0.162439
    53  H    0.174696
    54  H    0.161925
 Sum of Mulliken charges =  -0.00000

 Dipole moment (field-independent basis, Debye):
    X=             -3.9329    Y=             -0.4805    Z=              0.8656  Tot=              4.0556
 Quadrupole moment (field-independent basis, Debye-Ang):
   XX=           -214.5933   YY=           -215.9559   ZZ=           -213.2189
   XY=              6.6472   XZ=              5.4776   YZ=             20.0051

 Normal termination of Gaussian 16 at Wed Oct 27 21:58:54 2021.
