 Gaussian 16, Revision C.01,
 Gaussian 16:  ES64L-G16RevC.01  3-Jul-2019

 ---------------------------------------------------------------
 # opt=modredundant b3lyp/6-311+g(d,p) scrf=(pcm, solvent=water)
 ---------------------------------------------------------------

 -----------
 NDI_-75.pdb
 -----------
 Symbolic Z-matrix:
 Charge =  0 Multiplicity = 1

 SCF Done:  E(RB3LYP) =  -2359.35477322     A.U. after   17 cycles
 SCF Done:  E(RB3LYP) =  -2359.35760539     A.U. after   15 cycles
 SCF Done:  E(RB3LYP) =  -2359.35805140     A.U. after   13 cycles
 SCF Done:  E(RB3LYP) =  -2359.35800943     A.U. after   13 cycles
 SCF Done:  E(RB3LYP) =  -2359.35810876     A.U. after   11 cycles
 SCF Done:  E(RB3LYP) =  -2359.35812768     A.U. after   11 cycles
 SCF Done:  E(RB3LYP) =  -2359.35814017     A.U. after   11 cycles
 SCF Done:  E(RB3LYP) =  -2359.35814516     A.U. after   11 cycles
 SCF Done:  E(RB3LYP) =  -2359.35815009     A.U. after   10 cycles
 SCF Done:  E(RB3LYP) =  -2359.35815698     A.U. after   11 cycles
 SCF Done:  E(RB3LYP) =  -2359.35818062     A.U. after   10 cycles
 SCF Done:  E(RB3LYP) =  -2359.35818747     A.U. after   11 cycles
 SCF Done:  E(RB3LYP) =  -2359.35818864     A.U. after    9 cycles
 SCF Done:  E(RB3LYP) =  -2359.35818902     A.U. after    9 cycles
 SCF Done:  E(RB3LYP) =  -2359.35818952     A.U. after    9 cycles
 SCF Done:  E(RB3LYP) =  -2359.35818973     A.U. after    9 cycles
 SCF Done:  E(RB3LYP) =  -2359.35818982     A.U. after    8 cycles
 SCF Done:  E(RB3LYP) =  -2359.35818989     A.U. after    8 cycles
 SCF Done:  E(RB3LYP) =  -2359.35818997     A.U. after    8 cycles
 SCF Done:  E(RB3LYP) =  -2359.35819001     A.U. after    8 cycles
 Optimization completed.
    -- Stationary point found.

                         Standard orientation:
 ---------------------------------------------------------------------
 Center     Atomic      Atomic             Coordinates (Angstroms)
 Number     Number       Type             X           Y           Z
 ---------------------------------------------------------------------
      1          6           0        3.020393   -2.877610    0.534521
      2          6           0        2.497473   -1.505397    0.315383
      3          6           0        3.384443   -0.445628    0.029605
      4          6           0        4.776734   -0.672437   -0.044988
      5          6           0        5.325438   -2.036165    0.174444
      6          6           0        1.145562   -1.263196    0.409968
      7          6           0        2.859669    0.856440   -0.187290
      8          6           0        1.458025    1.083986   -0.117358
      9          6           0        0.600463    0.031665    0.226078
     10          6           0        0.944083    2.438902   -0.470907
     11          6           0        3.269355    3.287712   -0.691353
     12          6           0        3.765096    1.908542   -0.467534
     13          6           0        5.126318    1.665427   -0.531134
     14          6           0        5.635530    0.375467   -0.322726
     15          1           0        6.700259    0.191127   -0.376811
     16          1           0        5.795712    2.488403   -0.744080
     17          1           0        0.481878   -2.081408    0.657230
     18          7           0        1.886557    3.461527   -0.660558
     19          7           0        4.403093   -3.054402    0.449233
     20          8           0        2.292827   -3.826681    0.780334
     21          8           0        6.522380   -2.267450    0.118981
     22          8           0        4.024538    4.224912   -0.902022
     23          8           0       -0.238354    2.693381   -0.616614
     24          6           0        1.343232    4.800869   -0.936846
     25          1           0        0.892329    4.827291   -1.929929
     26          1           0        0.582415    5.039745   -0.196524
     27          1           0        2.160067    5.512492   -0.884413
     28          6           0        4.901738   -4.421008    0.670473
     29          1           0        4.613348   -4.760402    1.664999
     30          1           0        4.472432   -5.093261   -0.072041
     31          1           0        5.982176   -4.404497    0.579469
     32          6           0       -0.855791    0.172546    0.434956
     33          6           0       -1.495280    0.723661    1.511926
     34         16           0       -1.982145   -0.585675   -0.657551
     35          6           0       -2.907175    0.569833    1.451178
     36          1           0       -0.970112    1.221763    2.313828
     37          6           0       -3.361533   -0.113576    0.331263
     38          8           0       -3.801723    1.016290    2.374367
     39          6           0       -4.722174   -0.408097   -0.045589
     40          6           0       -3.304508    1.786218    3.474652
     41          6           0       -5.168465   -1.122156   -1.150055
     42         16           0       -6.110806    0.139626    0.890768
     43          1           0       -4.177492    2.062172    4.062403
     44          1           0       -2.622594    1.193507    4.090431
     45          1           0       -2.798726    2.689387    3.122530
     46          6           0       -6.586573   -1.227714   -1.244824
     47          8           0       -4.263396   -1.642954   -2.022665
     48          6           0       -7.220064   -0.594688   -0.213507
     49          1           0       -7.109419   -1.746646   -2.034914
     50          6           0       -4.758901   -2.380906   -3.145334
     51          1           0       -8.281364   -0.520175   -0.032112
     52          1           0       -5.384463   -1.749914   -3.782405
     53          1           0       -3.880301   -2.701822   -3.701020
     54          1           0       -5.325175   -3.256983   -2.817900
 ---------------------------------------------------------------------

 The electronic state is 1-A.
 Alpha  occ. eigenvalues --  -88.88532 -88.88251 -19.16629 -19.16622 -19.13046
 Alpha  occ. eigenvalues --  -19.13039 -19.12761 -19.12747 -14.39009 -14.38754
 Alpha  occ. eigenvalues --  -10.31634 -10.31474 -10.31436 -10.31309 -10.24463
 Alpha  occ. eigenvalues --  -10.24371 -10.23745 -10.23157 -10.23037 -10.22821
 Alpha  occ. eigenvalues --  -10.22679 -10.22667 -10.22561 -10.22542 -10.22478
 Alpha  occ. eigenvalues --  -10.22025 -10.21797 -10.21659 -10.21581 -10.21441
 Alpha  occ. eigenvalues --  -10.21383 -10.20971 -10.20851 -10.20506 -10.18704
 Alpha  occ. eigenvalues --  -10.18521  -7.97081  -7.96812  -5.93404  -5.93120
 Alpha  occ. eigenvalues --   -5.93016  -5.92735  -5.92624  -5.92381  -1.09145
 Alpha  occ. eigenvalues --   -1.09000  -1.07996  -1.07914  -1.07342  -1.07154
 Alpha  occ. eigenvalues --   -0.96669  -0.96372  -0.92776  -0.90231  -0.88648
 Alpha  occ. eigenvalues --   -0.86874  -0.84602  -0.80485  -0.78748  -0.77494
 Alpha  occ. eigenvalues --   -0.76050  -0.75433  -0.74885  -0.73051  -0.72618
 Alpha  occ. eigenvalues --   -0.71892  -0.69931  -0.68768  -0.67599  -0.66203
 Alpha  occ. eigenvalues --   -0.65730  -0.65074  -0.61084  -0.59742  -0.58679
 Alpha  occ. eigenvalues --   -0.57696  -0.56561  -0.55690  -0.55596  -0.54390
 Alpha  occ. eigenvalues --   -0.53767  -0.51983  -0.50470  -0.50274  -0.50004
 Alpha  occ. eigenvalues --   -0.49519  -0.49291  -0.48721  -0.48076  -0.47776
 Alpha  occ. eigenvalues --   -0.47691  -0.47547  -0.47036  -0.46835  -0.45874
 Alpha  occ. eigenvalues --   -0.45530  -0.45210  -0.45093  -0.44332  -0.43992
 Alpha  occ. eigenvalues --   -0.42905  -0.42872  -0.42416  -0.41983  -0.41826
 Alpha  occ. eigenvalues --   -0.41511  -0.41360  -0.41259  -0.40756  -0.40105
 Alpha  occ. eigenvalues --   -0.39845  -0.39122  -0.38741  -0.37820  -0.37411
 Alpha  occ. eigenvalues --   -0.36032  -0.35645  -0.34193  -0.33746  -0.33611
 Alpha  occ. eigenvalues --   -0.33415  -0.32498  -0.31715  -0.30853  -0.30030
 Alpha  occ. eigenvalues --   -0.29777  -0.29540  -0.29256  -0.28588  -0.27730
 Alpha  occ. eigenvalues --   -0.26495  -0.24931  -0.24678  -0.19363
 Alpha virt. eigenvalues --   -0.13457  -0.07091  -0.06062  -0.05105  -0.04880
 Alpha virt. eigenvalues --   -0.00670  -0.00593   0.00073   0.00504   0.00562
 Alpha virt. eigenvalues --    0.00698   0.00872   0.00913   0.01372   0.02144

 Mulliken charges:
               1
     1  C    0.467085
     2  C   -0.038555
     3  C    0.181349
     4  C    0.206365
     5  C    0.305124
     6  C   -0.506758
     7  C    0.194713
     8  C    0.147893
     9  C    0.584816
    10  C   -0.430260
    11  C    0.251957
    12  C    0.164557
    13  C   -0.485483
    14  C   -0.644135
    15  H    0.167891
    16  H    0.167884
    17  H    0.167723
    18  N   -0.097745
    19  N   -0.113325
    20  O   -0.338347
    21  O   -0.331429
    22  O   -0.339715
    23  O   -0.187350
    24  C   -0.221595
    25  H    0.191175
    26  H    0.182076
    27  H    0.181139
    28  C   -0.214518
    29  H    0.184196
    30  H    0.184001
    31  H    0.180434
    32  C    0.145284
    33  C   -0.495956
    34  S   -0.328169
    35  C   -0.161355
    36  H    0.151914
    37  C    0.454790
    38  O   -0.171164
    39  C    0.708979
    40  C   -0.237383
    41  C   -0.001118
    42  S   -0.253042
    43  H    0.175487
    44  H    0.160980
    45  H    0.166010
    46  C   -0.548717
    47  O   -0.170372
    48  C   -0.349896
    49  H    0.160430
    50  C   -0.248738
    51  H    0.187856
    52  H    0.160655
    53  H    0.173019
    54  H    0.159344
 Sum of Mulliken charges =  -0.00000

 Dipole moment (field-independent basis, Debye):
    X=             -1.1619    Y=             -0.0598    Z=              0.4643  Tot=              1.2527
 Quadrupole moment (field-independent basis, Debye-Ang):
   XX=           -218.9709   YY=           -227.2935   ZZ=           -200.5418
   XY=              3.9476   XZ=             10.6739   YZ=             18.9119

 Normal termination of Gaussian 16 at Wed Oct 27 20:36:29 2021.
