 Gaussian 16, Revision C.01,
 Gaussian 16:  ES64L-G16RevC.01  3-Jul-2019

 ---------------------------------------------------------------
 # opt=modredundant b3lyp/6-311+g(d,p) scrf=(pcm, solvent=water)
 ---------------------------------------------------------------

 ----------
 NDI_90.pdb
 ----------
 Symbolic Z-matrix:
 Charge =  0 Multiplicity = 1

 SCF Done:  E(RB3LYP) =  -2359.35272832     A.U. after   16 cycles
 SCF Done:  E(RB3LYP) =  -2359.35625485     A.U. after   14 cycles
 SCF Done:  E(RB3LYP) =  -2359.35703736     A.U. after   14 cycles
 SCF Done:  E(RB3LYP) =  -2359.35720170     A.U. after   14 cycles
 SCF Done:  E(RB3LYP) =  -2359.35737273     A.U. after   12 cycles
 SCF Done:  E(RB3LYP) =  -2359.35742996     A.U. after   12 cycles
 SCF Done:  E(RB3LYP) =  -2359.35746636     A.U. after   11 cycles
 SCF Done:  E(RB3LYP) =  -2359.35748182     A.U. after   11 cycles
 SCF Done:  E(RB3LYP) =  -2359.35749012     A.U. after   10 cycles
 SCF Done:  E(RB3LYP) =  -2359.35749910     A.U. after   10 cycles
 SCF Done:  E(RB3LYP) =  -2359.35751882     A.U. after    9 cycles
 SCF Done:  E(RB3LYP) =  -2359.35751863     A.U. after    9 cycles
 SCF Done:  E(RB3LYP) =  -2359.35751857     A.U. after    9 cycles
 SCF Done:  E(RB3LYP) =  -2359.35751879     A.U. after    9 cycles
 SCF Done:  E(RB3LYP) =  -2359.35751894     A.U. after    8 cycles
 SCF Done:  E(RB3LYP) =  -2359.35751906     A.U. after    9 cycles
 SCF Done:  E(RB3LYP) =  -2359.35751913     A.U. after    8 cycles
 SCF Done:  E(RB3LYP) =  -2359.35751925     A.U. after    9 cycles
 SCF Done:  E(RB3LYP) =  -2359.35751919     A.U. after    8 cycles
 SCF Done:  E(RB3LYP) =  -2359.35751926     A.U. after    8 cycles
 Optimization completed.
    -- Stationary point found.

                         Standard orientation:
 ---------------------------------------------------------------------
 Center     Atomic      Atomic             Coordinates (Angstroms)
 Number     Number       Type             X           Y           Z
 ---------------------------------------------------------------------
      1          6           0       -3.205835   -2.854768    0.273657
      2          6           0       -2.599386   -1.500829    0.208601
      3          6           0       -3.409453   -0.371416   -0.030108
      4          6           0       -4.804210   -0.511659   -0.210700
      5          6           0       -5.435065   -1.856435   -0.154418
      6          6           0       -1.242118   -1.346898    0.385295
      7          6           0       -2.807088    0.913769   -0.086907
      8          6           0       -1.403550    1.054465    0.089792
      9          6           0       -0.618640   -0.076753    0.335689
     10          6           0       -0.808489    2.420216   -0.003867
     11          6           0       -3.060851    3.401480   -0.383871
     12          6           0       -3.637699    2.036559   -0.321729
     13          6           0       -5.001103    1.876917   -0.494569
     14          6           0       -5.587749    0.603476   -0.440974
     15          1           0       -6.654523    0.485685   -0.578134
     16          1           0       -5.612444    2.751751   -0.672239
     17          1           0       -0.633147   -2.221409    0.573165
     18          7           0       -1.680775    3.498987   -0.211540
     19          7           0       -4.586922   -2.944940    0.087507
     20          8           0       -2.545443   -3.860657    0.479099
     21          8           0       -6.635036   -2.013577   -0.310007
     22          8           0       -3.751280    4.390536   -0.576563
     23          8           0        0.385973    2.638967    0.087985
     24          6           0       -1.055223    4.829621   -0.275566
     25          1           0       -0.486363    5.009486    0.635602
     26          1           0       -0.380371    4.881580   -1.130093
     27          1           0       -1.844043    5.566537   -0.378530
     28          6           0       -5.167976   -4.295361    0.151994
     29          1           0       -4.726339   -4.922401   -0.622214
     30          1           0       -4.962203   -4.737028    1.126582
     31          1           0       -6.237973   -4.209614   -0.001802
     32          6           0        0.846221   -0.057684    0.567091
     33          6           0        1.499472    0.066258    1.760513
     34         16           0        1.952891   -0.353638   -0.744217
     35          6           0        2.913420   -0.046343    1.626045
     36          1           0        0.987545    0.244088    2.695051
     37          6           0        3.348833   -0.274391    0.329866
     38          8           0        3.821968    0.042863    2.636231
     39          6           0        4.702669   -0.432950   -0.146235
     40          6           0        3.336896    0.320315    3.954393
     41          6           0        5.130791   -0.677935   -1.443596
     42         16           0        6.104317   -0.323712    0.915782
     43          1           0        4.217477    0.363028    4.592016
     44          1           0        2.815521    1.280927    3.985149
     45          1           0        2.672388   -0.475103    4.302553
     46          6           0        6.546027   -0.774844   -1.585129
     47          8           0        4.212648   -0.802181   -2.442001
     48          6           0        7.195808   -0.604061   -0.396093
     49          1           0        7.055404   -0.961566   -2.519287
     50          6           0        4.691464   -1.054366   -3.767325
     51          1           0        8.258673   -0.628672   -0.210379
     52          1           0        5.238665   -1.999954   -3.812239
     53          1           0        3.806023   -1.116023   -4.396665
     54          1           0        5.330607   -0.237955   -4.114398
 ---------------------------------------------------------------------

 The electronic state is 1-A.
 Alpha  occ. eigenvalues --  -88.88353 -88.88159 -19.16534 -19.16504 -19.13097
 Alpha  occ. eigenvalues --  -19.13095 -19.12856 -19.12850 -14.39058 -14.38849
 Alpha  occ. eigenvalues --  -10.31689 -10.31530 -10.31523 -10.31420 -10.24319
 Alpha  occ. eigenvalues --  -10.24205 -10.23792 -10.23367 -10.23145 -10.22939
 Alpha  occ. eigenvalues --  -10.22645 -10.22638 -10.22634 -10.22615 -10.22607
 Alpha  occ. eigenvalues --  -10.21930 -10.21683 -10.21561 -10.21545 -10.21486
 Alpha  occ. eigenvalues --  -10.21467 -10.20995 -10.20870 -10.20374 -10.18575
 Alpha  occ. eigenvalues --  -10.18437  -7.96902  -7.96720  -5.93226  -5.93029
 Alpha  occ. eigenvalues --   -5.92838  -5.92644  -5.92441  -5.92290  -1.09201
 Alpha  occ. eigenvalues --   -1.09112  -1.07876  -1.07784  -1.07400  -1.07272
 Alpha  occ. eigenvalues --   -0.96730  -0.96460  -0.92866  -0.90101  -0.88566
 Alpha  occ. eigenvalues --   -0.86908  -0.84693  -0.80474  -0.78825  -0.77424
 Alpha  occ. eigenvalues --   -0.75959  -0.75489  -0.74751  -0.73010  -0.72669
 Alpha  occ. eigenvalues --   -0.71853  -0.69876  -0.68727  -0.67656  -0.66279
 Alpha  occ. eigenvalues --   -0.65769  -0.65142  -0.61027  -0.59704  -0.58666
 Alpha  occ. eigenvalues --   -0.57764  -0.56562  -0.55582  -0.55548  -0.54300
 Alpha  occ. eigenvalues --   -0.53858  -0.52041  -0.50516  -0.50347  -0.50041
 Alpha  occ. eigenvalues --   -0.49452  -0.49323  -0.48756  -0.48057  -0.47773
 Alpha  occ. eigenvalues --   -0.47640  -0.47543  -0.47044  -0.46919  -0.45913
 Alpha  occ. eigenvalues --   -0.45448  -0.45283  -0.45049  -0.44395  -0.44041
 Alpha  occ. eigenvalues --   -0.42967  -0.42894  -0.42503  -0.41933  -0.41799
 Alpha  occ. eigenvalues --   -0.41440  -0.41309  -0.41277  -0.40773  -0.40161
 Alpha  occ. eigenvalues --   -0.39888  -0.39028  -0.38615  -0.37877  -0.37314
 Alpha  occ. eigenvalues --   -0.35934  -0.35635  -0.34083  -0.33657  -0.33514
 Alpha  occ. eigenvalues --   -0.33363  -0.32605  -0.31741  -0.30860  -0.30078
 Alpha  occ. eigenvalues --   -0.29782  -0.29634  -0.29227  -0.28553  -0.27813
 Alpha  occ. eigenvalues --   -0.26622  -0.24872  -0.24570  -0.19275
 Alpha virt. eigenvalues --   -0.13522  -0.07088  -0.05835  -0.05169  -0.05111
 Alpha virt. eigenvalues --   -0.00639  -0.00586   0.00102   0.00447   0.00599
 Alpha virt. eigenvalues --    0.00716   0.00842   0.00874   0.01298   0.02115

 Mulliken charges:
               1
     1  C    0.451348
     2  C    0.051375
     3  C    0.248194
     4  C    0.211924
     5  C    0.313899
     6  C   -0.598644
     7  C    0.208305
     8  C    0.026152
     9  C    0.584833
    10  C   -0.383074
    11  C    0.247505
    12  C    0.224052
    13  C   -0.547855
    14  C   -0.664771
    15  H    0.168718
    16  H    0.168871
    17  H    0.161927
    18  N   -0.128488
    19  N   -0.112605
    20  O   -0.335484
    21  O   -0.330622
    22  O   -0.332882
    23  O   -0.172208
    24  C   -0.232293
    25  H    0.183315
    26  H    0.187891
    27  H    0.181660
    28  C   -0.215637
    29  H    0.184568
    30  H    0.184144
    31  H    0.180651
    32  C    0.138270
    33  C   -0.487612
    34  S   -0.113933
    35  C   -0.131371
    36  H    0.147106
    37  C    0.223861
    38  O   -0.172631
    39  C    0.720577
    40  C   -0.235880
    41  C    0.051002
    42  S   -0.256001
    43  H    0.175550
    44  H    0.165142
    45  H    0.161646
    46  C   -0.540762
    47  O   -0.180151
    48  C   -0.371094
    49  H    0.159623
    50  C   -0.246171
    51  H    0.186830
    52  H    0.158716
    53  H    0.172593
    54  H    0.159922
 Sum of Mulliken charges =  -0.00000

 Dipole moment (field-independent basis, Debye):
    X=              0.2393    Y=              0.0292    Z=              0.1463  Tot=              0.2820
 Quadrupole moment (field-independent basis, Debye-Ang):
   XX=           -220.1475   YY=           -236.3162   ZZ=           -191.5268
   XY=             -0.0784   XZ=            -13.5602   YZ=              8.2556

 Normal termination of Gaussian 16 at Thu Oct 28 02:26:05 2021.
