 Gaussian 16, Revision C.01,
 Gaussian 16:  ES64L-G16RevC.01  3-Jul-2019

 ---------------------------------------------------------------
 # opt=modredundant b3lyp/6-311+g(d,p) scrf=(pcm, solvent=water)
 ---------------------------------------------------------------

 ------------
 NDI_-140.pdb
 ------------
 Symbolic Z-matrix:
 Charge =  0 Multiplicity = 1

 SCF Done:  E(RB3LYP) =  -2359.34335713     A.U. after   16 cycles
 SCF Done:  E(RB3LYP) =  -2359.34509238     A.U. after   17 cycles
 SCF Done:  E(RB3LYP) =  -2359.35274888     A.U. after   13 cycles
 SCF Done:  E(RB3LYP) =  -2359.35660175     A.U. after   13 cycles
 SCF Done:  E(RB3LYP) =  -2359.35728759     A.U. after   13 cycles
 SCF Done:  E(RB3LYP) =  -2359.35777842     A.U. after   15 cycles
 SCF Done:  E(RB3LYP) =  -2359.35816251     A.U. after   13 cycles
 SCF Done:  E(RB3LYP) =  -2359.35881455     A.U. after   13 cycles
 SCF Done:  E(RB3LYP) =  -2359.35904874     A.U. after   13 cycles
 SCF Done:  E(RB3LYP) =  -2359.35920584     A.U. after   12 cycles
 SCF Done:  E(RB3LYP) =  -2359.35950401     A.U. after   10 cycles
 SCF Done:  E(RB3LYP) =  -2359.35951081     A.U. after   10 cycles
 SCF Done:  E(RB3LYP) =  -2359.35951220     A.U. after    9 cycles
 SCF Done:  E(RB3LYP) =  -2359.35951271     A.U. after    9 cycles
 SCF Done:  E(RB3LYP) =  -2359.35951284     A.U. after    9 cycles
 SCF Done:  E(RB3LYP) =  -2359.35951290     A.U. after    8 cycles
 SCF Done:  E(RB3LYP) =  -2359.35951292     A.U. after    8 cycles
 SCF Done:  E(RB3LYP) =  -2359.35951288     A.U. after    9 cycles
 SCF Done:  E(RB3LYP) =  -2359.35951287     A.U. after    8 cycles
 SCF Done:  E(RB3LYP) =  -2359.35951282     A.U. after    7 cycles
 Optimization completed.
    -- Stationary point found.

                         Standard orientation:
 ---------------------------------------------------------------------
 Center     Atomic      Atomic             Coordinates (Angstroms)
 Number     Number       Type             X           Y           Z
 ---------------------------------------------------------------------
      1          6           0       -3.530012   -2.685719    0.408570
      2          6           0       -2.771054   -1.448230    0.099868
      3          6           0       -3.422751   -0.193838    0.117369
      4          6           0       -4.792144   -0.097358    0.440118
      5          6           0       -5.570735   -1.320259    0.764722
      6          6           0       -1.423468   -1.519748   -0.159342
      7          6           0       -2.677927    0.971931   -0.205031
      8          6           0       -1.296946    0.875648   -0.531551
      9          6           0       -0.641505   -0.365582   -0.437920
     10          6           0       -0.640381    2.081576   -1.101192
     11          6           0       -2.614020    3.465506   -0.513348
     12          6           0       -3.345855    2.220511   -0.185575
     13          6           0       -4.689831    2.294805    0.145458
     14          6           0       -5.417126    1.139040    0.455928
     15          1           0       -6.467401    1.201874    0.707648
     16          1           0       -5.171666    3.263618    0.159831
     17          1           0       -0.934596   -2.483488   -0.105931
     18          7           0       -1.293773    3.313720   -0.931665
     19          7           0       -4.884409   -2.541513    0.717888
     20          8           0       -3.016208   -3.793687    0.399620
     21          8           0       -6.755084   -1.274614    1.056808
     22          8           0       -3.135355    4.570064   -0.448308
     23          8           0        0.407121    2.046299   -1.725777
     24          6           0       -0.570112    4.513239   -1.380103
     25          1           0        0.478576    4.413239   -1.112832
     26          1           0       -0.652443    4.628897   -2.462746
     27          1           0       -1.008343    5.376363   -0.889352
     28          6           0       -5.619975   -3.778832    1.022578
     29          1           0       -5.555087   -4.460941    0.175511
     30          1           0       -5.185698   -4.259835    1.898976
     31          1           0       -6.654615   -3.517307    1.215160
     32          6           0        0.804263   -0.581248   -0.520592
     33          6           0        1.441345   -1.617944   -1.168431
     34         16           0        1.939353    0.369617    0.403124
     35          6           0        2.840022   -1.625619   -0.961792
     36          1           0        0.918393   -2.327396   -1.793287
     37          6           0        3.296698   -0.617866   -0.113667
     38          8           0        3.729835   -2.502206   -1.496173
     39          6           0        4.643496   -0.376731    0.328868
     40          6           0        3.221198   -3.556832   -2.321625
     41          6           0        5.095163    0.625943    1.181600
     42         16           0        6.008812   -1.374096   -0.169980
     43          1           0        4.087966   -4.139372   -2.626073
     44          1           0        2.530335   -4.192081   -1.760834
     45          1           0        2.722281   -3.152678   -3.206527
     46          6           0        6.497751    0.596623    1.425310
     47          8           0        4.208264    1.514458    1.696956
     48          6           0        7.112814   -0.427223    0.761720
     49          1           0        7.023637    1.295730    2.058775
     50          6           0        4.709476    2.554152    2.546857
     51          1           0        8.161539   -0.682594    0.765518
     52          1           0        5.424427    3.183885    2.011159
     53          1           0        3.842932    3.146335    2.832667
     54          1           0        5.177494    2.133786    3.440682
 ---------------------------------------------------------------------

 The electronic state is 1-A.
 Alpha  occ. eigenvalues --  -88.88656 -88.88530 -19.17008 -19.16894 -19.12938
 Alpha  occ. eigenvalues --  -19.12915 -19.12507 -19.12494 -14.38904 -14.38519
 Alpha  occ. eigenvalues --  -10.31511 -10.31353 -10.31182 -10.31006 -10.24866
 Alpha  occ. eigenvalues --  -10.24845 -10.23676 -10.22828 -10.22809 -10.22807
 Alpha  occ. eigenvalues --  -10.22596 -10.22536 -10.22525 -10.22345 -10.22332
 Alpha  occ. eigenvalues --  -10.22309 -10.22146 -10.21901 -10.21582 -10.21151
 Alpha  occ. eigenvalues --  -10.21085 -10.20919 -10.20890 -10.20808 -10.19260
 Alpha  occ. eigenvalues --  -10.18763  -7.97218  -7.97089  -5.93541  -5.93398
 Alpha  occ. eigenvalues --   -5.93152  -5.93011  -5.92754  -5.92657  -1.09020
 Alpha  occ. eigenvalues --   -1.08723  -1.08387  -1.08272  -1.07215  -1.06853
 Alpha  occ. eigenvalues --   -0.96537  -0.96169  -0.92551  -0.90526  -0.88885
 Alpha  occ. eigenvalues --   -0.86768  -0.84378  -0.80600  -0.78556  -0.77653
 Alpha  occ. eigenvalues --   -0.76306  -0.75325  -0.75191  -0.73313  -0.72623
 Alpha  occ. eigenvalues --   -0.71646  -0.70255  -0.68870  -0.67436  -0.66052
 Alpha  occ. eigenvalues --   -0.65518  -0.65061  -0.61133  -0.59941  -0.58718
 Alpha  occ. eigenvalues --   -0.57611  -0.56771  -0.55948  -0.55083  -0.54746
 Alpha  occ. eigenvalues --   -0.53898  -0.51801  -0.50390  -0.50160  -0.49855
 Alpha  occ. eigenvalues --   -0.49626  -0.49228  -0.48618  -0.48274  -0.47962
 Alpha  occ. eigenvalues --   -0.47884  -0.47370  -0.47021  -0.46648  -0.45822
 Alpha  occ. eigenvalues --   -0.45508  -0.45368  -0.45155  -0.44345  -0.43881
 Alpha  occ. eigenvalues --   -0.42893  -0.42623  -0.42197  -0.42102  -0.41892
 Alpha  occ. eigenvalues --   -0.41759  -0.41559  -0.41162  -0.40746  -0.40115
 Alpha  occ. eigenvalues --   -0.39669  -0.39191  -0.38809  -0.37856  -0.37548
 Alpha  occ. eigenvalues --   -0.36361  -0.36016  -0.34275  -0.33941  -0.33811
 Alpha  occ. eigenvalues --   -0.33635  -0.32198  -0.31589  -0.30771  -0.30063
 Alpha  occ. eigenvalues --   -0.29691  -0.29317  -0.29223  -0.28664  -0.27678
 Alpha  occ. eigenvalues --   -0.26240  -0.25188  -0.24755  -0.19582
 Alpha virt. eigenvalues --   -0.13325  -0.07433  -0.06467  -0.04916  -0.04196
 Alpha virt. eigenvalues --   -0.00845  -0.00614   0.00103   0.00348   0.00421
 Alpha virt. eigenvalues --    0.00757   0.01116   0.01236   0.01392   0.02076

 Mulliken charges:
               1
     1  C    0.444594
     2  C   -0.102461
     3  C    0.127826
     4  C    0.247438
     5  C    0.294120
     6  C   -0.228096
     7  C    0.136498
     8  C    0.208841
     9  C    0.316765
    10  C   -0.455667
    11  C    0.336998
    12  C    0.079796
    13  C   -0.472640
    14  C   -0.596619
    15  H    0.166038
    16  H    0.166159
    17  H    0.165608
    18  N    0.015657
    19  N   -0.111211
    20  O   -0.343858
    21  O   -0.334679
    22  O   -0.352982
    23  O   -0.278379
    24  C   -0.201671
    25  H    0.182325
    26  H    0.192255
    27  H    0.181119
    28  C   -0.212569
    29  H    0.182222
    30  H    0.185242
    31  H    0.180418
    32  C    0.266876
    33  C   -0.610758
    34  S   -0.632086
    35  C   -0.102603
    36  H    0.166708
    37  C    0.562786
    38  O   -0.162149
    39  C    0.833379
    40  C   -0.238768
    41  C    0.017488
    42  S   -0.234871
    43  H    0.177451
    44  H    0.166816
    45  H    0.163346
    46  C   -0.612467
    47  O   -0.162294
    48  C   -0.317863
    49  H    0.162521
    50  C   -0.252805
    51  H    0.190697
    52  H    0.162493
    53  H    0.175182
    54  H    0.161835
 Sum of Mulliken charges =  -0.00000

 Dipole moment (field-independent basis, Debye):
    X=              3.9900    Y=             -0.7683    Z=              1.0706  Tot=              4.2020
 Quadrupole moment (field-independent basis, Debye-Ang):
   XX=           -211.2218   YY=           -220.0290   ZZ=           -212.9705
   XY=             11.9603   XZ=             15.3679   YZ=             18.0604

 Normal termination of Gaussian 16 at Wed Oct 27 22:03:39 2021.
