 Gaussian 16, Revision C.01,
 Gaussian 16:  ES64L-G16RevC.01  3-Jul-2019

 ---------------------------------------------------------------
 # opt=modredundant b3lyp/6-311+g(d,p) scrf=(pcm, solvent=water)
 ---------------------------------------------------------------

 -----------
 NDI_-85.pdb
 -----------
 Symbolic Z-matrix:
 Charge =  0 Multiplicity = 1

 SCF Done:  E(RB3LYP) =  -2359.35357646     A.U. after   17 cycles
 SCF Done:  E(RB3LYP) =  -2359.35714250     A.U. after   14 cycles
 SCF Done:  E(RB3LYP) =  -2359.35755178     A.U. after   12 cycles
 SCF Done:  E(RB3LYP) =  -2359.35754931     A.U. after   13 cycles
 SCF Done:  E(RB3LYP) =  -2359.35762025     A.U. after   11 cycles
 SCF Done:  E(RB3LYP) =  -2359.35764397     A.U. after   11 cycles
 SCF Done:  E(RB3LYP) =  -2359.35764724     A.U. after   10 cycles
 SCF Done:  E(RB3LYP) =  -2359.35764746     A.U. after   10 cycles
 SCF Done:  E(RB3LYP) =  -2359.35764479     A.U. after   11 cycles
 SCF Done:  E(RB3LYP) =  -2359.35764274     A.U. after   11 cycles
 SCF Done:  E(RB3LYP) =  -2359.35764727     A.U. after   11 cycles
 SCF Done:  E(RB3LYP) =  -2359.35765139     A.U. after   11 cycles
 SCF Done:  E(RB3LYP) =  -2359.35765146     A.U. after   10 cycles
 SCF Done:  E(RB3LYP) =  -2359.35764961     A.U. after    9 cycles
 SCF Done:  E(RB3LYP) =  -2359.35765104     A.U. after    9 cycles
 SCF Done:  E(RB3LYP) =  -2359.35765157     A.U. after    9 cycles
 SCF Done:  E(RB3LYP) =  -2359.35765383     A.U. after    9 cycles
 SCF Done:  E(RB3LYP) =  -2359.35765353     A.U. after    9 cycles
 SCF Done:  E(RB3LYP) =  -2359.35765357     A.U. after    9 cycles
 Optimization completed.
    -- Stationary point found.

                         Standard orientation:
 ---------------------------------------------------------------------
 Center     Atomic      Atomic             Coordinates (Angstroms)
 Number     Number       Type             X           Y           Z
 ---------------------------------------------------------------------
      1          6           0        3.137751   -2.868586    0.357247
      2          6           0        2.562388   -1.504846    0.237791
      3          6           0        3.402106   -0.399939   -0.013851
      4          6           0        4.797591   -0.574069   -0.153735
      5          6           0        5.398388   -1.928778   -0.037726
      6          6           0        1.205949   -1.316741    0.383681
      7          6           0        2.828309    0.894612   -0.126664
      8          6           0        1.424455    1.070013    0.014282
      9          6           0        0.612128   -0.034588    0.291406
     10          6           0        0.858072    2.438966   -0.168113
     11          6           0        3.141100    3.364989   -0.500285
     12          6           0        3.687832    1.991930   -0.377176
     13          6           0        5.051736    1.799410   -0.508996
     14          6           0        5.610089    0.517070   -0.398934
     15          1           0        6.677293    0.373377   -0.504114
     16          1           0        5.685520    2.655549   -0.698640
     17          1           0        0.575532   -2.171792    0.589665
     18          7           0        1.758009    3.493811   -0.381029
     19          7           0        4.521564   -2.991778    0.215213
     20          8           0        2.450693   -3.854861    0.570388
     21          8           0        6.598497   -2.115038   -0.155873
     22          8           0        3.857219    4.334235   -0.700203
     23          8           0       -0.335669    2.679600   -0.149156
     24          6           0        1.160149    4.830851   -0.525041
     25          1           0        0.528865    4.861602   -1.413286
     26          1           0        0.550601    5.053579    0.349565
     27          1           0        1.966024    5.550749   -0.615699
     28          6           0        5.072593   -4.350700    0.337553
     29          1           0        4.808943   -4.766076    1.309554
     30          1           0        4.659234   -4.987526   -0.444485
     31          1           0        6.150412   -4.287831    0.236372
     32          6           0       -0.850378    0.027377    0.524824
     33          6           0       -1.494362    0.292307    1.700665
     34         16           0       -1.968068   -0.422424   -0.732571
     35          6           0       -2.908425    0.161667    1.593561
     36          1           0       -0.974288    0.577028    2.603721
     37          6           0       -3.354888   -0.217144    0.336567
     38          8           0       -3.808559    0.366430    2.594286
     39          6           0       -4.712720   -0.425846   -0.106709
     40          6           0       -3.311482    0.773528    3.873800
     41          6           0       -5.152804   -0.814285   -1.364655
     42         16           0       -6.104488   -0.198293    0.949580
     43          1           0       -4.186821    0.886594    4.510023
     44          1           0       -2.648876    0.013149    4.296191
     45          1           0       -2.784550    1.728961    3.803098
     46          6           0       -6.569147   -0.926995   -1.480763
     47          8           0       -4.243980   -1.048709   -2.351426
     48          6           0       -7.207725   -0.624713   -0.311953
     49          1           0       -7.087276   -1.217575   -2.383024
     50          6           0       -4.735090   -1.430921   -3.640727
     51          1           0       -8.268702   -0.629266   -0.114233
     52          1           0       -5.373629   -0.650251   -4.063123
     53          1           0       -3.855204   -1.560190   -4.267572
     54          1           0       -5.286483   -2.373500   -3.585869
 ---------------------------------------------------------------------

 The electronic state is 1-A.
 Alpha  occ. eigenvalues --  -88.88404 -88.88173 -19.16552 -19.16525 -19.13086
 Alpha  occ. eigenvalues --  -19.13084 -19.12838 -19.12826 -14.39048 -14.38828
 Alpha  occ. eigenvalues --  -10.31678 -10.31520 -10.31504 -10.31400 -10.24349
 Alpha  occ. eigenvalues --  -10.24235 -10.23784 -10.23330 -10.23124 -10.22916
 Alpha  occ. eigenvalues --  -10.22648 -10.22626 -10.22624 -10.22615 -10.22582
 Alpha  occ. eigenvalues --  -10.21953 -10.21679 -10.21594 -10.21536 -10.21490
 Alpha  occ. eigenvalues --  -10.21465 -10.20990 -10.20862 -10.20395 -10.18597
 Alpha  occ. eigenvalues --  -10.18452  -7.96952  -7.96735  -5.93276  -5.93043
 Alpha  occ. eigenvalues --   -5.92888  -5.92659  -5.92492  -5.92305  -1.09190
 Alpha  occ. eigenvalues --   -1.09088  -1.07896  -1.07806  -1.07388  -1.07247
 Alpha  occ. eigenvalues --   -0.96717  -0.96439  -0.92846  -0.90128  -0.88581
 Alpha  occ. eigenvalues --   -0.86901  -0.84672  -0.80475  -0.78808  -0.77436
 Alpha  occ. eigenvalues --   -0.75979  -0.75476  -0.74779  -0.73016  -0.72653
 Alpha  occ. eigenvalues --   -0.71867  -0.69883  -0.68733  -0.67645  -0.66261
 Alpha  occ. eigenvalues --   -0.65762  -0.65126  -0.61039  -0.59707  -0.58668
 Alpha  occ. eigenvalues --   -0.57748  -0.56552  -0.55612  -0.55566  -0.54311
 Alpha  occ. eigenvalues --   -0.53832  -0.52029  -0.50504  -0.50332  -0.50030
 Alpha  occ. eigenvalues --   -0.49467  -0.49317  -0.48748  -0.48053  -0.47775
 Alpha  occ. eigenvalues --   -0.47644  -0.47549  -0.47040  -0.46903  -0.45904
 Alpha  occ. eigenvalues --   -0.45470  -0.45260  -0.45053  -0.44376  -0.44029
 Alpha  occ. eigenvalues --   -0.42943  -0.42903  -0.42487  -0.41937  -0.41805
 Alpha  occ. eigenvalues --   -0.41450  -0.41316  -0.41282  -0.40768  -0.40147
 Alpha  occ. eigenvalues --   -0.39877  -0.39047  -0.38651  -0.37865  -0.37329
 Alpha  occ. eigenvalues --   -0.35950  -0.35631  -0.34089  -0.33684  -0.33539
 Alpha  occ. eigenvalues --   -0.33366  -0.32581  -0.31738  -0.30862  -0.30066
 Alpha  occ. eigenvalues --   -0.29780  -0.29617  -0.29236  -0.28569  -0.27786
 Alpha  occ. eigenvalues --   -0.26596  -0.24880  -0.24598  -0.19289
 Alpha virt. eigenvalues --   -0.13507  -0.07085  -0.05862  -0.05157  -0.05086
 Alpha virt. eigenvalues --   -0.00633  -0.00591   0.00091   0.00470   0.00582
 Alpha virt. eigenvalues --    0.00739   0.00812   0.00884   0.01318   0.02118

 Mulliken charges:
               1
     1  C    0.456385
     2  C    0.019462
     3  C    0.237745
     4  C    0.207526
     5  C    0.308096
     6  C   -0.576328
     7  C    0.205740
     8  C    0.078917
     9  C    0.599530
    10  C   -0.416960
    11  C    0.251447
    12  C    0.208510
    13  C   -0.533878
    14  C   -0.661159
    15  H    0.168509
    16  H    0.168595
    17  H    0.163421
    18  N   -0.123067
    19  N   -0.113041
    20  O   -0.336291
    21  O   -0.330812
    22  O   -0.334135
    23  O   -0.172259
    24  C   -0.228872
    25  H    0.187908
    26  H    0.183455
    27  H    0.181596
    28  C   -0.215365
    29  H    0.183280
    30  H    0.185359
    31  H    0.180635
    32  C    0.135989
    33  C   -0.512204
    34  S   -0.155040
    35  C   -0.147259
    36  H    0.148411
    37  C    0.298817
    38  O   -0.172767
    39  C    0.714126
    40  C   -0.234835
    41  C    0.037715
    42  S   -0.253820
    43  H    0.175635
    44  H    0.161799
    45  H    0.164798
    46  C   -0.540312
    47  O   -0.177845
    48  C   -0.368648
    49  H    0.159818
    50  C   -0.246855
    51  H    0.187013
    52  H    0.160062
    53  H    0.172658
    54  H    0.158796
 Sum of Mulliken charges =  -0.00000

 Dipole moment (field-independent basis, Debye):
    X=             -0.3994    Y=              0.0045    Z=              0.2460  Tot=              0.4691
 Quadrupole moment (field-independent basis, Debye-Ang):
   XX=           -219.9897   YY=           -234.5213   ZZ=           -193.2729
   XY=              1.4463   XZ=             12.8521   YZ=             11.7112

 Normal termination of Gaussian 16 at Wed Oct 27 18:53:03 2021.
