 Gaussian 16, Revision C.01,
 Gaussian 16:  ES64L-G16RevC.01  3-Jul-2019

 ---------------------------------------------------------------
 # opt=modredundant b3lyp/6-311+g(d,p) scrf=(pcm, solvent=water)
 ---------------------------------------------------------------

 -----------
 NDI_-90.pdb
 -----------
 Symbolic Z-matrix:
 Charge =  0 Multiplicity = 1

 SCF Done:  E(RB3LYP) =  -2359.35318677     A.U. after   17 cycles
 SCF Done:  E(RB3LYP) =  -2359.35701987     A.U. after   14 cycles
 SCF Done:  E(RB3LYP) =  -2359.35740401     A.U. after   12 cycles
 SCF Done:  E(RB3LYP) =  -2359.35740154     A.U. after   13 cycles
 SCF Done:  E(RB3LYP) =  -2359.35748913     A.U. after   12 cycles
 SCF Done:  E(RB3LYP) =  -2359.35750799     A.U. after   11 cycles
 SCF Done:  E(RB3LYP) =  -2359.35751312     A.U. after   11 cycles
 SCF Done:  E(RB3LYP) =  -2359.35751327     A.U. after   11 cycles
 SCF Done:  E(RB3LYP) =  -2359.35751292     A.U. after   10 cycles
 SCF Done:  E(RB3LYP) =  -2359.35751312     A.U. after   10 cycles
 SCF Done:  E(RB3LYP) =  -2359.35751644     A.U. after    9 cycles
 SCF Done:  E(RB3LYP) =  -2359.35751762     A.U. after    9 cycles
 SCF Done:  E(RB3LYP) =  -2359.35751862     A.U. after   10 cycles
 SCF Done:  E(RB3LYP) =  -2359.35751906     A.U. after    9 cycles
 SCF Done:  E(RB3LYP) =  -2359.35751951     A.U. after    9 cycles
 SCF Done:  E(RB3LYP) =  -2359.35751971     A.U. after    8 cycles
 SCF Done:  E(RB3LYP) =  -2359.35752007     A.U. after    9 cycles
 SCF Done:  E(RB3LYP) =  -2359.35752024     A.U. after    8 cycles
 SCF Done:  E(RB3LYP) =  -2359.35752024     A.U. after    9 cycles
 SCF Done:  E(RB3LYP) =  -2359.35752009     A.U. after    9 cycles
 Optimization completed.
    -- Stationary point found.

                         Standard orientation:
 ---------------------------------------------------------------------
 Center     Atomic      Atomic             Coordinates (Angstroms)
 Number     Number       Type             X           Y           Z
 ---------------------------------------------------------------------
      1          6           0        3.205607   -2.854818    0.273942
      2          6           0        2.599254   -1.500850    0.208571
      3          6           0        3.409467   -0.371527   -0.030103
      4          6           0        4.804249   -0.511863   -0.210275
      5          6           0        5.435027   -1.856651   -0.153554
      6          6           0        1.241961   -1.346781    0.384905
      7          6           0        2.807198    0.913711   -0.087281
      8          6           0        1.403635    1.054540    0.089069
      9          6           0        0.618625   -0.076600    0.335086
     10          6           0        0.808641    2.420302   -0.005329
     11          6           0        3.061170    3.401349   -0.384728
     12          6           0        3.637914    2.036405   -0.322115
     13          6           0        5.001373    1.876645   -0.494540
     14          6           0        5.587904    0.603204   -0.440572
     15          1           0        6.654704    0.485318   -0.577441
     16          1           0        5.612807    2.751416   -0.672198
     17          1           0        0.632825   -2.221153    0.572886
     18          7           0        1.681010    3.498967   -0.213231
     19          7           0        4.586898   -2.944963    0.089263
     20          8           0        2.544988   -3.860714    0.478548
     21          8           0        6.634945   -2.013953   -0.309366
     22          8           0        3.751793    4.390305   -0.577189
     23          8           0       -0.385845    2.639123    0.086011
     24          6           0        1.055519    4.829550   -0.278162
     25          1           0        0.379478    4.880338   -1.131796
     26          1           0        0.487975    5.010827    0.633566
     27          1           0        1.844274    5.566234   -0.383238
     28          6           0        5.167969   -4.295317    0.154704
     29          1           0        4.955553   -4.738955    1.126908
     30          1           0        4.732050   -4.921047   -0.623862
     31          1           0        6.238952   -4.208887    0.008359
     32          6           0       -0.846224   -0.057274    0.566591
     33          6           0       -1.499302    0.067561    1.760018
     34         16           0       -1.953122   -0.354297   -0.744276
     35          6           0       -2.913208   -0.045315    1.625927
     36          1           0       -0.987107    0.246049    2.694301
     37          6           0       -3.348821   -0.274291    0.329963
     38          8           0       -3.821596    0.044562    2.636215
     39          6           0       -4.702774   -0.433028   -0.145751
     40          6           0       -3.336353    0.323546    3.953967
     41          6           0       -5.131125   -0.679506   -1.442755
     42         16           0       -6.104309   -0.321694    0.916223
     43          1           0       -4.216825    0.366804    4.591703
     44          1           0       -2.671656   -0.471369    4.302919
     45          1           0       -2.815130    1.284275    3.983587
     46          6           0       -6.546402   -0.775922   -1.584055
     47          8           0       -4.213132   -0.805462   -2.441073
     48          6           0       -7.196005   -0.603281   -0.395182
     49          1           0       -7.055936   -0.963692   -2.517918
     50          6           0       -4.692166   -1.058157   -3.766195
     51          1           0       -8.258863   -0.627253   -0.209360
     52          1           0       -5.330781   -0.241544   -4.113768
     53          1           0       -3.806797   -1.120797   -4.395536
     54          1           0       -5.239996   -2.003408   -3.810522
 ---------------------------------------------------------------------

 The electronic state is 1-A.
 Alpha  occ. eigenvalues --  -88.88353 -88.88159 -19.16534 -19.16504 -19.13097
 Alpha  occ. eigenvalues --  -19.13095 -19.12856 -19.12850 -14.39058 -14.38849
 Alpha  occ. eigenvalues --  -10.31689 -10.31530 -10.31523 -10.31420 -10.24318
 Alpha  occ. eigenvalues --  -10.24205 -10.23792 -10.23367 -10.23145 -10.22939
 Alpha  occ. eigenvalues --  -10.22645 -10.22638 -10.22634 -10.22615 -10.22607
 Alpha  occ. eigenvalues --  -10.21930 -10.21683 -10.21560 -10.21545 -10.21486
 Alpha  occ. eigenvalues --  -10.21467 -10.20995 -10.20870 -10.20374 -10.18574
 Alpha  occ. eigenvalues --  -10.18437  -7.96902  -7.96720  -5.93226  -5.93029
 Alpha  occ. eigenvalues --   -5.92838  -5.92644  -5.92441  -5.92290  -1.09201
 Alpha  occ. eigenvalues --   -1.09112  -1.07876  -1.07785  -1.07400  -1.07273
 Alpha  occ. eigenvalues --   -0.96730  -0.96461  -0.92865  -0.90102  -0.88566
 Alpha  occ. eigenvalues --   -0.86908  -0.84693  -0.80474  -0.78825  -0.77424
 Alpha  occ. eigenvalues --   -0.75959  -0.75489  -0.74752  -0.73010  -0.72669
 Alpha  occ. eigenvalues --   -0.71853  -0.69876  -0.68727  -0.67656  -0.66278
 Alpha  occ. eigenvalues --   -0.65768  -0.65142  -0.61027  -0.59704  -0.58666
 Alpha  occ. eigenvalues --   -0.57764  -0.56562  -0.55583  -0.55548  -0.54300
 Alpha  occ. eigenvalues --   -0.53858  -0.52041  -0.50516  -0.50347  -0.50041
 Alpha  occ. eigenvalues --   -0.49452  -0.49323  -0.48756  -0.48057  -0.47773
 Alpha  occ. eigenvalues --   -0.47640  -0.47543  -0.47044  -0.46919  -0.45913
 Alpha  occ. eigenvalues --   -0.45448  -0.45284  -0.45049  -0.44395  -0.44041
 Alpha  occ. eigenvalues --   -0.42966  -0.42895  -0.42503  -0.41934  -0.41799
 Alpha  occ. eigenvalues --   -0.41440  -0.41309  -0.41277  -0.40773  -0.40161
 Alpha  occ. eigenvalues --   -0.39888  -0.39028  -0.38615  -0.37877  -0.37314
 Alpha  occ. eigenvalues --   -0.35934  -0.35636  -0.34083  -0.33658  -0.33514
 Alpha  occ. eigenvalues --   -0.33362  -0.32605  -0.31741  -0.30860  -0.30078
 Alpha  occ. eigenvalues --   -0.29782  -0.29634  -0.29227  -0.28553  -0.27813
 Alpha  occ. eigenvalues --   -0.26622  -0.24872  -0.24570  -0.19275
 Alpha virt. eigenvalues --   -0.13522  -0.07088  -0.05834  -0.05168  -0.05111
 Alpha virt. eigenvalues --   -0.00639  -0.00586   0.00102   0.00448   0.00599
 Alpha virt. eigenvalues --    0.00716   0.00841   0.00874   0.01298   0.02115

 Mulliken charges:
               1
     1  C    0.451353
     2  C    0.050959
     3  C    0.248015
     4  C    0.211806
     5  C    0.313687
     6  C   -0.598757
     7  C    0.208314
     8  C    0.026720
     9  C    0.585139
    10  C   -0.383374
    11  C    0.247544
    12  C    0.224067
    13  C   -0.547794
    14  C   -0.664457
    15  H    0.168714
    16  H    0.168866
    17  H    0.161945
    18  N   -0.128440
    19  N   -0.112624
    20  O   -0.335486
    21  O   -0.330632
    22  O   -0.332858
    23  O   -0.172207
    24  C   -0.232188
    25  H    0.187814
    26  H    0.183373
    27  H    0.181663
    28  C   -0.215696
    29  H    0.183891
    30  H    0.184832
    31  H    0.180645
    32  C    0.138660
    33  C   -0.488244
    34  S   -0.113965
    35  C   -0.131289
    36  H    0.147107
    37  C    0.224213
    38  O   -0.172633
    39  C    0.720482
    40  C   -0.235898
    41  C    0.050699
    42  S   -0.255992
    43  H    0.175543
    44  H    0.161628
    45  H    0.165153
    46  C   -0.540611
    47  O   -0.180135
    48  C   -0.371044
    49  H    0.159621
    50  C   -0.246185
    51  H    0.186831
    52  H    0.159935
    53  H    0.172590
    54  H    0.158703
 Sum of Mulliken charges =  -0.00000

 Dipole moment (field-independent basis, Debye):
    X=             -0.2398    Y=              0.0313    Z=              0.1497  Tot=              0.2844
 Quadrupole moment (field-independent basis, Debye-Ang):
   XX=           -220.1413   YY=           -236.3099   ZZ=           -191.5390
   XY=              0.0795   XZ=             13.5757   YZ=              8.2598

 Normal termination of Gaussian 16 at Wed Oct 27 19:40:36 2021.
