 Gaussian 16, Revision C.01,
 Gaussian 16:  ES64L-G16RevC.01  3-Jul-2019

 ---------------------------------------------------------------
 # opt=modredundant b3lyp/6-311+g(d,p) scrf=(pcm, solvent=water)
 ---------------------------------------------------------------

 ------------
 NDI_-175.pdb
 ------------
 Symbolic Z-matrix:
 Charge =  0 Multiplicity = 1

 SCF Done:  E(RB3LYP) =  -2359.31286205     A.U. after   17 cycles
 SCF Done:  E(RB3LYP) =  -2359.34321871     A.U. after   17 cycles
 SCF Done:  E(RB3LYP) =  -2359.35208937     A.U. after   16 cycles
 SCF Done:  E(RB3LYP) =  -2359.35407707     A.U. after   13 cycles
 SCF Done:  E(RB3LYP) =  -2359.35445121     A.U. after   12 cycles
 SCF Done:  E(RB3LYP) =  -2359.35449587     A.U. after   13 cycles
 SCF Done:  E(RB3LYP) =  -2359.35460655     A.U. after   11 cycles
 SCF Done:  E(RB3LYP) =  -2359.35475264     A.U. after   16 cycles
 SCF Done:  E(RB3LYP) =  -2359.35483367     A.U. after   12 cycles
 SCF Done:  E(RB3LYP) =  -2359.35500884     A.U. after   12 cycles
 SCF Done:  E(RB3LYP) =  -2359.35635825     A.U. after   11 cycles
 SCF Done:  E(RB3LYP) =  -2359.35636447     A.U. after   11 cycles
 SCF Done:  E(RB3LYP) =  -2359.35637147     A.U. after   11 cycles
 SCF Done:  E(RB3LYP) =  -2359.35637483     A.U. after   10 cycles
 SCF Done:  E(RB3LYP) =  -2359.35637632     A.U. after   10 cycles
 SCF Done:  E(RB3LYP) =  -2359.35637657     A.U. after    8 cycles
 SCF Done:  E(RB3LYP) =  -2359.35637666     A.U. after    8 cycles
 SCF Done:  E(RB3LYP) =  -2359.35637672     A.U. after    8 cycles
 SCF Done:  E(RB3LYP) =  -2359.35637678     A.U. after    8 cycles
 SCF Done:  E(RB3LYP) =  -2359.35637680     A.U. after    8 cycles
 Optimization completed.
    -- Stationary point found.

                         Standard orientation:
 ---------------------------------------------------------------------
 Center     Atomic      Atomic             Coordinates (Angstroms)
 Number     Number       Type             X           Y           Z
 ---------------------------------------------------------------------
      1          6           0       -3.600940   -2.643315    0.079056
      2          6           0       -2.814269   -1.397218   -0.098544
      3          6           0       -3.430032   -0.137092    0.081838
      4          6           0       -4.785589   -0.043700    0.448087
      5          6           0       -5.592535   -1.275205    0.641447
      6          6           0       -1.477492   -1.477715   -0.384528
      7          6           0       -2.649220    1.030884   -0.122898
      8          6           0       -1.276338    0.934120   -0.493913
      9          6           0       -0.638231   -0.332329   -0.550458
     10          6           0       -0.627874    2.180008   -0.958436
     11          6           0       -2.529511    3.541588   -0.138402
     12          6           0       -3.281314    2.285705    0.064108
     13          6           0       -4.615660    2.358145    0.441729
     14          6           0       -5.373697    1.199614    0.631511
     15          1           0       -6.415059    1.261403    0.917744
     16          1           0       -5.062331    3.333347    0.584806
     17          1           0       -1.050057   -2.467283   -0.438603
     18          7           0       -1.235370    3.403502   -0.631258
     19          7           0       -4.945637   -2.500703    0.427362
     20          8           0       -3.118932   -3.756325   -0.067831
     21          8           0       -6.768390   -1.234377    0.967784
     22          8           0       -3.012585    4.645084    0.081574
     23          8           0        0.390923    2.195118   -1.635277
     24          6           0       -0.492697    4.623519   -0.982074
     25          1           0        0.557871    4.481233   -0.741784
     26          1           0       -0.587313    4.836691   -2.048709
     27          1           0       -0.907022    5.446735   -0.409127
     28          6           0       -5.713469   -3.744426    0.594448
     29          1           0       -5.644645   -4.339603   -0.315153
     30          1           0       -5.309252   -4.321152    1.426762
     31          1           0       -6.745992   -3.479290    0.793389
     32          6           0        0.794213   -0.614122   -0.602152
     33          6           0        1.354484   -1.881234   -0.756223
     34         16           0        2.036960    0.514416   -0.096595
     35          6           0        2.731108   -1.937349   -0.495853
     36          1           0        0.792496   -2.745217   -1.073782
     37          6           0        3.279565   -0.719088   -0.083300
     38          8           0        3.535378   -3.025810   -0.604171
     39          6           0        4.641254   -0.444557    0.267106
     40          6           0        2.943352   -4.261256   -1.023463
     41          6           0        5.186783    0.766511    0.694424
     42         16           0        5.910689   -1.668829    0.216501
     43          1           0        3.754659   -4.985334   -1.048001
     44          1           0        2.180560   -4.588601   -0.311943
     45          1           0        2.507128   -4.164614   -2.021356
     46          6           0        6.581187    0.710790    0.969786
     47          8           0        4.388788    1.852399    0.811385
     48          6           0        7.096126   -0.537193    0.755304
     49          1           0        7.172533    1.548257    1.309199
     50          6           0        4.976157    3.081238    1.263098
     51          1           0        8.118074   -0.859715    0.885536
     52          1           0        5.749709    3.418883    0.569193
     53          1           0        4.164317    3.804471    1.287287
     54          1           0        5.395381    2.964189    2.265407
 ---------------------------------------------------------------------

 The electronic state is 1-A.
 Alpha  occ. eigenvalues --  -88.88829 -88.88823 -19.17415 -19.17063 -19.12843
 Alpha  occ. eigenvalues --  -19.12811 -19.12236 -19.12198 -14.38816 -14.38335
 Alpha  occ. eigenvalues --  -10.31397 -10.31243 -10.30863 -10.30695 -10.25437
 Alpha  occ. eigenvalues --  -10.25042 -10.23995 -10.23150 -10.22992 -10.22903
 Alpha  occ. eigenvalues --  -10.22794 -10.22605 -10.22252 -10.22162 -10.22157
 Alpha  occ. eigenvalues --  -10.22059 -10.22045 -10.21788 -10.21459 -10.21338
 Alpha  occ. eigenvalues --  -10.20875 -10.20836 -10.20719 -10.20717 -10.19715
 Alpha  occ. eigenvalues --  -10.19033  -7.97386  -7.97371  -5.93696  -5.93693
 Alpha  occ. eigenvalues --   -5.93308  -5.93290  -5.92953  -5.92913  -1.08917
 Alpha  occ. eigenvalues --   -1.08834  -1.08502  -1.08484  -1.07107  -1.06563
 Alpha  occ. eigenvalues --   -0.96432  -0.95973  -0.92303  -0.90762  -0.89105
 Alpha  occ. eigenvalues --   -0.86617  -0.84137  -0.80691  -0.78363  -0.77798
 Alpha  occ. eigenvalues --   -0.76541  -0.75553  -0.75165  -0.73518  -0.72520
 Alpha  occ. eigenvalues --   -0.71567  -0.70504  -0.68973  -0.67288  -0.65925
 Alpha  occ. eigenvalues --   -0.65432  -0.64978  -0.61229  -0.60157  -0.58754
 Alpha  occ. eigenvalues --   -0.57522  -0.56828  -0.56221  -0.55135  -0.54863
 Alpha  occ. eigenvalues --   -0.53886  -0.51639  -0.50337  -0.50142  -0.49727
 Alpha  occ. eigenvalues --   -0.49539  -0.49137  -0.48584  -0.48489  -0.48139
 Alpha  occ. eigenvalues --   -0.48069  -0.47273  -0.46936  -0.46517  -0.45839
 Alpha  occ. eigenvalues --   -0.45571  -0.45389  -0.44936  -0.44267  -0.43730
 Alpha  occ. eigenvalues --   -0.42901  -0.42685  -0.42324  -0.42100  -0.41924
 Alpha  occ. eigenvalues --   -0.41829  -0.41528  -0.41110  -0.40746  -0.40106
 Alpha  occ. eigenvalues --   -0.39732  -0.39268  -0.38904  -0.37786  -0.37333
 Alpha  occ. eigenvalues --   -0.36559  -0.36375  -0.34471  -0.34191  -0.33803
 Alpha  occ. eigenvalues --   -0.33724  -0.31939  -0.31452  -0.30766  -0.30286
 Alpha  occ. eigenvalues --   -0.29648  -0.29319  -0.29004  -0.28624  -0.27438
 Alpha  occ. eigenvalues --   -0.26127  -0.25280  -0.24836  -0.19790
 Alpha virt. eigenvalues --   -0.13190  -0.08170  -0.06422  -0.04688  -0.03881
 Alpha virt. eigenvalues --   -0.00686  -0.00516   0.00168   0.00240   0.00409
 Alpha virt. eigenvalues --    0.00871   0.01318   0.01514   0.01578   0.02097

 Mulliken charges:
               1
     1  C    0.412688
     2  C   -0.090566
     3  C    0.160709
     4  C    0.214423
     5  C    0.281060
     6  C    0.173905
     7  C    0.059708
     8  C    0.435484
     9  C    0.361392
    10  C   -0.667396
    11  C    0.329708
    12  C    0.076477
    13  C   -0.464729
    14  C   -0.588014
    15  H    0.163602
    16  H    0.164487
    17  H    0.164876
    18  N    0.044847
    19  N   -0.117059
    20  O   -0.346191
    21  O   -0.333700
    22  O   -0.359625
    23  O   -0.286739
    24  C   -0.199466
    25  H    0.182569
    26  H    0.190171
    27  H    0.179896
    28  C   -0.213087
    29  H    0.180448
    30  H    0.185873
    31  H    0.179285
    32  C   -0.054984
    33  C   -0.342667
    34  S   -0.720193
    35  C   -0.512984
    36  H    0.160056
    37  C    0.646897
    38  O   -0.158163
    39  C    0.850605
    40  C   -0.243152
    41  C   -0.003090
    42  S   -0.217456
    43  H    0.179847
    44  H    0.164575
    45  H    0.165112
    46  C   -0.536763
    47  O   -0.145888
    48  C   -0.317839
    49  H    0.164791
    50  C   -0.254253
    51  H    0.193818
    52  H    0.165295
    53  H    0.177063
    54  H    0.164337
 Sum of Mulliken charges =  -0.00000

 Dipole moment (field-independent basis, Debye):
    X=              6.7752    Y=             -1.4658    Z=              1.3534  Tot=              7.0628
 Quadrupole moment (field-independent basis, Debye-Ang):
   XX=           -203.7005   YY=           -212.5760   ZZ=           -223.9739
   XY=             15.5729   XZ=             14.9094   YZ=              9.2867

 Normal termination of Gaussian 16 at Thu Oct 28 02:15:11 2021.
