 Gaussian 16, Revision C.01,
 Gaussian 16:  ES64L-G16RevC.01  3-Jul-2019

 ---------------------------------------------------------------
 # opt=modredundant b3lyp/6-311+g(d,p) scrf=(pcm, solvent=water)
 ---------------------------------------------------------------

 ------------
 NDI_-170.pdb
 ------------
 Symbolic Z-matrix:
 Charge =  0 Multiplicity = 1

 SCF Done:  E(RB3LYP) =  -2359.31602780     A.U. after   17 cycles
 SCF Done:  E(RB3LYP) =  -2359.34380467     A.U. after   17 cycles
 SCF Done:  E(RB3LYP) =  -2359.35273605     A.U. after   16 cycles
 SCF Done:  E(RB3LYP) =  -2359.35468093     A.U. after   14 cycles
 SCF Done:  E(RB3LYP) =  -2359.35510886     A.U. after   12 cycles
 SCF Done:  E(RB3LYP) =  -2359.35520335     A.U. after   15 cycles
 SCF Done:  E(RB3LYP) =  -2359.35535649     A.U. after   15 cycles
 SCF Done:  E(RB3LYP) =  -2359.35547875     A.U. after   12 cycles
 SCF Done:  E(RB3LYP) =  -2359.35581415     A.U. after   16 cycles
 SCF Done:  E(RB3LYP) =  -2359.35599747     A.U. after   12 cycles
 SCF Done:  E(RB3LYP) =  -2359.35704411     A.U. after   11 cycles
 SCF Done:  E(RB3LYP) =  -2359.35705832     A.U. after   11 cycles
 SCF Done:  E(RB3LYP) =  -2359.35706538     A.U. after   11 cycles
 SCF Done:  E(RB3LYP) =  -2359.35707278     A.U. after   11 cycles
 SCF Done:  E(RB3LYP) =  -2359.35708245     A.U. after   11 cycles
 SCF Done:  E(RB3LYP) =  -2359.35708743     A.U. after   11 cycles
 SCF Done:  E(RB3LYP) =  -2359.35708937     A.U. after   11 cycles
 SCF Done:  E(RB3LYP) =  -2359.35708953     A.U. after    9 cycles
 SCF Done:  E(RB3LYP) =  -2359.35708959     A.U. after    8 cycles
 SCF Done:  E(RB3LYP) =  -2359.35708961     A.U. after    8 cycles
 Optimization completed.
    -- Stationary point found.

                         Standard orientation:
 ---------------------------------------------------------------------
 Center     Atomic      Atomic             Coordinates (Angstroms)
 Number     Number       Type             X           Y           Z
 ---------------------------------------------------------------------
      1          6           0       -3.577040   -2.657008    0.143506
      2          6           0       -2.799297   -1.410640   -0.067834
      3          6           0       -3.421303   -0.150394    0.089966
      4          6           0       -4.775469   -0.057055    0.463015
      5          6           0       -5.573698   -1.288966    0.687996
      6          6           0       -1.463166   -1.488509   -0.361430
      7          6           0       -2.650370    1.019101   -0.142965
      8          6           0       -1.279970    0.923294   -0.520241
      9          6           0       -0.637851   -0.339372   -0.556937
     10          6           0       -0.638732    2.162004   -1.017790
     11          6           0       -2.543125    3.529122   -0.211492
     12          6           0       -3.288225    2.273860    0.021489
     13          6           0       -4.620386    2.346025    0.405342
     14          6           0       -5.369610    1.186219    0.623948
     15          1           0       -6.409568    1.247624    0.915413
     16          1           0       -5.072925    3.320946    0.530932
     17          1           0       -1.021890   -2.473612   -0.394454
     18          7           0       -1.250732    3.388520   -0.708871
     19          7           0       -4.920872   -2.514796    0.495505
     20          8           0       -3.088584   -3.769973    0.019814
     21          8           0       -6.747487   -1.248120    1.021588
     22          8           0       -3.030807    4.634226   -0.011596
     23          8           0        0.372732    2.166914   -1.704538
     24          6           0       -0.518739    4.606491   -1.088071
     25          1           0        0.536998    4.467903   -0.869804
     26          1           0       -0.637588    4.809482   -2.154331
     27          1           0       -0.921508    5.434927   -0.514258
     28          6           0       -5.680352   -3.759093    0.693840
     29          1           0       -5.604230   -4.377607   -0.199360
     30          1           0       -5.274836   -4.310661    1.542501
     31          1           0       -6.715344   -3.496198    0.882719
     32          6           0        0.796846   -0.605333   -0.614995
     33          6           0        1.374336   -1.850054   -0.846583
     34         16           0        2.013071    0.507913   -0.024229
     35          6           0        2.752747   -1.898558   -0.585128
     36          1           0        0.822882   -2.697331   -1.223972
     37          6           0        3.278969   -0.700653   -0.092780
     38          8           0        3.575992   -2.964122   -0.759188
     39          6           0        4.633826   -0.427108    0.286199
     40          6           0        3.003504   -4.185042   -1.243353
     41          6           0        5.156150    0.763488    0.791189
     42         16           0        5.922845   -1.625950    0.171981
     43          1           0        3.826772   -4.892956   -1.308339
     44          1           0        2.248197   -4.562928   -0.549074
     45          1           0        2.563115   -4.042389   -2.233817
     46          6           0        6.549348    0.713154    1.074518
     47          8           0        4.338897    1.827437    0.968114
     48          6           0        7.086260   -0.511016    0.788960
     49          1           0        7.124207    1.537615    1.469582
     50          6           0        4.905655    3.040666    1.483370
     51          1           0        8.112182   -0.825033    0.908076
     52          1           0        5.673809    3.426584    0.808807
     53          1           0        4.082011    3.748284    1.544109
     54          1           0        5.326487    2.879216    2.478801
 ---------------------------------------------------------------------

 The electronic state is 1-A.
 Alpha  occ. eigenvalues --  -88.88821 -88.88795 -19.17370 -19.17046 -19.12851
 Alpha  occ. eigenvalues --  -19.12821 -19.12252 -19.12234 -14.38824 -14.38347
 Alpha  occ. eigenvalues --  -10.31407 -10.31255 -10.30904 -10.30732 -10.25366
 Alpha  occ. eigenvalues --  -10.25035 -10.23913 -10.23115 -10.22974 -10.22891
 Alpha  occ. eigenvalues --  -10.22714 -10.22624 -10.22212 -10.22208 -10.22193
 Alpha  occ. eigenvalues --  -10.22094 -10.22083 -10.21830 -10.21481 -10.21282
 Alpha  occ. eigenvalues --  -10.20880 -10.20878 -10.20766 -10.20728 -10.19668
 Alpha  occ. eigenvalues --  -10.19001  -7.97377  -7.97352  -5.93699  -5.93662
 Alpha  occ. eigenvalues --   -5.93299  -5.93274  -5.92919  -5.92918  -1.08927
 Alpha  occ. eigenvalues --   -1.08780  -1.08500  -1.08475  -1.07117  -1.06588
 Alpha  occ. eigenvalues --   -0.96442  -0.95985  -0.92337  -0.90749  -0.89089
 Alpha  occ. eigenvalues --   -0.86637  -0.84166  -0.80685  -0.78386  -0.77786
 Alpha  occ. eigenvalues --   -0.76515  -0.75524  -0.75172  -0.73501  -0.72531
 Alpha  occ. eigenvalues --   -0.71568  -0.70478  -0.68963  -0.67302  -0.65933
 Alpha  occ. eigenvalues --   -0.65436  -0.64983  -0.61221  -0.60131  -0.58745
 Alpha  occ. eigenvalues --   -0.57527  -0.56825  -0.56193  -0.55088  -0.54875
 Alpha  occ. eigenvalues --   -0.53890  -0.51655  -0.50335  -0.50140  -0.49735
 Alpha  occ. eigenvalues --   -0.49562  -0.49143  -0.48582  -0.48464  -0.48121
 Alpha  occ. eigenvalues --   -0.48049  -0.47254  -0.46953  -0.46527  -0.45835
 Alpha  occ. eigenvalues --   -0.45535  -0.45389  -0.44996  -0.44283  -0.43746
 Alpha  occ. eigenvalues --   -0.42886  -0.42660  -0.42294  -0.42084  -0.41943
 Alpha  occ. eigenvalues --   -0.41845  -0.41531  -0.41112  -0.40741  -0.40098
 Alpha  occ. eigenvalues --   -0.39716  -0.39260  -0.38901  -0.37813  -0.37380
 Alpha  occ. eigenvalues --   -0.36529  -0.36373  -0.34440  -0.34167  -0.33823
 Alpha  occ. eigenvalues --   -0.33727  -0.31968  -0.31468  -0.30759  -0.30261
 Alpha  occ. eigenvalues --   -0.29653  -0.29319  -0.29042  -0.28627  -0.27463
 Alpha  occ. eigenvalues --   -0.26131  -0.25281  -0.24818  -0.19760
 Alpha virt. eigenvalues --   -0.13211  -0.08071  -0.06435  -0.04716  -0.03908
 Alpha virt. eigenvalues --   -0.00713  -0.00537   0.00156   0.00252   0.00381
 Alpha virt. eigenvalues --    0.00844   0.01307   0.01425   0.01585   0.02051

 Mulliken charges:
               1
     1  C    0.416879
     2  C   -0.087508
     3  C    0.163540
     4  C    0.228781
     5  C    0.278486
     6  C    0.158338
     7  C    0.077058
     8  C    0.441775
     9  C    0.340788
    10  C   -0.685620
    11  C    0.348547
    12  C    0.066303
    13  C   -0.476395
    14  C   -0.590195
    15  H    0.163998
    16  H    0.164631
    17  H    0.164139
    18  N    0.053052
    19  N   -0.116099
    20  O   -0.346891
    21  O   -0.334324
    22  O   -0.359090
    23  O   -0.287915
    24  C   -0.205226
    25  H    0.182900
    26  H    0.190535
    27  H    0.180122
    28  C   -0.212071
    29  H    0.180138
    30  H    0.186365
    31  H    0.179448
    32  C   -0.007986
    33  C   -0.483310
    34  S   -0.714053
    35  C   -0.480197
    36  H    0.161648
    37  C    0.696674
    38  O   -0.157707
    39  C    0.875772
    40  C   -0.243217
    41  C   -0.000554
    42  S   -0.212776
    43  H    0.179523
    44  H    0.165429
    45  H    0.164347
    46  C   -0.554805
    47  O   -0.149178
    48  C   -0.313811
    49  H    0.164566
    50  C   -0.254429
    51  H    0.193535
    52  H    0.165110
    53  H    0.176774
    54  H    0.164154
 Sum of Mulliken charges =  -0.00000

 Dipole moment (field-independent basis, Debye):
    X=              6.4477    Y=             -1.3821    Z=              1.3663  Tot=              6.7343
 Quadrupole moment (field-independent basis, Debye-Ang):
   XX=           -204.7247   YY=           -213.3108   ZZ=           -222.7427
   XY=             14.9892   XZ=             15.4910   YZ=             11.3168

 Normal termination of Gaussian 16 at Wed Oct 27 22:26:16 2021.
