 Gaussian 16, Revision C.01,
 Gaussian 16:  ES64L-G16RevC.01  3-Jul-2019

 ---------------------------------------------------------------
 # opt=modredundant b3lyp/6-311+g(d,p) scrf=(pcm, solvent=water)
 ---------------------------------------------------------------

 ---------
 NDI_5.pdb
 ---------
 Symbolic Z-matrix:
 Charge =  0 Multiplicity = 1

 SCF Done:  E(RB3LYP) =  -2359.33752108     A.U. after   16 cycles
 SCF Done:  E(RB3LYP) =  -2359.33452357     A.U. after   17 cycles
 SCF Done:  E(RB3LYP) =  -2359.35065435     A.U. after   14 cycles
 SCF Done:  E(RB3LYP) =  -2359.35312073     A.U. after   16 cycles
 SCF Done:  E(RB3LYP) =  -2359.35377689     A.U. after   13 cycles
 SCF Done:  E(RB3LYP) =  -2359.35439422     A.U. after   13 cycles
 SCF Done:  E(RB3LYP) =  -2359.35471146     A.U. after   13 cycles
 SCF Done:  E(RB3LYP) =  -2359.35491331     A.U. after   16 cycles
 SCF Done:  E(RB3LYP) =  -2359.35505903     A.U. after   12 cycles
 SCF Done:  E(RB3LYP) =  -2359.35513700     A.U. after   12 cycles
 SCF Done:  E(RB3LYP) =  -2359.35520849     A.U. after   11 cycles
 SCF Done:  E(RB3LYP) =  -2359.35522048     A.U. after   11 cycles
 SCF Done:  E(RB3LYP) =  -2359.35523306     A.U. after   11 cycles
 SCF Done:  E(RB3LYP) =  -2359.35525901     A.U. after   11 cycles
 SCF Done:  E(RB3LYP) =  -2359.35527916     A.U. after   11 cycles
 SCF Done:  E(RB3LYP) =  -2359.35528648     A.U. after   10 cycles
 SCF Done:  E(RB3LYP) =  -2359.35528942     A.U. after   10 cycles
 SCF Done:  E(RB3LYP) =  -2359.35529025     A.U. after    9 cycles
 SCF Done:  E(RB3LYP) =  -2359.35529062     A.U. after    9 cycles
 SCF Done:  E(RB3LYP) =  -2359.35529068     A.U. after    8 cycles
 Optimization completed.
    -- Stationary point found.

                         Standard orientation:
 ---------------------------------------------------------------------
 Center     Atomic      Atomic             Coordinates (Angstroms)
 Number     Number       Type             X           Y           Z
 ---------------------------------------------------------------------
      1          6           0       -2.438202   -3.024226    0.275219
      2          6           0       -2.185957   -1.562913    0.219498
      3          6           0       -3.250764   -0.663916   -0.014790
      4          6           0       -4.554762   -1.141029   -0.241730
      5          6           0       -4.831053   -2.600064   -0.217083
      6          6           0       -0.910022   -1.092787    0.359861
      7          6           0       -2.970350    0.728530   -0.002592
      8          6           0       -1.648019    1.212655    0.239935
      9          6           0       -0.558198    0.295053    0.318088
     10          6           0       -1.533366    2.660525    0.521657
     11          6           0       -3.841019    3.071107   -0.280053
     12          6           0       -4.051896    1.610428   -0.257658
     13          6           0       -5.328162    1.120943   -0.504072
     14          6           0       -5.589821   -0.250645   -0.488890
     15          1           0       -6.588175   -0.626071   -0.668770
     16          1           0       -6.122158    1.827574   -0.707015
     17          1           0       -0.139541   -1.838519    0.500426
     18          7           0       -2.575904    3.503575    0.099995
     19          7           0       -3.747488   -3.450205    0.046779
     20          8           0       -1.556733   -3.838797    0.503845
     21          8           0       -5.949154   -3.050208   -0.411649
     22          8           0       -4.723459    3.865341   -0.581768
     23          8           0       -0.598091    3.164689    1.129306
     24          6           0       -2.353336    4.950080    0.246229
     25          1           0       -2.477820    5.254358    1.287323
     26          1           0       -1.342202    5.189070   -0.073691
     27          1           0       -3.080656    5.465434   -0.372695
     28          6           0       -3.980606   -4.901999    0.092434
     29          1           0       -3.356873   -5.397142   -0.651304
     30          1           0       -3.725555   -5.285061    1.080380
     31          1           0       -5.028931   -5.082035   -0.118647
     32          6           0        0.870123    0.573075    0.223422
     33          6           0        1.596006    1.751839    0.127086
     34         16           0        1.990709   -0.800686    0.155824
     35          6           0        2.979972    1.564811   -0.015404
     36          1           0        1.138464    2.722248    0.172396
     37          6           0        3.389198    0.226868   -0.014978
     38          8           0        3.915402    2.538436   -0.135530
     39          6           0        4.721905   -0.285420   -0.128523
     40          6           0        3.474461    3.902601   -0.146135
     41          6           0        5.127128   -1.620258   -0.109041
     42         16           0        6.136318    0.750653   -0.320649
     43          1           0        4.374721    4.502848   -0.256720
     44          1           0        2.802935    4.086651   -0.988660
     45          1           0        2.975426    4.156925    0.792467
     46          6           0        6.531161   -1.802756   -0.244165
     47          8           0        4.199761   -2.594860    0.029315
     48          6           0        7.192447   -0.612590   -0.366456
     49          1           0        7.026858   -2.762131   -0.250833
     50          6           0        4.645117   -3.958924    0.055672
     51          1           0        8.254620   -0.458109   -0.481600
     52          1           0        5.318661   -4.130065    0.898863
     53          1           0        3.746675   -4.559726    0.176203
     54          1           0        5.141145   -4.222029   -0.881675
 ---------------------------------------------------------------------

 The electronic state is 1-A.
 Alpha  occ. eigenvalues --  -88.89079 -88.88890 -19.17478 -19.17205 -19.12851
 Alpha  occ. eigenvalues --  -19.12832 -19.12305 -19.12115 -14.38829 -14.38306
 Alpha  occ. eigenvalues --  -10.31408 -10.31257 -10.30963 -10.30600 -10.25501
 Alpha  occ. eigenvalues --  -10.25237 -10.24242 -10.23402 -10.23021 -10.22937
 Alpha  occ. eigenvalues --  -10.22918 -10.22682 -10.22391 -10.22317 -10.22148
 Alpha  occ. eigenvalues --  -10.22055 -10.22041 -10.21743 -10.21529 -10.21387
 Alpha  occ. eigenvalues --  -10.20882 -10.20790 -10.20725 -10.20669 -10.19097
 Alpha  occ. eigenvalues --  -10.19074  -7.97658  -7.97446  -5.93977  -5.93756
 Alpha  occ. eigenvalues --   -5.93584  -5.93368  -5.93201  -5.93013  -1.08935
 Alpha  occ. eigenvalues --   -1.08898  -1.08660  -1.08515  -1.07123  -1.06542
 Alpha  occ. eigenvalues --   -0.96456  -0.95962  -0.92302  -0.90844  -0.89144
 Alpha  occ. eigenvalues --   -0.86617  -0.84140  -0.80675  -0.78453  -0.77947
 Alpha  occ. eigenvalues --   -0.76515  -0.75564  -0.75182  -0.73509  -0.72456
 Alpha  occ. eigenvalues --   -0.71980  -0.70328  -0.68983  -0.67355  -0.65865
 Alpha  occ. eigenvalues --   -0.65649  -0.64757  -0.61458  -0.60131  -0.58785
 Alpha  occ. eigenvalues --   -0.57449  -0.56837  -0.56380  -0.55470  -0.55053
 Alpha  occ. eigenvalues --   -0.53463  -0.51734  -0.50609  -0.50095  -0.49930
 Alpha  occ. eigenvalues --   -0.49520  -0.49112  -0.48601  -0.48555  -0.48136
 Alpha  occ. eigenvalues --   -0.48104  -0.47354  -0.46832  -0.46540  -0.46169
 Alpha  occ. eigenvalues --   -0.45493  -0.45327  -0.44836  -0.44183  -0.43440
 Alpha  occ. eigenvalues --   -0.42989  -0.42744  -0.42489  -0.42166  -0.42089
 Alpha  occ. eigenvalues --   -0.41824  -0.41339  -0.41128  -0.40724  -0.39970
 Alpha  occ. eigenvalues --   -0.39658  -0.39283  -0.39043  -0.38104  -0.37313
 Alpha  occ. eigenvalues --   -0.36690  -0.36287  -0.34515  -0.34277  -0.33818
 Alpha  occ. eigenvalues --   -0.33605  -0.32101  -0.31497  -0.30806  -0.30234
 Alpha  occ. eigenvalues --   -0.29698  -0.29336  -0.28951  -0.28533  -0.27499
 Alpha  occ. eigenvalues --   -0.26272  -0.25351  -0.25055  -0.19882
 Alpha virt. eigenvalues --   -0.13166  -0.08403  -0.06528  -0.04707  -0.03644
 Alpha virt. eigenvalues --   -0.00587  -0.00526   0.00146   0.00245   0.00480
 Alpha virt. eigenvalues --    0.00699   0.01208   0.01464   0.01571   0.01956

 Mulliken charges:
               1
     1  C    0.425090
     2  C    0.003138
     3  C    0.073384
     4  C    0.299804
     5  C    0.341768
     6  C   -0.046222
     7  C    0.079022
     8  C    0.415452
     9  C    0.154801
    10  C   -0.626308
    11  C    0.331637
    12  C    0.187627
    13  C   -0.491414
    14  C   -0.673520
    15  H    0.164000
    16  H    0.165072
    17  H    0.167639
    18  N    0.008249
    19  N   -0.107091
    20  O   -0.349507
    21  O   -0.335748
    22  O   -0.363618
    23  O   -0.322695
    24  C   -0.183590
    25  H    0.189723
    26  H    0.180938
    27  H    0.179525
    28  C   -0.212911
    29  H    0.183177
    30  H    0.183540
    31  H    0.179821
    32  C   -0.104682
    33  C    0.044685
    34  S   -0.725774
    35  C   -0.474623
    36  H    0.186269
    37  C    0.577222
    38  O   -0.156275
    39  C    0.835664
    40  C   -0.246305
    41  C    0.026689
    42  S   -0.197885
    43  H    0.180246
    44  H    0.164339
    45  H    0.166102
    46  C   -0.590930
    47  O   -0.151224
    48  C   -0.346431
    49  H    0.165152
    50  C   -0.254732
    51  H    0.194571
    52  H    0.164671
    53  H    0.177541
    54  H    0.164923
 Sum of Mulliken charges =  -0.00000

 Dipole moment (field-independent basis, Debye):
    X=              7.5630    Y=             -1.0623    Z=             -1.0459  Tot=              7.7085
 Quadrupole moment (field-independent basis, Debye-Ang):
   XX=           -209.2326   YY=           -203.7962   ZZ=           -226.8229
   XY=             -7.5236   XZ=             -7.6667   YZ=             -1.0695

 Normal termination of Gaussian 16 at Wed Oct 27 20:43:28 2021.
