 Gaussian 16, Revision C.01,
 Gaussian 16:  ES64L-G16RevC.01  3-Jul-2019

 ---------------------------------------------------------------
 # opt=modredundant b3lyp/6-311+g(d,p) scrf=(pcm, solvent=water)
 ---------------------------------------------------------------

 ----------
 NDI_15.pdb
 ----------
 Symbolic Z-matrix:
 Charge =  0 Multiplicity = 1

 SCF Done:  E(RB3LYP) =  -2359.33973934     A.U. after   16 cycles
 SCF Done:  E(RB3LYP) =  -2359.33653673     A.U. after   17 cycles
 SCF Done:  E(RB3LYP) =  -2359.35139258     A.U. after   14 cycles
 SCF Done:  E(RB3LYP) =  -2359.35346856     A.U. after   15 cycles
 SCF Done:  E(RB3LYP) =  -2359.35416980     A.U. after   15 cycles
 SCF Done:  E(RB3LYP) =  -2359.35423545     A.U. after   13 cycles
 SCF Done:  E(RB3LYP) =  -2359.35442083     A.U. after   12 cycles
 SCF Done:  E(RB3LYP) =  -2359.35456449     A.U. after   13 cycles
 SCF Done:  E(RB3LYP) =  -2359.35420569     A.U. after   17 cycles
 SCF Done:  E(RB3LYP) =  -2359.35503885     A.U. after   12 cycles
 SCF Done:  E(RB3LYP) =  -2359.35794324     A.U. after   11 cycles
 SCF Done:  E(RB3LYP) =  -2359.35796257     A.U. after   12 cycles
 SCF Done:  E(RB3LYP) =  -2359.35798562     A.U. after   12 cycles
 SCF Done:  E(RB3LYP) =  -2359.35800974     A.U. after   13 cycles
 SCF Done:  E(RB3LYP) =  -2359.35802027     A.U. after   12 cycles
 SCF Done:  E(RB3LYP) =  -2359.35802359     A.U. after   11 cycles
 SCF Done:  E(RB3LYP) =  -2359.35802442     A.U. after   10 cycles
 SCF Done:  E(RB3LYP) =  -2359.35802452     A.U. after    9 cycles
 SCF Done:  E(RB3LYP) =  -2359.35802457     A.U. after    8 cycles
 SCF Done:  E(RB3LYP) =  -2359.35802459     A.U. after    8 cycles
 Optimization completed.
    -- Stationary point found.

                         Standard orientation:
 ---------------------------------------------------------------------
 Center     Atomic      Atomic             Coordinates (Angstroms)
 Number     Number       Type             X           Y           Z
 ---------------------------------------------------------------------
      1          6           0       -2.597415   -3.030029    0.103905
      2          6           0       -2.270138   -1.586012    0.006383
      3          6           0       -3.299925   -0.617986    0.054226
      4          6           0       -4.643029   -1.006109    0.219264
      5          6           0       -4.995943   -2.443987    0.336546
      6          6           0       -0.961053   -1.192427   -0.076250
      7          6           0       -2.949722    0.752807   -0.078472
      8          6           0       -1.590017    1.146032   -0.248211
      9          6           0       -0.557753    0.175128   -0.159343
     10          6           0       -1.354165    2.545538   -0.678514
     11          6           0       -3.704553    3.148377   -0.161109
     12          6           0       -3.997387    1.706354   -0.026931
     13          6           0       -5.313923    1.305359    0.155037
     14          6           0       -5.644269   -0.047382    0.273934
     15          1           0       -6.672766   -0.355423    0.406198
     16          1           0       -6.085463    2.062772    0.200121
     17          1           0       -0.209410   -1.969833   -0.035044
     18          7           0       -2.388177    3.476237   -0.469045
     19          7           0       -3.943307   -3.366956    0.258232
     20          8           0       -1.745973   -3.904862    0.055070
     21          8           0       -6.148292   -2.817179    0.489783
     22          8           0       -4.564725    4.011976   -0.042140
     23          8           0       -0.332205    2.927008   -1.229801
     24          6           0       -2.077209    4.884088   -0.758972
     25          1           0       -1.076363    5.107687   -0.398841
     26          1           0       -2.118501    5.073222   -1.833568
     27          1           0       -2.811790    5.502821   -0.253552
     28          6           0       -4.250693   -4.802338    0.356045
     29          1           0       -3.888620   -5.315181   -0.534398
     30          1           0       -3.760622   -5.225901    1.232760
     31          1           0       -5.326196   -4.912057    0.441025
     32          6           0        0.862003    0.433674    0.020085
     33          6           0        1.525317    1.581036    0.415026
     34         16           0        2.027536   -0.851288   -0.301558
     35          6           0        2.920072    1.430008    0.490253
     36          1           0        1.020057    2.497208    0.667201
     37          6           0        3.385630    0.161667    0.121170
     38          8           0        3.815133    2.372405    0.874465
     39          6           0        4.742440   -0.297487    0.076298
     40          6           0        3.317563    3.665663    1.241960
     41          6           0        5.201231   -1.564564   -0.282171
     42         16           0        6.118866    0.726286    0.485379
     43          1           0        4.193171    4.256870    1.500238
     44          1           0        2.792158    4.131592    0.404342
     45          1           0        2.653506    3.594162    2.107256
     46          6           0        6.615502   -1.707493   -0.228642
     47          8           0        4.309588   -2.518184   -0.638448
     48          6           0        7.231910   -0.553775    0.168175
     49          1           0        7.149137   -2.614797   -0.470182
     50          6           0        4.809070   -3.813094   -1.002484
     51          1           0        8.289969   -0.381599    0.295258
     52          1           0        5.346310   -4.269644   -0.167669
     53          1           0        3.932685   -4.409813   -1.244679
     54          1           0        5.461187   -3.744634   -1.876589
 ---------------------------------------------------------------------

 The electronic state is 1-A.
 Alpha  occ. eigenvalues --  -88.89137 -88.88828 -19.17406 -19.17233 -19.12854
 Alpha  occ. eigenvalues --  -19.12827 -19.12182 -19.12142 -14.38831 -14.38286
 Alpha  occ. eigenvalues --  -10.31413 -10.31257 -10.30901 -10.30670 -10.25378
 Alpha  occ. eigenvalues --  -10.25309 -10.23896 -10.23313 -10.22990 -10.22947
 Alpha  occ. eigenvalues --  -10.22649 -10.22615 -10.22252 -10.22245 -10.22218
 Alpha  occ. eigenvalues --  -10.22115 -10.22082 -10.21789 -10.21538 -10.21295
 Alpha  occ. eigenvalues --  -10.20884 -10.20855 -10.20735 -10.20706 -10.19356
 Alpha  occ. eigenvalues --  -10.19022  -7.97706  -7.97384  -5.94021  -5.93694
 Alpha  occ. eigenvalues --   -5.93633  -5.93306  -5.93254  -5.92951  -1.08935
 Alpha  occ. eigenvalues --   -1.08821  -1.08686  -1.08430  -1.07123  -1.06513
 Alpha  occ. eigenvalues --   -0.96453  -0.95911  -0.92339  -0.90836  -0.89128
 Alpha  occ. eigenvalues --   -0.86642  -0.84162  -0.80655  -0.78457  -0.77903
 Alpha  occ. eigenvalues --   -0.76510  -0.75575  -0.75173  -0.73475  -0.72454
 Alpha  occ. eigenvalues --   -0.71946  -0.70313  -0.68986  -0.67317  -0.65860
 Alpha  occ. eigenvalues --   -0.65616  -0.64767  -0.61420  -0.60113  -0.58720
 Alpha  occ. eigenvalues --   -0.57443  -0.56815  -0.56311  -0.55430  -0.55025
 Alpha  occ. eigenvalues --   -0.53511  -0.51738  -0.50476  -0.50045  -0.49942
 Alpha  occ. eigenvalues --   -0.49442  -0.49120  -0.48589  -0.48538  -0.48131
 Alpha  occ. eigenvalues --   -0.48077  -0.47192  -0.46903  -0.46544  -0.46090
 Alpha  occ. eigenvalues --   -0.45453  -0.45336  -0.44902  -0.44077  -0.43624
 Alpha  occ. eigenvalues --   -0.42948  -0.42788  -0.42467  -0.42186  -0.42029
 Alpha  occ. eigenvalues --   -0.41825  -0.41300  -0.41090  -0.40670  -0.40074
 Alpha  occ. eigenvalues --   -0.39670  -0.39291  -0.39116  -0.38059  -0.37433
 Alpha  occ. eigenvalues --   -0.36592  -0.36325  -0.34484  -0.34235  -0.33883
 Alpha  occ. eigenvalues --   -0.33774  -0.32128  -0.31497  -0.30810  -0.30105
 Alpha  occ. eigenvalues --   -0.29719  -0.29299  -0.29053  -0.28517  -0.27446
 Alpha  occ. eigenvalues --   -0.26206  -0.25251  -0.25002  -0.19794
 Alpha virt. eigenvalues --   -0.13226  -0.08145  -0.06495  -0.04715  -0.03775
 Alpha virt. eigenvalues --   -0.00618  -0.00548   0.00148   0.00280   0.00467
 Alpha virt. eigenvalues --    0.00820   0.01033   0.01447   0.01554   0.01985

 Mulliken charges:
               1
     1  C    0.358204
     2  C   -0.046661
     3  C    0.229295
     4  C    0.209985
     5  C    0.298114
     6  C    0.169156
     7  C    0.223251
     8  C    0.595262
     9  C    0.159805
    10  C   -0.923671
    11  C    0.274892
    12  C    0.128188
    13  C   -0.492815
    14  C   -0.611340
    15  H    0.163808
    16  H    0.164633
    17  H    0.163691
    18  N    0.032650
    19  N   -0.108018
    20  O   -0.352514
    21  O   -0.334416
    22  O   -0.361545
    23  O   -0.298925
    24  C   -0.187768
    25  H    0.179614
    26  H    0.189923
    27  H    0.179077
    28  C   -0.215809
    29  H    0.181762
    30  H    0.184835
    31  H    0.179496
    32  C   -0.178921
    33  C   -0.365797
    34  S   -0.653473
    35  C   -0.383784
    36  H    0.172136
    37  C    0.710911
    38  O   -0.147402
    39  C    0.906205
    40  C   -0.247877
    41  C    0.046397
    42  S   -0.199929
    43  H    0.180261
    44  H    0.167093
    45  H    0.164935
    46  C   -0.633028
    47  O   -0.153439
    48  C   -0.327489
    49  H    0.165087
    50  C   -0.253776
    51  H    0.194174
    52  H    0.164464
    53  H    0.177031
    54  H    0.164065
 Sum of Mulliken charges =  -0.00000

 Dipole moment (field-independent basis, Debye):
    X=              7.0351    Y=             -0.8887    Z=              1.1337  Tot=              7.1810
 Quadrupole moment (field-independent basis, Debye-Ang):
   XX=           -209.5406   YY=           -207.4637   ZZ=           -223.0570
   XY=             -7.5699   XZ=              1.9463   YZ=             11.8815

 Normal termination of Gaussian 16 at Wed Oct 27 22:46:27 2021.
