 Gaussian 16, Revision C.01,
 Gaussian 16:  ES64L-G16RevC.01  3-Jul-2019

 ---------------------------------------------------------------
 # opt=modredundant b3lyp/6-311+g(d,p) scrf=(pcm, solvent=water)
 ---------------------------------------------------------------

 ----------
 NDI_50.pdb
 ----------
 Symbolic Z-matrix:
 Charge =  0 Multiplicity = 1

 SCF Done:  E(RB3LYP) =  -2359.35364965     A.U. after   17 cycles
 SCF Done:  E(RB3LYP) =  -2359.35699968     A.U. after   15 cycles
 SCF Done:  E(RB3LYP) =  -2359.35798493     A.U. after   15 cycles
 SCF Done:  E(RB3LYP) =  -2359.35868605     A.U. after   15 cycles
 SCF Done:  E(RB3LYP) =  -2359.35901168     A.U. after   16 cycles
 SCF Done:  E(RB3LYP) =  -2359.35936007     A.U. after   12 cycles
 SCF Done:  E(RB3LYP) =  -2359.35958506     A.U. after   14 cycles
 SCF Done:  E(RB3LYP) =  -2359.35967439     A.U. after   12 cycles
 SCF Done:  E(RB3LYP) =  -2359.35970557     A.U. after   12 cycles
 SCF Done:  E(RB3LYP) =  -2359.35972700     A.U. after   12 cycles
 SCF Done:  E(RB3LYP) =  -2359.35979691     A.U. after   11 cycles
 SCF Done:  E(RB3LYP) =  -2359.35980334     A.U. after   10 cycles
 SCF Done:  E(RB3LYP) =  -2359.35980544     A.U. after   10 cycles
 SCF Done:  E(RB3LYP) =  -2359.35980720     A.U. after   10 cycles
 SCF Done:  E(RB3LYP) =  -2359.35980817     A.U. after   10 cycles
 SCF Done:  E(RB3LYP) =  -2359.35980917     A.U. after    9 cycles
 SCF Done:  E(RB3LYP) =  -2359.35981013     A.U. after   10 cycles
 SCF Done:  E(RB3LYP) =  -2359.35981077     A.U. after    9 cycles
 SCF Done:  E(RB3LYP) =  -2359.35981097     A.U. after    9 cycles
 SCF Done:  E(RB3LYP) =  -2359.35981100     A.U. after    8 cycles
 Optimization completed.
    -- Stationary point found.

                         Standard orientation:
 ---------------------------------------------------------------------
 Center     Atomic      Atomic             Coordinates (Angstroms)
 Number     Number       Type             X           Y           Z
 ---------------------------------------------------------------------
      1          6           0       -2.810622   -2.952657    0.467793
      2          6           0       -2.382693   -1.549784    0.239945
      3          6           0       -3.347802   -0.532439    0.065440
      4          6           0       -4.725202   -0.831827    0.115730
      5          6           0       -5.179247   -2.227274    0.347929
      6          6           0       -1.044983   -1.236857    0.235161
      7          6           0       -2.909295    0.798416   -0.171042
      8          6           0       -1.519865    1.099557   -0.230100
      9          6           0       -0.576360    0.091606    0.045884
     10          6           0       -1.126756    2.456850   -0.696837
     11          6           0       -3.492845    3.207671   -0.591138
     12          6           0       -3.892118    1.803811   -0.343455
     13          6           0       -5.240688    1.490394   -0.279028
     14          6           0       -5.662040    0.174300   -0.053143
     15          1           0       -6.715965   -0.066138   -0.010569
     16          1           0       -5.967154    2.281879   -0.408201
     17          1           0       -0.329356   -2.026179    0.424674
     18          7           0       -2.127920    3.442922   -0.737922
     19          7           0       -4.184129   -3.202251    0.500537
     20          8           0       -2.015740   -3.867033    0.621700
     21          8           0       -6.362636   -2.521709    0.401932
     22          8           0       -4.308851    4.114168   -0.684746
     23          8           0       -0.001693    2.748975   -1.066388
     24          6           0       -1.691229    4.802554   -1.091127
     25          1           0       -0.788965    5.043315   -0.533774
     26          1           0       -1.476569    4.868479   -2.159302
     27          1           0       -2.490805    5.490152   -0.836183
     28          6           0       -4.589333   -4.598800    0.724741
     29          1           0       -4.160370   -5.232710   -0.050537
     30          1           0       -4.230010   -4.935692    1.697166
     31          1           0       -5.672229   -4.645362    0.690979
     32          6           0        0.860256    0.315773    0.213755
     33          6           0        1.490326    1.241259    1.011825
     34         16           0        2.018061   -0.777755   -0.510706
     35          6           0        2.894880    1.089421    1.034285
     36          1           0        0.954589    1.994892    1.569251
     37          6           0        3.372501    0.041184    0.247514
     38          8           0        3.775965    1.845722    1.739100
     39          6           0        4.738404   -0.349815    0.026304
     40          6           0        3.263274    2.958317    2.481984
     41          6           0        5.207913   -1.417889   -0.731920
     42         16           0        6.107940    0.522262    0.712549
     43          1           0        4.128793    3.435626    2.936296
     44          1           0        2.756638    3.666882    1.821410
     45          1           0        2.578076    2.621998    3.264653
     46          6           0        6.626825   -1.533663   -0.761172
     47          8           0        4.321482   -2.230677   -1.361082
     48          6           0        7.236918   -0.555612   -0.027525
     49          1           0        7.167351   -2.300991   -1.295706
     50          6           0        4.835969   -3.329733   -2.123738
     51          1           0        8.294737   -0.407152    0.127423
     52          1           0        5.400188   -4.015266   -1.486248
     53          1           0        3.966119   -3.840980   -2.530259
     54          1           0        5.467905   -2.973708   -2.941376
 ---------------------------------------------------------------------

 The electronic state is 1-A.
 Alpha  occ. eigenvalues --  -88.88866 -88.88519 -19.16995 -19.16900 -19.12943
 Alpha  occ. eigenvalues --  -19.12923 -19.12472 -19.12386 -14.38915 -14.38497
 Alpha  occ. eigenvalues --  -10.31516 -10.31359 -10.31146 -10.30995 -10.24876
 Alpha  occ. eigenvalues --  -10.24842 -10.23706 -10.22828 -10.22819 -10.22805
 Alpha  occ. eigenvalues --  -10.22644 -10.22529 -10.22528 -10.22349 -10.22313
 Alpha  occ. eigenvalues --  -10.22234 -10.22133 -10.21896 -10.21565 -10.21145
 Alpha  occ. eigenvalues --  -10.21078 -10.20925 -10.20875 -10.20764 -10.19081
 Alpha  occ. eigenvalues --  -10.18758  -7.97423  -7.97078  -5.93740  -5.93387
 Alpha  occ. eigenvalues --   -5.93355  -5.93001  -5.92972  -5.92646  -1.09032
 Alpha  occ. eigenvalues --   -1.08680  -1.08376  -1.08280  -1.07224  -1.06809
 Alpha  occ. eigenvalues --   -0.96551  -0.96111  -0.92545  -0.90542  -0.88878
 Alpha  occ. eigenvalues --   -0.86763  -0.84375  -0.80549  -0.78569  -0.77688
 Alpha  occ. eigenvalues --   -0.76289  -0.75294  -0.75231  -0.73226  -0.72530
 Alpha  occ. eigenvalues --   -0.71909  -0.70114  -0.68881  -0.67437  -0.66017
 Alpha  occ. eigenvalues --   -0.65637  -0.64920  -0.61238  -0.59889  -0.58692
 Alpha  occ. eigenvalues --   -0.57541  -0.56678  -0.55976  -0.55521  -0.54681
 Alpha  occ. eigenvalues --   -0.53614  -0.51841  -0.50410  -0.50103  -0.49997
 Alpha  occ. eigenvalues --   -0.49537  -0.49192  -0.48631  -0.48271  -0.47901
 Alpha  occ. eigenvalues --   -0.47888  -0.47353  -0.46990  -0.46625  -0.45905
 Alpha  occ. eigenvalues --   -0.45544  -0.45262  -0.45040  -0.44183  -0.43870
 Alpha  occ. eigenvalues --   -0.42879  -0.42741  -0.42236  -0.42192  -0.41907
 Alpha  occ. eigenvalues --   -0.41669  -0.41451  -0.41172  -0.40676  -0.39991
 Alpha  occ. eigenvalues --   -0.39797  -0.39248  -0.38980  -0.37755  -0.37626
 Alpha  occ. eigenvalues --   -0.36321  -0.35871  -0.34349  -0.33962  -0.33834
 Alpha  occ. eigenvalues --   -0.33630  -0.32277  -0.31605  -0.30800  -0.30014
 Alpha  occ. eigenvalues --   -0.29756  -0.29315  -0.29279  -0.28547  -0.27578
 Alpha  occ. eigenvalues --   -0.26255  -0.25071  -0.24879  -0.19574
 Alpha virt. eigenvalues --   -0.13338  -0.07388  -0.06476  -0.04903  -0.04242
 Alpha virt. eigenvalues --   -0.00741  -0.00566   0.00098   0.00443   0.00489
 Alpha virt. eigenvalues --    0.00675   0.01051   0.01168   0.01476   0.02139

 Mulliken charges:
               1
     1  C    0.448122
     2  C   -0.102498
     3  C    0.114858
     4  C    0.234434
     5  C    0.300914
     6  C   -0.418574
     7  C    0.176183
     8  C    0.340444
     9  C    0.457558
    10  C   -0.463903
    11  C    0.280014
    12  C    0.134791
    13  C   -0.477647
    14  C   -0.620008
    15  H    0.166108
    16  H    0.166138
    17  H    0.175186
    18  N   -0.040467
    19  N   -0.111332
    20  O   -0.346073
    21  O   -0.332993
    22  O   -0.349748
    23  O   -0.238435
    24  C   -0.201243
    25  H    0.180324
    26  H    0.190646
    27  H    0.180075
    28  C   -0.214688
    29  H    0.182135
    30  H    0.185333
    31  H    0.180268
    32  C    0.158279
    33  C   -0.517845
    34  S   -0.542051
    35  C   -0.251254
    36  H    0.160858
    37  C    0.706175
    38  O   -0.161199
    39  C    0.728045
    40  C   -0.241337
    41  C   -0.011390
    42  S   -0.238868
    43  H    0.177126
    44  H    0.166036
    45  H    0.163050
    46  C   -0.596037
    47  O   -0.160238
    48  C   -0.315318
    49  H    0.162642
    50  C   -0.252230
    51  H    0.190569
    52  H    0.161923
    53  H    0.174697
    54  H    0.162442
 Sum of Mulliken charges =  -0.00000

 Dipole moment (field-independent basis, Debye):
    X=              3.9341    Y=             -0.4805    Z=              0.8591  Tot=              4.0554
 Quadrupole moment (field-independent basis, Debye-Ang):
   XX=           -214.5911   YY=           -215.9514   ZZ=           -213.2237
   XY=             -6.6413   XZ=             -5.4643   YZ=             20.0156

 Normal termination of Gaussian 16 at Wed Oct 27 21:43:53 2021.
