 Gaussian 16, Revision C.01,
 Gaussian 16:  ES64L-G16RevC.01  3-Jul-2019

 ---------------------------------------------------------------
 # opt=modredundant b3lyp/6-311+g(d,p) scrf=(pcm, solvent=water)
 ---------------------------------------------------------------

 -----------
 NDI_165.pdb
 -----------
 Symbolic Z-matrix:
 Charge =  0 Multiplicity = 1

 SCF Done:  E(RB3LYP) =  -2359.31850217     A.U. after   17 cycles
 SCF Done:  E(RB3LYP) =  -2359.34366387     A.U. after   17 cycles
 SCF Done:  E(RB3LYP) =  -2359.35222893     A.U. after   16 cycles
 SCF Done:  E(RB3LYP) =  -2359.35493949     A.U. after   14 cycles
 SCF Done:  E(RB3LYP) =  -2359.35572510     A.U. after   15 cycles
 SCF Done:  E(RB3LYP) =  -2359.35595240     A.U. after   15 cycles
 SCF Done:  E(RB3LYP) =  -2359.35628096     A.U. after   12 cycles
 SCF Done:  E(RB3LYP) =  -2359.35641495     A.U. after   13 cycles
 SCF Done:  E(RB3LYP) =  -2359.35653518     A.U. after   15 cycles
 SCF Done:  E(RB3LYP) =  -2359.35666015     A.U. after   13 cycles
 SCF Done:  E(RB3LYP) =  -2359.35776937     A.U. after    9 cycles
 SCF Done:  E(RB3LYP) =  -2359.35776952     A.U. after    9 cycles
 SCF Done:  E(RB3LYP) =  -2359.35776967     A.U. after    8 cycles
 SCF Done:  E(RB3LYP) =  -2359.35776995     A.U. after    9 cycles
 SCF Done:  E(RB3LYP) =  -2359.35776998     A.U. after    9 cycles
 SCF Done:  E(RB3LYP) =  -2359.35777027     A.U. after    8 cycles
 SCF Done:  E(RB3LYP) =  -2359.35777038     A.U. after    9 cycles
 SCF Done:  E(RB3LYP) =  -2359.35777057     A.U. after    9 cycles
 SCF Done:  E(RB3LYP) =  -2359.35777078     A.U. after    9 cycles
 SCF Done:  E(RB3LYP) =  -2359.35777088     A.U. after    8 cycles
 Optimization completed.
    -- Stationary point found.

                         Standard orientation:
 ---------------------------------------------------------------------
 Center     Atomic      Atomic             Coordinates (Angstroms)
 Number     Number       Type             X           Y           Z
 ---------------------------------------------------------------------
      1          6           0       -3.558676   -2.667488   -0.199199
      2          6           0       -2.787896   -1.421381    0.037391
      3          6           0       -3.416642   -0.161624   -0.096749
      4          6           0       -4.771384   -0.068546   -0.469380
      5          6           0       -5.562433   -1.300341   -0.719526
      6          6           0       -1.450999   -1.496778    0.331692
      7          6           0       -2.654024    1.008850    0.158584
      8          6           0       -1.283943    0.914063    0.534940
      9          6           0       -0.637702   -0.344648    0.549625
     10          6           0       -0.646389    2.146166    1.056768
     11          6           0       -2.559099    3.517428    0.275838
     12          6           0       -3.298435    2.262928    0.018359
     13          6           0       -4.630502    2.334613   -0.364596
     14          6           0       -5.372260    1.174071   -0.606373
     15          1           0       -6.412365    1.234996   -0.897484
     16          1           0       -5.089379    3.308797   -0.471543
     17          1           0       -0.997326   -2.477298    0.345591
     18          7           0       -1.265288    3.374755    0.769706
     19          7           0       -4.903287   -2.525909   -0.548727
     20          8           0       -3.063858   -3.779805   -0.097404
     21          8           0       -6.735670   -1.259550   -1.054929
     22          8           0       -3.053060    4.623239    0.097534
     23          8           0        0.364206    2.142653    1.743858
     24          6           0       -0.539920    4.589585    1.171062
     25          1           0       -0.659943    4.772622    2.240796
     26          1           0        0.516552    4.460453    0.950460
     27          1           0       -0.946806    5.426191    0.612214
     28          6           0       -5.655958   -3.770278   -0.771233
     29          1           0       -5.252093   -4.299946   -1.634576
     30          1           0       -5.570463   -4.408198    0.107262
     31          1           0       -6.693692   -3.509922   -0.948263
     32          6           0        0.799011   -0.597027    0.611904
     33          6           0        1.390842   -1.816014    0.917821
     34         16           0        1.993822    0.496162   -0.051428
     35          6           0        2.771996   -1.857850    0.660514
     36          1           0        0.847070   -2.644062    1.346759
     37          6           0        3.280440   -0.683918    0.097947
     38          8           0        3.611178   -2.898487    0.898251
     39          6           0        4.631135   -0.413130   -0.300225
     40          6           0        3.053263   -4.103054    1.437295
     41          6           0        5.135527    0.754439   -0.871395
     42         16           0        5.937020   -1.585387   -0.122783
     43          1           0        3.886280   -4.794704    1.541512
     44          1           0        2.604173   -3.919536    2.417003
     45          1           0        2.308191   -4.525013    0.757481
     46          6           0        6.529042    0.708328   -1.154915
     47          8           0        4.302494    1.795679   -1.105470
     48          6           0        7.084071   -0.490217   -0.803362
     49          1           0        7.091314    1.517708   -1.596596
     50          6           0        4.854433    2.991317   -1.674535
     51          1           0        8.114116   -0.795973   -0.907209
     52          1           0        5.281241    2.790068   -2.660139
     53          1           0        4.021536    3.684064   -1.770717
     54          1           0        5.614843    3.418652   -1.016269
 ---------------------------------------------------------------------

 The electronic state is 1-A.
 Alpha  occ. eigenvalues --  -88.88811 -88.88757 -19.17318 -19.17028 -19.12862
 Alpha  occ. eigenvalues --  -19.12833 -19.12276 -19.12274 -14.38834 -14.38364
 Alpha  occ. eigenvalues --  -10.31420 -10.31270 -10.30943 -10.30775 -10.25289
 Alpha  occ. eigenvalues --  -10.25021 -10.23844 -10.23052 -10.22953 -10.22879
 Alpha  occ. eigenvalues --  -10.22648 -10.22643 -10.22260 -10.22239 -10.22169
 Alpha  occ. eigenvalues --  -10.22134 -10.22119 -10.21877 -10.21500 -10.21221
 Alpha  occ. eigenvalues --  -10.20921 -10.20885 -10.20816 -10.20739 -10.19607
 Alpha  occ. eigenvalues --  -10.18966  -7.97370  -7.97314  -5.93692  -5.93624
 Alpha  occ. eigenvalues --   -5.93296  -5.93236  -5.92910  -5.92881  -1.08938
 Alpha  occ. eigenvalues --   -1.08721  -1.08521  -1.08452  -1.07129  -1.06619
 Alpha  occ. eigenvalues --   -0.96453  -0.96004  -0.92372  -0.90726  -0.89066
 Alpha  occ. eigenvalues --   -0.86658  -0.84197  -0.80677  -0.78411  -0.77769
 Alpha  occ. eigenvalues --   -0.76486  -0.75488  -0.75183  -0.73479  -0.72543
 Alpha  occ. eigenvalues --   -0.71574  -0.70447  -0.68951  -0.67319  -0.65945
 Alpha  occ. eigenvalues --   -0.65444  -0.64992  -0.61210  -0.60102  -0.58737
 Alpha  occ. eigenvalues --   -0.57535  -0.56819  -0.56160  -0.55044  -0.54889
 Alpha  occ. eigenvalues --   -0.53891  -0.51675  -0.50338  -0.50139  -0.49749
 Alpha  occ. eigenvalues --   -0.49581  -0.49152  -0.48583  -0.48438  -0.48100
 Alpha  occ. eigenvalues --   -0.48029  -0.47250  -0.46970  -0.46538  -0.45835
 Alpha  occ. eigenvalues --   -0.45514  -0.45386  -0.45044  -0.44295  -0.43765
 Alpha  occ. eigenvalues --   -0.42877  -0.42640  -0.42266  -0.42069  -0.41961
 Alpha  occ. eigenvalues --   -0.41852  -0.41529  -0.41118  -0.40737  -0.40092
 Alpha  occ. eigenvalues --   -0.39698  -0.39253  -0.38898  -0.37834  -0.37425
 Alpha  occ. eigenvalues --   -0.36508  -0.36336  -0.34410  -0.34144  -0.33839
 Alpha  occ. eigenvalues --   -0.33716  -0.32001  -0.31485  -0.30750  -0.30233
 Alpha  occ. eigenvalues --   -0.29657  -0.29319  -0.29076  -0.28629  -0.27493
 Alpha  occ. eigenvalues --   -0.26139  -0.25277  -0.24810  -0.19733
 Alpha virt. eigenvalues --   -0.13231  -0.07964  -0.06449  -0.04747  -0.03940
 Alpha virt. eigenvalues --   -0.00741  -0.00558   0.00141   0.00265   0.00368
 Alpha virt. eigenvalues --    0.00823   0.01295   0.01347   0.01582   0.02028

 Mulliken charges:
               1
     1  C    0.422397
     2  C   -0.075631
     3  C    0.156611
     4  C    0.242738
     5  C    0.279510
     6  C    0.115404
     7  C    0.097457
     8  C    0.414483
     9  C    0.304821
    10  C   -0.666924
    11  C    0.365884
    12  C    0.065647
    13  C   -0.488381
    14  C   -0.593647
    15  H    0.164412
    16  H    0.164854
    17  H    0.164624
    18  N    0.053071
    19  N   -0.114871
    20  O   -0.347362
    21  O   -0.334815
    22  O   -0.358253
    23  O   -0.288658
    24  C   -0.208790
    25  H    0.190860
    26  H    0.183034
    27  H    0.180381
    28  C   -0.211870
    29  H    0.186809
    30  H    0.179945
    31  H    0.179647
    32  C    0.023632
    33  C   -0.598260
    34  S   -0.706071
    35  C   -0.362814
    36  H    0.163409
    37  C    0.723644
    38  O   -0.158865
    39  C    0.877765
    40  C   -0.242149
    41  C   -0.007893
    42  S   -0.212169
    43  H    0.179141
    44  H    0.163646
    45  H    0.166230
    46  C   -0.576935
    47  O   -0.152085
    48  C   -0.311737
    49  H    0.164302
    50  C   -0.254426
    51  H    0.193195
    52  H    0.163817
    53  H    0.176492
    54  H    0.164748
 Sum of Mulliken charges =  -0.00000

 Dipole moment (field-independent basis, Debye):
    X=              6.0726    Y=             -1.2916    Z=             -1.3428  Tot=              6.3520
 Quadrupole moment (field-independent basis, Debye-Ang):
   XX=           -205.7835   YY=           -214.1239   ZZ=           -221.4418
   XY=             14.4777   XZ=            -15.7842   YZ=            -12.9534

 Normal termination of Gaussian 16 at Thu Oct 28 07:04:47 2021.
