 Gaussian 16, Revision C.01,
 Gaussian 16:  ES64L-G16RevC.01  3-Jul-2019

 ---------------------------------------------------------------
 # opt=modredundant b3lyp/6-311+g(d,p) scrf=(pcm, solvent=water)
 ---------------------------------------------------------------

 ----------
 NDI_85.pdb
 ----------
 Symbolic Z-matrix:
 Charge =  0 Multiplicity = 1

 SCF Done:  E(RB3LYP) =  -2359.35236841     A.U. after   15 cycles
 SCF Done:  E(RB3LYP) =  -2359.35619294     A.U. after   14 cycles
 SCF Done:  E(RB3LYP) =  -2359.35709447     A.U. after   14 cycles
 SCF Done:  E(RB3LYP) =  -2359.35732025     A.U. after   14 cycles
 SCF Done:  E(RB3LYP) =  -2359.35751459     A.U. after   12 cycles
 SCF Done:  E(RB3LYP) =  -2359.35757974     A.U. after   12 cycles
 SCF Done:  E(RB3LYP) =  -2359.35761469     A.U. after   11 cycles
 SCF Done:  E(RB3LYP) =  -2359.35762399     A.U. after   10 cycles
 SCF Done:  E(RB3LYP) =  -2359.35763018     A.U. after    9 cycles
 SCF Done:  E(RB3LYP) =  -2359.35763880     A.U. after   10 cycles
 SCF Done:  E(RB3LYP) =  -2359.35765342     A.U. after    9 cycles
 SCF Done:  E(RB3LYP) =  -2359.35765459     A.U. after    9 cycles
 SCF Done:  E(RB3LYP) =  -2359.35765292     A.U. after   10 cycles
 SCF Done:  E(RB3LYP) =  -2359.35765292     A.U. after    9 cycles
 SCF Done:  E(RB3LYP) =  -2359.35765462     A.U. after    9 cycles
 SCF Done:  E(RB3LYP) =  -2359.35765323     A.U. after   10 cycles
 SCF Done:  E(RB3LYP) =  -2359.35765422     A.U. after    9 cycles
 SCF Done:  E(RB3LYP) =  -2359.35765501     A.U. after   10 cycles
 SCF Done:  E(RB3LYP) =  -2359.35765473     A.U. after   10 cycles
 SCF Done:  E(RB3LYP) =  -2359.35765526     A.U. after    8 cycles
 Optimization completed.
    -- Stationary point found.

                         Standard orientation:
 ---------------------------------------------------------------------
 Center     Atomic      Atomic             Coordinates (Angstroms)
 Number     Number       Type             X           Y           Z
 ---------------------------------------------------------------------
      1          6           0       -3.137466   -2.868498    0.360185
      2          6           0       -2.562184   -1.504839    0.239330
      3          6           0       -3.401975   -0.400288   -0.013673
      4          6           0       -4.797404   -0.574721   -0.153838
      5          6           0       -5.398076   -1.929408   -0.036860
      6          6           0       -1.205809   -1.316426    0.385419
      7          6           0       -2.828362    0.894267   -0.127516
      8          6           0       -1.424488    1.069918    0.013167
      9          6           0       -0.612115   -0.034288    0.291645
     10          6           0       -0.858186    2.438709   -0.171115
     11          6           0       -3.141464    3.364399   -0.502124
     12          6           0       -3.688006    1.991288   -0.378819
     13          6           0       -5.051851    1.798476   -0.510961
     14          6           0       -5.609999    0.516110   -0.400142
     15          1           0       -6.677148    0.372136   -0.505561
     16          1           0       -5.685766    2.654377   -0.701261
     17          1           0       -0.575327   -2.171145    0.592556
     18          7           0       -1.758633    3.493822   -0.380599
     19          7           0       -4.521160   -2.992074    0.217179
     20          8           0       -2.450498   -3.854342    0.575656
     21          8           0       -6.598145   -2.115922   -0.155070
     22          8           0       -3.857494    4.333384   -0.703658
     23          8           0        0.335714    2.678783   -0.156076
     24          6           0       -1.161592    4.831284   -0.523895
     25          1           0       -0.539176    5.046526    0.343322
     26          1           0       -0.543410    4.868604   -1.421202
     27          1           0       -1.967965    5.552610   -0.597594
     28          6           0       -5.072039   -4.350949    0.340680
     29          1           0       -4.654642   -4.989534   -0.437727
     30          1           0       -4.812831   -4.763693    1.315033
     31          1           0       -6.149423   -4.288886    0.234343
     32          6           0        0.850446    0.028188    0.524798
     33          6           0        1.494602    0.295208    1.700105
     34         16           0        1.967917   -0.424337   -0.731842
     35          6           0        2.908681    0.164312    1.592983
     36          1           0        0.974665    0.581806    2.602631
     37          6           0        3.354878   -0.216825    0.336599
     38          8           0        3.808927    0.370506    2.593303
     39          6           0        4.712704   -0.426303   -0.106409
     40          6           0        3.312435    0.785193    3.870592
     41          6           0        5.152657   -0.815874   -1.364055
     42         16           0        6.104473   -0.198934    0.949860
     43          1           0        4.187942    0.900773    4.506146
     44          1           0        2.786554    1.740808    3.794658
     45          1           0        2.649002    0.027908    4.297242
     46          6           0        6.568949   -0.929356   -1.480020
     47          8           0        4.243753   -1.050802   -2.350654
     48          6           0        7.207594   -0.626367   -0.311414
     49          1           0        7.087008   -1.220714   -2.382071
     50          6           0        4.734737   -1.435504   -3.639248
     51          1           0        8.268582   -0.630983   -0.113716
     52          1           0        5.285350   -2.378458   -3.582767
     53          1           0        3.854842   -1.565056   -4.266033
     54          1           0        5.374004   -0.656068   -4.062824
 ---------------------------------------------------------------------

 The electronic state is 1-A.
 Alpha  occ. eigenvalues --  -88.88404 -88.88174 -19.16553 -19.16525 -19.13086
 Alpha  occ. eigenvalues --  -19.13085 -19.12838 -19.12829 -14.39048 -14.38828
 Alpha  occ. eigenvalues --  -10.31678 -10.31520 -10.31507 -10.31399 -10.24349
 Alpha  occ. eigenvalues --  -10.24235 -10.23784 -10.23330 -10.23124 -10.22916
 Alpha  occ. eigenvalues --  -10.22648 -10.22626 -10.22624 -10.22616 -10.22582
 Alpha  occ. eigenvalues --  -10.21954 -10.21679 -10.21594 -10.21536 -10.21490
 Alpha  occ. eigenvalues --  -10.21465 -10.20990 -10.20863 -10.20395 -10.18598
 Alpha  occ. eigenvalues --  -10.18452  -7.96952  -7.96736  -5.93276  -5.93044
 Alpha  occ. eigenvalues --   -5.92888  -5.92659  -5.92492  -5.92305  -1.09189
 Alpha  occ. eigenvalues --   -1.09089  -1.07897  -1.07806  -1.07387  -1.07247
 Alpha  occ. eigenvalues --   -0.96717  -0.96440  -0.92846  -0.90128  -0.88581
 Alpha  occ. eigenvalues --   -0.86901  -0.84672  -0.80474  -0.78807  -0.77436
 Alpha  occ. eigenvalues --   -0.75978  -0.75476  -0.74779  -0.73016  -0.72653
 Alpha  occ. eigenvalues --   -0.71867  -0.69883  -0.68733  -0.67646  -0.66261
 Alpha  occ. eigenvalues --   -0.65762  -0.65126  -0.61038  -0.59707  -0.58667
 Alpha  occ. eigenvalues --   -0.57748  -0.56552  -0.55612  -0.55567  -0.54311
 Alpha  occ. eigenvalues --   -0.53831  -0.52029  -0.50504  -0.50332  -0.50031
 Alpha  occ. eigenvalues --   -0.49467  -0.49316  -0.48749  -0.48054  -0.47775
 Alpha  occ. eigenvalues --   -0.47644  -0.47549  -0.47040  -0.46903  -0.45904
 Alpha  occ. eigenvalues --   -0.45471  -0.45259  -0.45054  -0.44376  -0.44028
 Alpha  occ. eigenvalues --   -0.42942  -0.42903  -0.42486  -0.41937  -0.41805
 Alpha  occ. eigenvalues --   -0.41450  -0.41316  -0.41282  -0.40768  -0.40147
 Alpha  occ. eigenvalues --   -0.39877  -0.39048  -0.38650  -0.37866  -0.37330
 Alpha  occ. eigenvalues --   -0.35951  -0.35631  -0.34090  -0.33685  -0.33537
 Alpha  occ. eigenvalues --   -0.33367  -0.32581  -0.31738  -0.30863  -0.30065
 Alpha  occ. eigenvalues --   -0.29780  -0.29617  -0.29236  -0.28570  -0.27787
 Alpha  occ. eigenvalues --   -0.26595  -0.24881  -0.24599  -0.19290
 Alpha virt. eigenvalues --   -0.13506  -0.07084  -0.05862  -0.05157  -0.05086
 Alpha virt. eigenvalues --   -0.00634  -0.00591   0.00090   0.00470   0.00582
 Alpha virt. eigenvalues --    0.00738   0.00813   0.00882   0.01318   0.02119

 Mulliken charges:
               1
     1  C    0.456742
     2  C    0.018358
     3  C    0.237508
     4  C    0.207408
     5  C    0.308224
     6  C   -0.575385
     7  C    0.204980
     8  C    0.079881
     9  C    0.600324
    10  C   -0.418342
    11  C    0.251130
    12  C    0.207472
    13  C   -0.532148
    14  C   -0.661191
    15  H    0.168511
    16  H    0.168603
    17  H    0.163386
    18  N   -0.122568
    19  N   -0.113057
    20  O   -0.336272
    21  O   -0.330812
    22  O   -0.334323
    23  O   -0.172465
    24  C   -0.229474
    25  H    0.183134
    26  H    0.188427
    27  H    0.181580
    28  C   -0.215305
    29  H    0.185185
    30  H    0.183443
    31  H    0.180636
    32  C    0.137603
    33  C   -0.512001
    34  S   -0.155017
    35  C   -0.148067
    36  H    0.148470
    37  C    0.297887
    38  O   -0.172664
    39  C    0.714121
    40  C   -0.234873
    41  C    0.038381
    42  S   -0.253774
    43  H    0.175628
    44  H    0.164830
    45  H    0.161773
    46  C   -0.540945
    47  O   -0.177781
    48  C   -0.368681
    49  H    0.159828
    50  C   -0.246826
    51  H    0.187014
    52  H    0.158813
    53  H    0.172661
    54  H    0.160027
 Sum of Mulliken charges =  -0.00000

 Dipole moment (field-independent basis, Debye):
    X=              0.4001    Y=              0.0155    Z=              0.2534  Tot=              0.4739
 Quadrupole moment (field-independent basis, Debye-Ang):
   XX=           -219.9852   YY=           -234.4546   ZZ=           -193.3372
   XY=             -1.4436   XZ=            -12.8422   YZ=             11.8603

 Normal termination of Gaussian 16 at Thu Oct 28 02:09:24 2021.
