 Gaussian 16, Revision C.01,
 Gaussian 16:  ES64L-G16RevC.01  3-Jul-2019

 ---------------------------------------------------------------
 # opt=modredundant b3lyp/6-311+g(d,p) scrf=(pcm, solvent=water)
 ---------------------------------------------------------------

 -----------
 NDI_-25.pdb
 -----------
 Symbolic Z-matrix:
 Charge =  0 Multiplicity = 1

 SCF Done:  E(RB3LYP) =  -2359.35519658     A.U. after   17 cycles
 SCF Done:  E(RB3LYP) =  -2359.34887512     A.U. after   16 cycles
 SCF Done:  E(RB3LYP) =  -2359.35612010     A.U. after   14 cycles
 SCF Done:  E(RB3LYP) =  -2359.35790183     A.U. after   16 cycles
 SCF Done:  E(RB3LYP) =  -2359.35871172     A.U. after   14 cycles
 SCF Done:  E(RB3LYP) =  -2359.35891094     A.U. after   13 cycles
 SCF Done:  E(RB3LYP) =  -2359.35901771     A.U. after   12 cycles
 SCF Done:  E(RB3LYP) =  -2359.35906837     A.U. after   13 cycles
 SCF Done:  E(RB3LYP) =  -2359.35909489     A.U. after   11 cycles
 SCF Done:  E(RB3LYP) =  -2359.35910534     A.U. after   11 cycles
 SCF Done:  E(RB3LYP) =  -2359.35918403     A.U. after   11 cycles
 SCF Done:  E(RB3LYP) =  -2359.35919336     A.U. after   10 cycles
 SCF Done:  E(RB3LYP) =  -2359.35919695     A.U. after   10 cycles
 SCF Done:  E(RB3LYP) =  -2359.35920001     A.U. after   11 cycles
 SCF Done:  E(RB3LYP) =  -2359.35920317     A.U. after   10 cycles
 SCF Done:  E(RB3LYP) =  -2359.35920557     A.U. after   10 cycles
 SCF Done:  E(RB3LYP) =  -2359.35920653     A.U. after   10 cycles
 SCF Done:  E(RB3LYP) =  -2359.35920686     A.U. after   10 cycles
 SCF Done:  E(RB3LYP) =  -2359.35920696     A.U. after   10 cycles
 SCF Done:  E(RB3LYP) =  -2359.35920697     A.U. after    8 cycles
 Optimization completed.
    -- Stationary point found.

                         Standard orientation:
 ---------------------------------------------------------------------
 Center     Atomic      Atomic             Coordinates (Angstroms)
 Number     Number       Type             X           Y           Z
 ---------------------------------------------------------------------
      1          6           0        2.659370   -3.012120    0.243965
      2          6           0        2.302885   -1.579174    0.096808
      3          6           0        3.316198   -0.593485    0.063242
      4          6           0        4.672463   -0.953825    0.183975
      5          6           0        5.055627   -2.380378    0.340139
      6          6           0        0.983984   -1.210778    0.041500
      7          6           0        2.939067    0.766474   -0.105036
      8          6           0        1.567675    1.130853   -0.235290
      9          6           0        0.561126    0.145739   -0.082771
     10          6           0        1.282006    2.516033   -0.686546
     11          6           0        3.646714    3.169445   -0.309114
     12          6           0        3.970832    1.737648   -0.135319
     13          6           0        5.300315    1.364242    0.001607
     14          6           0        5.657901    0.021535    0.156864
     15          1           0        6.696380   -0.265351    0.254358
     16          1           0        6.060707    2.133927   -0.017039
     17          1           0        0.241583   -1.991904    0.140656
     18          7           0        2.311025    3.467189   -0.560575
     19          7           0        4.016671   -3.321643    0.349340
     20          8           0        1.821749   -3.900869    0.273465
     21          8           0        6.220249   -2.728923    0.452947
     22          8           0        4.497558    4.048768   -0.264735
     23          8           0        0.223189    2.866992   -1.184154
     24          6           0        1.960982    4.860784   -0.874393
     25          1           0        1.928335    5.014304   -1.954881
     26          1           0        0.982827    5.083722   -0.455947
     27          1           0        2.718036    5.505037   -0.439011
     28          6           0        4.352985   -4.746920    0.490961
     29          1           0        3.918890   -5.139556    1.410590
     30          1           0        3.951407   -5.302630   -0.355685
     31          1           0        5.433196   -4.837335    0.520897
     32          6           0       -0.862261    0.393964    0.091558
     33          6           0       -1.514515    1.500669    0.597368
     34         16           0       -2.026975   -0.850108   -0.348117
     35          6           0       -2.912160    1.352241    0.652038
     36          1           0       -0.998777    2.382404    0.939845
     37          6           0       -3.382831    0.128589    0.161673
     38          8           0       -3.803134    2.258918    1.124082
     39          6           0       -4.743158   -0.313830    0.058378
     40          6           0       -3.300766    3.517938    1.589888
     41          6           0       -5.206379   -1.538743   -0.418654
     42         16           0       -6.117340    0.681420    0.538223
     43          1           0       -4.173700    4.089550    1.896914
     44          1           0       -2.634019    3.377998    2.444743
     45          1           0       -2.776764    4.046606    0.789411
     46          6           0       -6.622630   -1.673289   -0.398328
     47          8           0       -4.316777   -2.465287   -0.847639
     48          6           0       -7.236392   -0.554686    0.091744
     49          1           0       -7.159125   -2.550684   -0.728064
     50          6           0       -4.822010   -3.717487   -1.331835
     51          1           0       -8.294711   -0.385081    0.219835
     52          1           0       -5.462154   -3.565692   -2.204383
     53          1           0       -3.947652   -4.298765   -1.615584
     54          1           0       -5.374123   -4.241769   -0.547993
 ---------------------------------------------------------------------

 The electronic state is 1-A.
 Alpha  occ. eigenvalues --  -88.89080 -88.88755 -19.17310 -19.17154 -19.12872
 Alpha  occ. eigenvalues --  -19.12846 -19.12242 -19.12161 -14.38850 -14.38321
 Alpha  occ. eigenvalues --  -10.31436 -10.31278 -10.30940 -10.30737 -10.25249
 Alpha  occ. eigenvalues --  -10.25215 -10.23807 -10.23137 -10.22949 -10.22911
 Alpha  occ. eigenvalues --  -10.22687 -10.22475 -10.22315 -10.22293 -10.22168
 Alpha  occ. eigenvalues --  -10.22167 -10.22135 -10.21862 -10.21525 -10.21194
 Alpha  occ. eigenvalues --  -10.20918 -10.20894 -10.20811 -10.20712 -10.19315
 Alpha  occ. eigenvalues --  -10.18959  -7.97646  -7.97311  -5.93961  -5.93621
 Alpha  occ. eigenvalues --   -5.93575  -5.93234  -5.93196  -5.92878  -1.08956
 Alpha  occ. eigenvalues --   -1.08717  -1.08592  -1.08469  -1.07144  -1.06565
 Alpha  occ. eigenvalues --   -0.96474  -0.95940  -0.92377  -0.90772  -0.89071
 Alpha  occ. eigenvalues --   -0.86667  -0.84205  -0.80626  -0.78468  -0.77857
 Alpha  occ. eigenvalues --   -0.76460  -0.75502  -0.75194  -0.73412  -0.72468
 Alpha  occ. eigenvalues --   -0.71932  -0.70266  -0.68961  -0.67333  -0.65890
 Alpha  occ. eigenvalues --   -0.65609  -0.64800  -0.61372  -0.60056  -0.58702
 Alpha  occ. eigenvalues --   -0.57455  -0.56787  -0.56230  -0.55439  -0.54943
 Alpha  occ. eigenvalues --   -0.53527  -0.51753  -0.50445  -0.50046  -0.49963
 Alpha  occ. eigenvalues --   -0.49457  -0.49130  -0.48589  -0.48473  -0.48071
 Alpha  occ. eigenvalues --   -0.48039  -0.47199  -0.46928  -0.46541  -0.46042
 Alpha  occ. eigenvalues --   -0.45426  -0.45375  -0.44924  -0.44074  -0.43708
 Alpha  occ. eigenvalues --   -0.42921  -0.42757  -0.42393  -0.42194  -0.41940
 Alpha  occ. eigenvalues --   -0.41854  -0.41332  -0.41103  -0.40650  -0.40055
 Alpha  occ. eigenvalues --   -0.39701  -0.39232  -0.39146  -0.37995  -0.37484
 Alpha  occ. eigenvalues --   -0.36520  -0.36223  -0.34447  -0.34174  -0.33884
 Alpha  occ. eigenvalues --   -0.33769  -0.32156  -0.31518  -0.30803  -0.30074
 Alpha  occ. eigenvalues --   -0.29731  -0.29298  -0.29113  -0.28515  -0.27461
 Alpha  occ. eigenvalues --   -0.26192  -0.25192  -0.24978  -0.19739
 Alpha virt. eigenvalues --   -0.13252  -0.07938  -0.06507  -0.04752  -0.03867
 Alpha virt. eigenvalues --   -0.00637  -0.00571   0.00143   0.00316   0.00467
 Alpha virt. eigenvalues --    0.00780   0.01071   0.01393   0.01536   0.02017

 Mulliken charges:
               1
     1  C    0.375247
     2  C   -0.082994
     3  C    0.201502
     4  C    0.217045
     5  C    0.295500
     6  C    0.028375
     7  C    0.208379
     8  C    0.602965
     9  C    0.223501
    10  C   -0.787988
    11  C    0.285330
    12  C    0.116318
    13  C   -0.492629
    14  C   -0.623532
    15  H    0.164384
    16  H    0.164946
    17  H    0.166941
    18  N    0.015290
    19  N   -0.108432
    20  O   -0.351396
    21  O   -0.334226
    22  O   -0.358757
    23  O   -0.283318
    24  C   -0.191215
    25  H    0.190039
    26  H    0.179653
    27  H    0.179115
    28  C   -0.216446
    29  H    0.185197
    30  H    0.181656
    31  H    0.179683
    32  C   -0.034007
    33  C   -0.532928
    34  S   -0.649237
    35  C   -0.292185
    36  H    0.169650
    37  C    0.729202
    38  O   -0.151018
    39  C    0.843550
    40  C   -0.246051
    41  C    0.036201
    42  S   -0.217454
    43  H    0.179356
    44  H    0.165060
    45  H    0.167019
    46  C   -0.634972
    47  O   -0.154391
    48  C   -0.316469
    49  H    0.164492
    50  C   -0.253403
    51  H    0.193216
    52  H    0.163644
    53  H    0.176500
    54  H    0.164094
 Sum of Mulliken charges =  -0.00000

 Dipole moment (field-independent basis, Debye):
    X=             -6.3309    Y=             -0.7890    Z=              1.0384  Tot=              6.4638
 Quadrupole moment (field-independent basis, Debye-Ang):
   XX=           -210.8929   YY=           -209.4067   ZZ=           -220.6486
   XY=              7.3425   XZ=              0.6964   YZ=             15.0348

 Normal termination of Gaussian 16 at Wed Oct 27 21:46:00 2021.
