 Gaussian 16, Revision C.01,
 Gaussian 16:  ES64L-G16RevC.01  3-Jul-2019

 ---------------------------------------------------------------
 # opt=modredundant b3lyp/6-311+g(d,p) scrf=(pcm, solvent=water)
 ---------------------------------------------------------------

 -----------
 NDI_-35.pdb
 -----------
 Symbolic Z-matrix:
 Charge =  0 Multiplicity = 1

 SCF Done:  E(RB3LYP) =  -2359.35801563     A.U. after   17 cycles
 SCF Done:  E(RB3LYP) =  -2359.35840340     A.U. after   16 cycles
 SCF Done:  E(RB3LYP) =  -2359.35920617     A.U. after   14 cycles
 SCF Done:  E(RB3LYP) =  -2359.35945764     A.U. after   14 cycles
 SCF Done:  E(RB3LYP) =  -2359.35964537     A.U. after   14 cycles
 SCF Done:  E(RB3LYP) =  -2359.35971354     A.U. after   12 cycles
 SCF Done:  E(RB3LYP) =  -2359.35973515     A.U. after   12 cycles
 SCF Done:  E(RB3LYP) =  -2359.35975618     A.U. after   12 cycles
 SCF Done:  E(RB3LYP) =  -2359.35976768     A.U. after   10 cycles
 SCF Done:  E(RB3LYP) =  -2359.35978372     A.U. after   12 cycles
 SCF Done:  E(RB3LYP) =  -2359.35984111     A.U. after   11 cycles
 SCF Done:  E(RB3LYP) =  -2359.35984255     A.U. after   10 cycles
 SCF Done:  E(RB3LYP) =  -2359.35984275     A.U. after   10 cycles
 SCF Done:  E(RB3LYP) =  -2359.35984270     A.U. after    9 cycles
 SCF Done:  E(RB3LYP) =  -2359.35984386     A.U. after   11 cycles
 SCF Done:  E(RB3LYP) =  -2359.35984463     A.U. after    9 cycles
 SCF Done:  E(RB3LYP) =  -2359.35984536     A.U. after    9 cycles
 SCF Done:  E(RB3LYP) =  -2359.35984546     A.U. after    9 cycles
 SCF Done:  E(RB3LYP) =  -2359.35984551     A.U. after    8 cycles
 SCF Done:  E(RB3LYP) =  -2359.35984554     A.U. after    9 cycles
 Optimization completed.
    -- Stationary point found.

                         Standard orientation:
 ---------------------------------------------------------------------
 Center     Atomic      Atomic             Coordinates (Angstroms)
 Number     Number       Type             X           Y           Z
 ---------------------------------------------------------------------
      1          6           0        2.728706   -2.989503    0.347488
      2          6           0        2.339117   -1.569546    0.162141
      3          6           0        3.331144   -0.566726    0.066199
      4          6           0        4.698018   -0.897577    0.156857
      5          6           0        5.114047   -2.310664    0.348414
      6          6           0        1.010908   -1.228095    0.127456
      7          6           0        2.925379    0.780650   -0.133751
      8          6           0        1.544699    1.114537   -0.234765
      9          6           0        0.566437    0.116227   -0.026952
     10          6           0        1.210132    2.485296   -0.701500
     11          6           0        3.576662    3.189321   -0.435589
     12          6           0        3.935674    1.769648   -0.227713
     13          6           0        5.275121    1.425305   -0.121871
     14          6           0        5.662211    0.094209    0.066223
     15          1           0        6.708566   -0.170314    0.140144
     16          1           0        6.020392    2.206904   -0.189912
     17          1           0        0.280569   -2.014165    0.268540
     18          7           0        2.226561    3.456214   -0.643964
     19          7           0        4.094450   -3.269802    0.422531
     20          8           0        1.910154   -3.892228    0.432081
     21          8           0        6.288242   -2.633208    0.435682
     22          8           0        4.411888    4.083918   -0.451143
     23          8           0        0.122406    2.805097   -1.153906
     24          6           0        1.838093    4.835208   -0.976830
     25          1           0        1.749044    4.958090   -2.058013
     26          1           0        0.878411    5.054589   -0.515681
     27          1           0        2.604931    5.502835   -0.597491
     28          6           0        4.462689   -4.682852    0.602280
     29          1           0        4.060098   -5.052336    1.545494
     30          1           0        4.050771   -5.274444   -0.214610
     31          1           0        5.544911   -4.751470    0.606673
     32          6           0       -0.861413    0.354059    0.143876
     33          6           0       -1.501947    1.403567    0.766662
     34         16           0       -2.025205   -0.839440   -0.406088
     35          6           0       -2.902383    1.256541    0.809114
     36          1           0       -0.975283    2.242046    1.194252
     37          6           0       -3.378398    0.091109    0.200606
     38          8           0       -3.787799    2.115413    1.374278
     39          6           0       -4.741970   -0.330674    0.046931
     40          6           0       -3.279374    3.328078    1.944190
     41          6           0       -5.209677   -1.503670   -0.540854
     42         16           0       -6.113212    0.630868    0.597837
     43          1           0       -4.148372    3.870527    2.309882
     44          1           0       -2.604077    3.113512    2.776631
     45          1           0       -2.763150    3.925783    1.188362
     46          6           0       -6.627517   -1.626729   -0.547797
     47          8           0       -4.322486   -2.397542   -1.041696
     48          6           0       -7.238265   -0.550419    0.032093
     49          1           0       -7.167095   -2.467002   -0.959253
     50          6           0       -4.833430   -3.598655   -1.635679
     51          1           0       -8.296409   -0.383336    0.164585
     52          1           0       -5.464886   -3.367175   -2.497093
     53          1           0       -3.961495   -4.161214   -1.961705
     54          1           0       -5.396528   -4.184036   -0.904506
 ---------------------------------------------------------------------

 The electronic state is 1-A.
 Alpha  occ. eigenvalues --  -88.89012 -88.88669 -19.17196 -19.17064 -19.12895
 Alpha  occ. eigenvalues --  -19.12870 -19.12322 -19.12234 -14.38870 -14.38378
 Alpha  occ. eigenvalues --  -10.31462 -10.31304 -10.31016 -10.30825 -10.25100
 Alpha  occ. eigenvalues --  -10.25099 -10.23743 -10.22922 -10.22903 -10.22878
 Alpha  occ. eigenvalues --  -10.22732 -10.22420 -10.22379 -10.22360 -10.22235
 Alpha  occ. eigenvalues --  -10.22198 -10.22069 -10.21955 -10.21533 -10.21077
 Alpha  occ. eigenvalues --  -10.20999 -10.20907 -10.20902 -10.20732 -10.19249
 Alpha  occ. eigenvalues --  -10.18885  -7.97574  -7.97226  -5.93890  -5.93536
 Alpha  occ. eigenvalues --   -5.93504  -5.93149  -5.93124  -5.92793  -1.08980
 Alpha  occ. eigenvalues --   -1.08593  -1.08538  -1.08479  -1.07169  -1.06647
 Alpha  occ. eigenvalues --   -0.96497  -0.95994  -0.92434  -0.90694  -0.89003
 Alpha  occ. eigenvalues --   -0.86701  -0.84264  -0.80596  -0.78497  -0.77797
 Alpha  occ. eigenvalues --   -0.76402  -0.75412  -0.75224  -0.73343  -0.72488
 Alpha  occ. eigenvalues --   -0.71920  -0.70213  -0.68935  -0.67364  -0.65932
 Alpha  occ. eigenvalues --   -0.65612  -0.64841  -0.61323  -0.59993  -0.58692
 Alpha  occ. eigenvalues --   -0.57480  -0.56752  -0.56137  -0.55464  -0.54849
 Alpha  occ. eigenvalues --   -0.53556  -0.51779  -0.50425  -0.50053  -0.49988
 Alpha  occ. eigenvalues --   -0.49485  -0.49149  -0.48599  -0.48401  -0.48007
 Alpha  occ. eigenvalues --   -0.47991  -0.47240  -0.46956  -0.46558  -0.45988
 Alpha  occ. eigenvalues --   -0.45471  -0.45344  -0.44966  -0.44103  -0.43785
 Alpha  occ. eigenvalues --   -0.42897  -0.42732  -0.42319  -0.42198  -0.41894
 Alpha  occ. eigenvalues --   -0.41831  -0.41387  -0.41121  -0.40651  -0.40028
 Alpha  occ. eigenvalues --   -0.39745  -0.39213  -0.39124  -0.37909  -0.37542
 Alpha  occ. eigenvalues --   -0.36455  -0.36085  -0.34413  -0.34101  -0.33886
 Alpha  occ. eigenvalues --   -0.33727  -0.32194  -0.31548  -0.30797  -0.30042
 Alpha  occ. eigenvalues --   -0.29743  -0.29299  -0.29177  -0.28525  -0.27499
 Alpha  occ. eigenvalues --   -0.26197  -0.25145  -0.24948  -0.19679
 Alpha virt. eigenvalues --   -0.13283  -0.07718  -0.06511  -0.04804  -0.03988
 Alpha virt. eigenvalues --   -0.00686  -0.00573   0.00129   0.00360   0.00470
 Alpha virt. eigenvalues --    0.00727   0.01080   0.01315   0.01515   0.02064

 Mulliken charges:
               1
     1  C    0.408853
     2  C   -0.103216
     3  C    0.157225
     4  C    0.230435
     5  C    0.297030
     6  C   -0.185030
     7  C    0.180532
     8  C    0.525541
     9  C    0.321418
    10  C   -0.621073
    11  C    0.288609
    12  C    0.122267
    13  C   -0.487339
    14  C   -0.625249
    15  H    0.165060
    16  H    0.165375
    17  H    0.171682
    18  N   -0.001905
    19  N   -0.109270
    20  O   -0.349591
    21  O   -0.333778
    22  O   -0.355495
    23  O   -0.265371
    24  C   -0.195118
    25  H    0.190362
    26  H    0.179862
    27  H    0.179358
    28  C   -0.215546
    29  H    0.185120
    30  H    0.181927
    31  H    0.179940
    32  C    0.103236
    33  C   -0.593906
    34  S   -0.610457
    35  C   -0.294436
    36  H    0.166134
    37  C    0.733080
    38  O   -0.154503
    39  C    0.797257
    40  C   -0.244699
    41  C    0.015363
    42  S   -0.227822
    43  H    0.178523
    44  H    0.164512
    45  H    0.166658
    46  C   -0.620530
    47  O   -0.155892
    48  C   -0.310307
    49  H    0.163741
    50  C   -0.253260
    51  H    0.192166
    52  H    0.163295
    53  H    0.175852
    54  H    0.163377
 Sum of Mulliken charges =  -0.00000

 Dipole moment (field-independent basis, Debye):
    X=             -5.4555    Y=             -0.6774    Z=              0.9846  Tot=              5.5848
 Quadrupole moment (field-independent basis, Debye-Ang):
   XX=           -212.1902   YY=           -211.7061   ZZ=           -218.0750
   XY=              7.1108   XZ=              2.7962   YZ=             17.4824

 Normal termination of Gaussian 16 at Wed Oct 27 22:10:45 2021.
