 Gaussian 16, Revision C.01,
 Gaussian 16:  ES64L-G16RevC.01  3-Jul-2019

 ---------------------------------------------------------------
 # opt=modredundant b3lyp/6-311+g(d,p) scrf=(pcm, solvent=water)
 ---------------------------------------------------------------

 -----------
 NDI_135.pdb
 -----------
 Symbolic Z-matrix:
 Charge =  0 Multiplicity = 1

 SCF Done:  E(RB3LYP) =  -2359.34869613     A.U. after   16 cycles
 SCF Done:  E(RB3LYP) =  -2359.34701034     A.U. after   17 cycles
 SCF Done:  E(RB3LYP) =  -2359.35499729     A.U. after   13 cycles
 SCF Done:  E(RB3LYP) =  -2359.35782269     A.U. after   16 cycles
 SCF Done:  E(RB3LYP) =  -2359.35877882     A.U. after   16 cycles
 SCF Done:  E(RB3LYP) =  -2359.35918647     A.U. after   12 cycles
 SCF Done:  E(RB3LYP) =  -2359.35925849     A.U. after   14 cycles
 SCF Done:  E(RB3LYP) =  -2359.35933054     A.U. after   11 cycles
 SCF Done:  E(RB3LYP) =  -2359.35935247     A.U. after   11 cycles
 SCF Done:  E(RB3LYP) =  -2359.35937605     A.U. after   12 cycles
 SCF Done:  E(RB3LYP) =  -2359.35946591     A.U. after   11 cycles
 SCF Done:  E(RB3LYP) =  -2359.35947072     A.U. after   11 cycles
 SCF Done:  E(RB3LYP) =  -2359.35947413     A.U. after   11 cycles
 SCF Done:  E(RB3LYP) =  -2359.35947688     A.U. after    9 cycles
 SCF Done:  E(RB3LYP) =  -2359.35947969     A.U. after    9 cycles
 SCF Done:  E(RB3LYP) =  -2359.35948268     A.U. after   10 cycles
 SCF Done:  E(RB3LYP) =  -2359.35948404     A.U. after   10 cycles
 SCF Done:  E(RB3LYP) =  -2359.35948467     A.U. after    9 cycles
 SCF Done:  E(RB3LYP) =  -2359.35948473     A.U. after    8 cycles
 SCF Done:  E(RB3LYP) =  -2359.35948472     A.U. after    7 cycles
 Optimization completed.
    -- Stationary point found.

                         Standard orientation:
 ---------------------------------------------------------------------
 Center     Atomic      Atomic             Coordinates (Angstroms)
 Number     Number       Type             X           Y           Z
 ---------------------------------------------------------------------
      1          6           0        3.532103   -2.685994    0.434264
      2          6           0        2.772446   -1.450465    0.119348
      3          6           0        3.426004   -0.197287    0.118544
      4          6           0        4.798503   -0.099774    0.429424
      5          6           0        5.577833   -1.320609    0.760466
      6          6           0        1.422589   -1.522163   -0.130883
      7          6           0        2.681324    0.966968   -0.209601
      8          6           0        1.297982    0.869757   -0.524605
      9          6           0        0.643224   -0.369099   -0.416070
     10          6           0        0.633452    2.073663   -1.091460
     11          6           0        2.617465    3.458017   -0.539820
     12          6           0        3.350888    2.214733   -0.207394
     13          6           0        4.697364    2.289899    0.111577
     14          6           0        5.425177    1.135438    0.427502
     15          1           0        6.477569    1.199079    0.670073
     16          1           0        5.181221    3.257797    0.112781
     17          1           0        0.930460   -2.483808   -0.068677
     18          7           0        1.291623    3.305392   -0.940345
     19          7           0        4.889167   -2.540990    0.731442
     20          8           0        3.016349   -3.792986    0.440641
     21          8           0        6.764468   -1.273761    1.042690
     22          8           0        3.141912    4.561717   -0.491722
     23          8           0       -0.424579    2.035891   -1.697282
     24          6           0        0.563891    4.502995   -1.387486
     25          1           0        0.628923    4.608738   -2.472284
     26          1           0       -0.480565    4.408233   -1.102259
     27          1           0        1.012337    5.369146   -0.911556
     28          6           0        5.625078   -3.776485    1.042751
     29          1           0        5.196946   -4.247863    1.927359
     30          1           0        5.552331   -4.466909    0.203101
     31          1           0        6.661650   -3.514833    1.224463
     32          6           0       -0.804486   -0.581472   -0.504850
     33          6           0       -1.447627   -1.567701   -1.218168
     34         16           0       -1.931706    0.327563    0.468094
     35          6           0       -2.849156   -1.569532   -1.019590
     36          1           0       -0.928116   -2.244033   -1.881590
     37          6           0       -3.298958   -0.608124   -0.117202
     38          8           0       -3.745668   -2.402811   -1.609846
     39          6           0       -4.646119   -0.375761    0.331517
     40          6           0       -3.245522   -3.404459   -2.503516
     41          6           0       -5.090844    0.580586    1.238546
     42         16           0       -6.020607   -1.323085   -0.234545
     43          1           0       -4.117081   -3.957815   -2.846393
     44          1           0       -2.742298   -2.946734   -3.359419
     45          1           0       -2.560774   -4.082003   -1.986458
     46          6           0       -6.495649    0.556034    1.471019
     47          8           0       -4.196056    1.426356    1.810854
     48          6           0       -7.119559   -0.418170    0.744122
     49          1           0       -7.016720    1.223889    2.141153
     50          6           0       -4.688738    2.412384    2.726735
     51          1           0       -8.171535   -0.659040    0.725607
     52          1           0       -5.163051    1.938735    3.590159
     53          1           0       -3.817037    2.975696    3.052579
     54          1           0       -5.396192    3.083733    2.233199
 ---------------------------------------------------------------------

 The electronic state is 1-A.
 Alpha  occ. eigenvalues --  -88.88614 -88.88480 -19.16942 -19.16857 -19.12956
 Alpha  occ. eigenvalues --  -19.12935 -19.12568 -19.12543 -14.38921 -14.38559
 Alpha  occ. eigenvalues --  -10.31532 -10.31373 -10.31236 -10.31058 -10.24795
 Alpha  occ. eigenvalues --  -10.24777 -10.23668 -10.22849 -10.22800 -10.22789
 Alpha  occ. eigenvalues --  -10.22688 -10.22579 -10.22412 -10.22372 -10.22351
 Alpha  occ. eigenvalues --  -10.22291 -10.22206 -10.21843 -10.21595 -10.21202
 Alpha  occ. eigenvalues --  -10.21143 -10.20927 -10.20824 -10.20820 -10.19187
 Alpha  occ. eigenvalues --  -10.18720  -7.97176  -7.97040  -5.93499  -5.93349
 Alpha  occ. eigenvalues --   -5.93110  -5.92962  -5.92711  -5.92608  -1.09040
 Alpha  occ. eigenvalues --   -1.08775  -1.08317  -1.08220  -1.07235  -1.06909
 Alpha  occ. eigenvalues --   -0.96558  -0.96210  -0.92591  -0.90475  -0.88843
 Alpha  occ. eigenvalues --   -0.86790  -0.84419  -0.80582  -0.78589  -0.77626
 Alpha  occ. eigenvalues --   -0.76266  -0.75336  -0.75148  -0.73272  -0.72640
 Alpha  occ. eigenvalues --   -0.71665  -0.70211  -0.68851  -0.67464  -0.66079
 Alpha  occ. eigenvalues --   -0.65540  -0.65076  -0.61116  -0.59909  -0.58714
 Alpha  occ. eigenvalues --   -0.57632  -0.56759  -0.55900  -0.55123  -0.54692
 Alpha  occ. eigenvalues --   -0.53902  -0.51830  -0.50405  -0.50174  -0.49879
 Alpha  occ. eigenvalues --   -0.49621  -0.49247  -0.48632  -0.48237  -0.47932
 Alpha  occ. eigenvalues --   -0.47846  -0.47410  -0.47029  -0.46682  -0.45822
 Alpha  occ. eigenvalues --   -0.45506  -0.45374  -0.45151  -0.44353  -0.43908
 Alpha  occ. eigenvalues --   -0.42906  -0.42638  -0.42209  -0.42096  -0.41861
 Alpha  occ. eigenvalues --   -0.41744  -0.41547  -0.41175  -0.40750  -0.40125
 Alpha  occ. eigenvalues --   -0.39683  -0.39167  -0.38784  -0.37852  -0.37547
 Alpha  occ. eigenvalues --   -0.36314  -0.35952  -0.34249  -0.33883  -0.33793
 Alpha  occ. eigenvalues --   -0.33621  -0.32244  -0.31615  -0.30786  -0.30042
 Alpha  occ. eigenvalues --   -0.29696  -0.29320  -0.29243  -0.28664  -0.27720
 Alpha  occ. eigenvalues --   -0.26276  -0.25160  -0.24737  -0.19549
 Alpha virt. eigenvalues --   -0.13348  -0.07343  -0.06447  -0.04952  -0.04275
 Alpha virt. eigenvalues --   -0.00852  -0.00618   0.00102   0.00365   0.00439
 Alpha virt. eigenvalues --    0.00746   0.01081   0.01224   0.01340   0.02090

 Mulliken charges:
               1
     1  C    0.447395
     2  C   -0.103360
     3  C    0.130136
     4  C    0.239469
     5  C    0.297616
     6  C   -0.276976
     7  C    0.141533
     8  C    0.190392
     9  C    0.326726
    10  C   -0.444327
    11  C    0.328964
    12  C    0.087294
    13  C   -0.463135
    14  C   -0.604363
    15  H    0.166391
    16  H    0.166494
    17  H    0.164456
    18  N    0.010169
    19  N   -0.110517
    20  O   -0.342849
    21  O   -0.334705
    22  O   -0.351520
    23  O   -0.272675
    24  C   -0.199296
    25  H    0.192485
    26  H    0.182289
    27  H    0.181205
    28  C   -0.213277
    29  H    0.185329
    30  H    0.182328
    31  H    0.180529
    32  C    0.310003
    33  C   -0.582393
    34  S   -0.590383
    35  C   -0.116939
    36  H    0.164967
    37  C    0.508689
    38  O   -0.161574
    39  C    0.822288
    40  C   -0.237856
    41  C    0.022825
    42  S   -0.238493
    43  H    0.177146
    44  H    0.163850
    45  H    0.166219
    46  C   -0.603825
    47  O   -0.164364
    48  C   -0.322969
    49  H    0.162187
    50  C   -0.252150
    51  H    0.190153
    52  H    0.161638
    53  H    0.174866
    54  H    0.161917
 Sum of Mulliken charges =  -0.00000

 Dipole moment (field-independent basis, Debye):
    X=             -3.5262    Y=             -0.6532    Z=              0.9777  Tot=              3.7171
 Quadrupole moment (field-independent basis, Debye-Ang):
   XX=           -212.2439   YY=           -221.7181   ZZ=           -210.7989
   XY=            -11.3928   XZ=            -15.2266   YZ=             18.5080

 Normal termination of Gaussian 16 at Thu Oct 28 03:26:52 2021.
