 Gaussian 16, Revision C.01,
 Gaussian 16:  ES64L-G16RevC.01  3-Jul-2019

 ---------------------------------------------------------------
 # opt=modredundant b3lyp/6-311+g(d,p) scrf=(pcm, solvent=water)
 ---------------------------------------------------------------

 -----------
 NDI_150.pdb
 -----------
 Symbolic Z-matrix:
 Charge =  0 Multiplicity = 1

 SCF Done:  E(RB3LYP) =  -2359.33528155     A.U. after   17 cycles
 SCF Done:  E(RB3LYP) =  -2359.34530775     A.U. after   18 cycles
 SCF Done:  E(RB3LYP) =  -2359.35086724     A.U. after   16 cycles
 SCF Done:  E(RB3LYP) =  -2359.35454903     A.U. after   16 cycles
 SCF Done:  E(RB3LYP) =  -2359.35666724     A.U. after   16 cycles
 SCF Done:  E(RB3LYP) =  -2359.35725913     A.U. after   16 cycles
 SCF Done:  E(RB3LYP) =  -2359.35764932     A.U. after   16 cycles
 SCF Done:  E(RB3LYP) =  -2359.35807549     A.U. after   13 cycles
 SCF Done:  E(RB3LYP) =  -2359.35849942     A.U. after   14 cycles
 SCF Done:  E(RB3LYP) =  -2359.35803509     A.U. after   16 cycles
 SCF Done:  E(RB3LYP) =  -2359.35919648     A.U. after   11 cycles
 SCF Done:  E(RB3LYP) =  -2359.35920060     A.U. after   11 cycles
 SCF Done:  E(RB3LYP) =  -2359.35920112     A.U. after   10 cycles
 SCF Done:  E(RB3LYP) =  -2359.35920210     A.U. after   11 cycles
 SCF Done:  E(RB3LYP) =  -2359.35920249     A.U. after    8 cycles
 SCF Done:  E(RB3LYP) =  -2359.35920287     A.U. after    9 cycles
 SCF Done:  E(RB3LYP) =  -2359.35920312     A.U. after    8 cycles
 SCF Done:  E(RB3LYP) =  -2359.35920324     A.U. after    8 cycles
 SCF Done:  E(RB3LYP) =  -2359.35920337     A.U. after    8 cycles
 SCF Done:  E(RB3LYP) =  -2359.35920342     A.U. after    8 cycles
 Optimization completed.
    -- Stationary point found.

                         Standard orientation:
 ---------------------------------------------------------------------
 Center     Atomic      Atomic             Coordinates (Angstroms)
 Number     Number       Type             X           Y           Z
 ---------------------------------------------------------------------
      1          6           0        3.532402   -2.683385    0.340745
      2          6           0        2.771833   -1.442414    0.050628
      3          6           0        3.416213   -0.185054    0.111347
      4          6           0        4.778559   -0.089367    0.459508
      5          6           0        5.558937   -1.315983    0.764328
      6          6           0        1.429271   -1.515140   -0.227504
      7          6           0        2.667945    0.983125   -0.193666
      8          6           0        1.292667    0.887250   -0.545389
      9          6           0        0.639019   -0.360504   -0.489967
     10          6           0        0.649046    2.100084   -1.111116
     11          6           0        2.596514    3.482892   -0.441122
     12          6           0        3.328357    2.234469   -0.130381
     13          6           0        4.666355    2.308253    0.226800
     14          6           0        5.396001    1.150249    0.519352
     15          1           0        6.441356    1.212585    0.790794
     16          1           0        5.140818    3.279643    0.274660
     17          1           0        0.950032   -2.484200   -0.195941
     18          7           0        1.289056    3.332747   -0.897299
     19          7           0        4.881088   -2.539742    0.673972
     20          8           0        3.025225   -3.793703    0.296380
     21          8           0        6.738193   -1.271738    1.076883
     22          8           0        3.107827    4.589297   -0.333810
     23          8           0       -0.377596    2.072634   -1.771075
     24          6           0        0.570133    4.537061   -1.340183
     25          1           0        0.681509    4.676445   -2.417443
     26          1           0       -0.484914    4.425296   -1.104439
     27          1           0        0.988984    5.392124   -0.819298
     28          6           0        5.619508   -3.780307    0.957593
     29          1           0        5.178107   -4.284342    1.817373
     30          1           0        5.567564   -4.442321    0.093880
     31          1           0        6.650544   -3.518422    1.168164
     32          6           0       -0.803141   -0.585560   -0.562454
     33          6           0       -1.427577   -1.706816   -1.076565
     34         16           0       -1.953822    0.433066    0.267902
     35          6           0       -2.819616   -1.725560   -0.848599
     36          1           0       -0.899124   -2.471420   -1.627225
     37          6           0       -3.289952   -0.640414   -0.107461
     38          8           0       -3.695918   -2.674644   -1.268030
     39          6           0       -4.635884   -0.382411    0.322814
     40          6           0       -3.176069   -3.801155   -1.984547
     41          6           0       -5.099782    0.694257    1.074497
     42         16           0       -5.985455   -1.452366   -0.054913
     43          1           0       -4.034211   -4.430347   -2.210314
     44          1           0       -2.699123   -3.484116   -2.915809
     45          1           0       -2.463559   -4.358452   -1.370565
     46          6           0       -6.498627    0.662708    1.336127
     47          8           0       -4.226571    1.646654    1.485058
     48          6           0       -7.098277   -0.436043    0.787849
     49          1           0       -7.032973    1.412332    1.900964
     50          6           0       -4.737275    2.755543    2.237106
     51          1           0       -8.141395   -0.710204    0.831099
     52          1           0       -5.184779    2.415815    3.174553
     53          1           0       -3.878719    3.388427    2.450319
     54          1           0       -5.471329    3.316254    1.653017
 ---------------------------------------------------------------------

 The electronic state is 1-A.
 Alpha  occ. eigenvalues --  -88.88732 -88.88623 -19.17134 -19.16954 -19.12904
 Alpha  occ. eigenvalues --  -19.12879 -19.12403 -19.12402 -14.38873 -14.38449
 Alpha  occ. eigenvalues --  -10.31473 -10.31316 -10.31084 -10.30911 -10.25037
 Alpha  occ. eigenvalues --  -10.24937 -10.23712 -10.22880 -10.22839 -10.22764
 Alpha  occ. eigenvalues --  -10.22738 -10.22457 -10.22434 -10.22420 -10.22256
 Alpha  occ. eigenvalues --  -10.22231 -10.22034 -10.22011 -10.21556 -10.21057
 Alpha  occ. eigenvalues --  -10.21023 -10.20975 -10.20902 -10.20780 -10.19410
 Alpha  occ. eigenvalues --  -10.18846  -7.97295  -7.97181  -5.93618  -5.93490
 Alpha  occ. eigenvalues --   -5.93227  -5.93103  -5.92832  -5.92749  -1.08984
 Alpha  occ. eigenvalues --   -1.08631  -1.08518  -1.08353  -1.07177  -1.06750
 Alpha  occ. eigenvalues --   -0.96499  -0.96095  -0.92479  -0.90618  -0.88964
 Alpha  occ. eigenvalues --   -0.86725  -0.84303  -0.80635  -0.78496  -0.77703
 Alpha  occ. eigenvalues --   -0.76384  -0.75365  -0.75218  -0.73386  -0.72589
 Alpha  occ. eigenvalues --   -0.71612  -0.70335  -0.68904  -0.67384  -0.66003
 Alpha  occ. eigenvalues --   -0.65482  -0.65031  -0.61166  -0.60005  -0.58723
 Alpha  occ. eigenvalues --   -0.57576  -0.56795  -0.56037  -0.55019  -0.54841
 Alpha  occ. eigenvalues --   -0.53895  -0.51747  -0.50366  -0.50143  -0.49811
 Alpha  occ. eigenvalues --   -0.49618  -0.49194  -0.48598  -0.48340  -0.48022
 Alpha  occ. eigenvalues --   -0.47944  -0.47303  -0.47005  -0.46593  -0.45828
 Alpha  occ. eigenvalues --   -0.45504  -0.45368  -0.45137  -0.44331  -0.43831
 Alpha  occ. eigenvalues --   -0.42877  -0.42610  -0.42211  -0.42078  -0.41941
 Alpha  occ. eigenvalues --   -0.41808  -0.41558  -0.41138  -0.40743  -0.40100
 Alpha  occ. eigenvalues --   -0.39660  -0.39222  -0.38858  -0.37855  -0.37522
 Alpha  occ. eigenvalues --   -0.36436  -0.36145  -0.34324  -0.34027  -0.33834
 Alpha  occ. eigenvalues --   -0.33682  -0.32114  -0.31543  -0.30751  -0.30123
 Alpha  occ. eigenvalues --   -0.29680  -0.29321  -0.29167  -0.28653  -0.27599
 Alpha  occ. eigenvalues --   -0.26184  -0.25234  -0.24784  -0.19644
 Alpha virt. eigenvalues --   -0.13287  -0.07633  -0.06477  -0.04848  -0.04073
 Alpha virt. eigenvalues --   -0.00815  -0.00601   0.00108   0.00315   0.00393
 Alpha virt. eigenvalues --    0.00776   0.01187   0.01259   0.01492   0.02048

 Mulliken charges:
               1
     1  C    0.437637
     2  C   -0.086098
     3  C    0.128896
     4  C    0.260525
     5  C    0.285773
     6  C   -0.099286
     7  C    0.126024
     8  C    0.266894
     9  C    0.289926
    10  C   -0.512786
    11  C    0.359070
    12  C    0.071586
    13  C   -0.490726
    14  C   -0.594377
    15  H    0.165409
    16  H    0.165593
    17  H    0.166631
    18  N    0.030623
    19  N   -0.112658
    20  O   -0.345688
    21  O   -0.334543
    22  O   -0.355517
    23  O   -0.286116
    24  C   -0.206923
    25  H    0.191811
    26  H    0.182640
    27  H    0.180911
    28  C   -0.211177
    29  H    0.185161
    30  H    0.181900
    31  H    0.180199
    32  C    0.176403
    33  C   -0.667238
    34  S   -0.690907
    35  C   -0.114112
    36  H    0.167784
    37  C    0.656738
    38  O   -0.162619
    39  C    0.852335
    40  C   -0.239612
    41  C    0.003590
    42  S   -0.225126
    43  H    0.178091
    44  H    0.163131
    45  H    0.167170
    46  C   -0.619298
    47  O   -0.158654
    48  C   -0.312216
    49  H    0.163309
    50  C   -0.253761
    51  H    0.191780
    52  H    0.162832
    53  H    0.175720
    54  H    0.163349
 Sum of Mulliken charges =  -0.00000

 Dipole moment (field-independent basis, Debye):
    X=             -4.8559    Y=             -0.9878    Z=              1.2463  Tot=              5.1097
 Quadrupole moment (field-independent basis, Debye-Ang):
   XX=           -209.1842   YY=           -217.4189   ZZ=           -216.5075
   XY=            -12.8732   XZ=            -15.6629   YZ=             16.6567

 Normal termination of Gaussian 16 at Thu Oct 28 05:13:39 2021.
