 Gaussian 16, Revision C.01,
 Gaussian 16:  ES64L-G16RevC.01  3-Jul-2019

 ---------------------------------------------------------------
 # opt=modredundant b3lyp/6-311+g(d,p) scrf=(pcm, solvent=water)
 ---------------------------------------------------------------

 -----------
 NDI_130.pdb
 -----------
 Symbolic Z-matrix:
 Charge =  0 Multiplicity = 1

 SCF Done:  E(RB3LYP) =  -2359.35134417     A.U. after   18 cycles
 SCF Done:  E(RB3LYP) =  -2359.35202416     A.U. after   17 cycles
 SCF Done:  E(RB3LYP) =  -2359.35729649     A.U. after   16 cycles
 SCF Done:  E(RB3LYP) =  -2359.35807255     A.U. after   14 cycles
 SCF Done:  E(RB3LYP) =  -2359.35894821     A.U. after   14 cycles
 SCF Done:  E(RB3LYP) =  -2359.35910396     A.U. after   13 cycles
 SCF Done:  E(RB3LYP) =  -2359.35917807     A.U. after   13 cycles
 SCF Done:  E(RB3LYP) =  -2359.35921226     A.U. after   11 cycles
 SCF Done:  E(RB3LYP) =  -2359.35923417     A.U. after   12 cycles
 SCF Done:  E(RB3LYP) =  -2359.35925403     A.U. after   12 cycles
 SCF Done:  E(RB3LYP) =  -2359.35932673     A.U. after   11 cycles
 SCF Done:  E(RB3LYP) =  -2359.35933166     A.U. after   10 cycles
 SCF Done:  E(RB3LYP) =  -2359.35933767     A.U. after   11 cycles
 SCF Done:  E(RB3LYP) =  -2359.35934021     A.U. after   10 cycles
 SCF Done:  E(RB3LYP) =  -2359.35934445     A.U. after    9 cycles
 SCF Done:  E(RB3LYP) =  -2359.35934726     A.U. after   10 cycles
 SCF Done:  E(RB3LYP) =  -2359.35934827     A.U. after   10 cycles
 SCF Done:  E(RB3LYP) =  -2359.35934846     A.U. after    8 cycles
 SCF Done:  E(RB3LYP) =  -2359.35934851     A.U. after    7 cycles
 SCF Done:  E(RB3LYP) =  -2359.35934853     A.U. after    7 cycles
 Optimization completed.
    -- Stationary point found.

                         Standard orientation:
 ---------------------------------------------------------------------
 Center     Atomic      Atomic             Coordinates (Angstroms)
 Number     Number       Type             X           Y           Z
 ---------------------------------------------------------------------
      1          6           0        3.524379   -2.691639    0.450779
      2          6           0        2.768617   -1.454219    0.133577
      3          6           0        3.428044   -0.204653    0.120182
      4          6           0        4.803613   -0.112152    0.420918
      5          6           0        5.579431   -1.334985    0.753383
      6          6           0        1.416743   -1.520612   -0.110128
      7          6           0        2.687486    0.961836   -0.209315
      8          6           0        1.301931    0.869633   -0.515168
      9          6           0        0.643873   -0.365368   -0.399588
     10          6           0        0.633329    2.077313   -1.071248
     11          6           0        2.632410    3.452105   -0.549750
     12          6           0        3.362751    2.206471   -0.217780
     13          6           0        4.711556    2.276540    0.090728
     14          6           0        5.435926    1.119631    0.407473
     15          1           0        6.490352    1.179484    0.642123
     16          1           0        5.200464    3.241860    0.083637
     17          1           0        0.918805   -2.479018   -0.043388
     18          7           0        1.300651    3.305343   -0.932955
     19          7           0        4.884338   -2.551848    0.737070
     20          8           0        3.002981   -3.795799    0.467371
     21          8           0        6.768362   -1.292291    1.026186
     22          8           0        3.163823    4.552682   -0.513850
     23          8           0       -0.436394    2.044631   -1.655805
     24          6           0        0.572694    4.505923   -1.371918
     25          1           0        0.619654    4.607110   -2.458058
     26          1           0       -0.467251    4.418686   -1.068342
     27          1           0        1.034691    5.370919   -0.907031
     28          6           0        5.616330   -3.789285    1.050022
     29          1           0        5.191627   -4.253962    1.939793
     30          1           0        5.534874   -4.483639    0.214410
     31          1           0        6.655306   -3.531693    1.223638
     32          6           0       -0.806254   -0.571404   -0.499458
     33          6           0       -1.454566   -1.497899   -1.281313
     34         16           0       -1.926874    0.286062    0.525584
     35          6           0       -2.858700   -1.495983   -1.089379
     36          1           0       -0.938308   -2.133433   -1.986409
     37          6           0       -3.302493   -0.591736   -0.128363
     38          8           0       -3.760819   -2.278240   -1.738653
     39          6           0       -4.649450   -0.375958    0.331859
     40          6           0       -3.266096   -3.226753   -2.691276
     41          6           0       -5.088901    0.527315    1.293431
     42         16           0       -6.029309   -1.278860   -0.290473
     43          1           0       -4.141490   -3.747532   -3.073271
     44          1           0       -2.752867   -2.721598   -3.513935
     45          1           0       -2.591835   -3.943318   -2.214634
     46          6           0       -6.494358    0.498305    1.523102
     47          8           0       -4.188954    1.331918    1.916366
     48          6           0       -7.124106   -0.426699    0.739372
     49          1           0       -7.011633    1.128865    2.231275
     50          6           0       -4.676813    2.264237    2.888943
     51          1           0       -8.177660   -0.658715    0.705153
     52          1           0       -5.154600    1.743030    3.722613
     53          1           0       -3.802304    2.802310    3.248331
     54          1           0       -5.380075    2.967944    2.436085
 ---------------------------------------------------------------------

 The electronic state is 1-A.
 Alpha  occ. eigenvalues --  -88.88570 -88.88429 -19.16872 -19.16817 -19.12975
 Alpha  occ. eigenvalues --  -19.12957 -19.12628 -19.12593 -14.38939 -14.38601
 Alpha  occ. eigenvalues --  -10.31554 -10.31394 -10.31290 -10.31109 -10.24737
 Alpha  occ. eigenvalues --  -10.24687 -10.23669 -10.22892 -10.22784 -10.22770
 Alpha  occ. eigenvalues --  -10.22769 -10.22634 -10.22411 -10.22393 -10.22282
 Alpha  occ. eigenvalues --  -10.22267 -10.22237 -10.21783 -10.21604 -10.21255
 Alpha  occ. eigenvalues --  -10.21200 -10.20936 -10.20839 -10.20750 -10.19106
 Alpha  occ. eigenvalues --  -10.18675  -7.97130  -7.96989  -5.93454  -5.93298
 Alpha  occ. eigenvalues --   -5.93066  -5.92912  -5.92666  -5.92557  -1.09061
 Alpha  occ. eigenvalues --   -1.08829  -1.08247  -1.08162  -1.07257  -1.06967
 Alpha  occ. eigenvalues --   -0.96581  -0.96252  -0.92631  -0.90419  -0.88798
 Alpha  occ. eigenvalues --   -0.86810  -0.84459  -0.80563  -0.78622  -0.77597
 Alpha  occ. eigenvalues --   -0.76221  -0.75354  -0.75092  -0.73229  -0.72657
 Alpha  occ. eigenvalues --   -0.71685  -0.70165  -0.68829  -0.67494  -0.66109
 Alpha  occ. eigenvalues --   -0.65564  -0.65091  -0.61096  -0.59876  -0.58709
 Alpha  occ. eigenvalues --   -0.57653  -0.56743  -0.55849  -0.55166  -0.54634
 Alpha  occ. eigenvalues --   -0.53904  -0.51860  -0.50421  -0.50191  -0.49903
 Alpha  occ. eigenvalues --   -0.49609  -0.49266  -0.48646  -0.48201  -0.47898
 Alpha  occ. eigenvalues --   -0.47809  -0.47451  -0.47036  -0.46717  -0.45826
 Alpha  occ. eigenvalues --   -0.45500  -0.45382  -0.45140  -0.44358  -0.43934
 Alpha  occ. eigenvalues --   -0.42922  -0.42656  -0.42234  -0.42076  -0.41827
 Alpha  occ. eigenvalues --   -0.41736  -0.41519  -0.41188  -0.40753  -0.40137
 Alpha  occ. eigenvalues --   -0.39701  -0.39145  -0.38751  -0.37850  -0.37536
 Alpha  occ. eigenvalues --   -0.36263  -0.35892  -0.34227  -0.33832  -0.33768
 Alpha  occ. eigenvalues --   -0.33585  -0.32294  -0.31640  -0.30804  -0.30026
 Alpha  occ. eigenvalues --   -0.29702  -0.29338  -0.29246  -0.28656  -0.27763
 Alpha  occ. eigenvalues --   -0.26319  -0.25130  -0.24714  -0.19513
 Alpha virt. eigenvalues --   -0.13370  -0.07261  -0.06412  -0.04988  -0.04364
 Alpha virt. eigenvalues --   -0.00853  -0.00620   0.00104   0.00379   0.00458
 Alpha virt. eigenvalues --    0.00736   0.01044   0.01210   0.01291   0.02101

 Mulliken charges:
               1
     1  C    0.450344
     2  C   -0.097849
     3  C    0.135197
     4  C    0.232446
     5  C    0.300946
     6  C   -0.321802
     7  C    0.148081
     8  C    0.167266
     9  C    0.332315
    10  C   -0.433152
    11  C    0.322999
    12  C    0.095812
    13  C   -0.454645
    14  C   -0.615595
    15  H    0.166762
    16  H    0.166852
    17  H    0.163272
    18  N    0.002951
    19  N   -0.109766
    20  O   -0.341873
    21  O   -0.334735
    22  O   -0.349989
    23  O   -0.265371
    24  C   -0.197987
    25  H    0.192745
    26  H    0.182293
    27  H    0.181209
    28  C   -0.213946
    29  H    0.185347
    30  H    0.182516
    31  H    0.180656
    32  C    0.341721
    33  C   -0.551708
    34  S   -0.539540
    35  C   -0.132531
    36  H    0.162360
    37  C    0.453994
    38  O   -0.161155
    39  C    0.812923
    40  C   -0.237393
    41  C    0.024477
    42  S   -0.242458
    43  H    0.176797
    44  H    0.163883
    45  H    0.165992
    46  C   -0.594020
    47  O   -0.166106
    48  C   -0.327755
    49  H    0.161845
    50  C   -0.251400
    51  H    0.189599
    52  H    0.161283
    53  H    0.174472
    54  H    0.161422
 Sum of Mulliken charges =  -0.00000

 Dipole moment (field-independent basis, Debye):
    X=             -3.0500    Y=             -0.5435    Z=              0.8834  Tot=              3.2215
 Quadrupole moment (field-independent basis, Debye-Ang):
   XX=           -213.3006   YY=           -223.4443   ZZ=           -208.5790
   XY=            -10.7410   XZ=            -15.1790   YZ=             18.6341

 Normal termination of Gaussian 16 at Thu Oct 28 03:12:33 2021.
