 Gaussian 16, Revision C.01,
 Gaussian 16:  ES64L-G16RevC.01  3-Jul-2019

 ---------------------------------------------------------------
 # opt=modredundant b3lyp/6-311+g(d,p) scrf=(pcm, solvent=water)
 ---------------------------------------------------------------

 ------------
 NDI_-155.pdb
 ------------
 Symbolic Z-matrix:
 Charge =  0 Multiplicity = 1

 SCF Done:  E(RB3LYP) =  -2359.33043622     A.U. after   16 cycles
 SCF Done:  E(RB3LYP) =  -2359.34532368     A.U. after   17 cycles
 SCF Done:  E(RB3LYP) =  -2359.35364055     A.U. after   15 cycles
 SCF Done:  E(RB3LYP) =  -2359.35591925     A.U. after   14 cycles
 SCF Done:  E(RB3LYP) =  -2359.35653903     A.U. after   15 cycles
 SCF Done:  E(RB3LYP) =  -2359.35659204     A.U. after   12 cycles
 SCF Done:  E(RB3LYP) =  -2359.35673717     A.U. after   11 cycles
 SCF Done:  E(RB3LYP) =  -2359.35680118     A.U. after   12 cycles
 SCF Done:  E(RB3LYP) =  -2359.35685272     A.U. after   12 cycles
 SCF Done:  E(RB3LYP) =  -2359.35688784     A.U. after   11 cycles
 SCF Done:  E(RB3LYP) =  -2359.35884252     A.U. after    9 cycles
 SCF Done:  E(RB3LYP) =  -2359.35884294     A.U. after    9 cycles
 SCF Done:  E(RB3LYP) =  -2359.35884360     A.U. after    9 cycles
 SCF Done:  E(RB3LYP) =  -2359.35884429     A.U. after    9 cycles
 SCF Done:  E(RB3LYP) =  -2359.35884518     A.U. after    9 cycles
 SCF Done:  E(RB3LYP) =  -2359.35884596     A.U. after    9 cycles
 SCF Done:  E(RB3LYP) =  -2359.35884637     A.U. after   10 cycles
 SCF Done:  E(RB3LYP) =  -2359.35884644     A.U. after    9 cycles
 SCF Done:  E(RB3LYP) =  -2359.35884646     A.U. after    8 cycles
 SCF Done:  E(RB3LYP) =  -2359.35884647     A.U. after    8 cycles
 Optimization completed.
    -- Stationary point found.

                         Standard orientation:
 ---------------------------------------------------------------------
 Center     Atomic      Atomic             Coordinates (Angstroms)
 Number     Number       Type             X           Y           Z
 ---------------------------------------------------------------------
      1          6           0       -3.543059   -2.677960    0.298958
      2          6           0       -2.777722   -1.436568    0.023562
      3          6           0       -3.415290   -0.176872    0.107116
      4          6           0       -4.774452   -0.079292    0.465375
      5          6           0       -5.559382   -1.306333    0.756071
      6          6           0       -1.437247   -1.512452   -0.260717
      7          6           0       -2.661511    0.990956   -0.185087
      8          6           0       -1.288639    0.892833   -0.546552
      9          6           0       -0.638820   -0.359468   -0.510945
     10          6           0       -0.647469    2.109207   -1.105382
     11          6           0       -2.579413    3.493666   -0.396136
     12          6           0       -3.314952    2.244725   -0.098399
     13          6           0       -4.650301    2.320511    0.269437
     14          6           0       -5.384778    1.162824    0.549063
     15          1           0       -6.427897    1.226755    0.828584
     16          1           0       -5.118453    3.293914    0.335364
     17          1           0       -0.966580   -2.485770   -0.242239
     18          7           0       -1.277920    3.342641   -0.868302
     19          7           0       -4.889977   -2.532484    0.638328
     20          8           0       -3.041443   -3.790043    0.237264
     21          8           0       -6.735656   -1.260771    1.079655
     22          8           0       -3.083060    4.601414   -0.266454
     23          8           0        0.370190    2.085521   -1.779957
     24          6           0       -0.556938    4.548338   -1.303860
     25          1           0       -0.968200    5.399592   -0.770856
     26          1           0        0.499407    4.429750   -1.077206
     27          1           0       -0.675552    4.699502   -2.378746
     28          6           0       -5.634681   -3.773278    0.903804
     29          1           0       -5.565847   -4.431621    0.038737
     30          1           0       -5.211178   -4.281423    1.770402
     31          1           0       -6.669365   -3.511282    1.095546
     32          6           0        0.801328   -0.593141   -0.576952
     33          6           0        1.416698   -1.751453   -1.020604
     34         16           0        1.963248    0.454352    0.202139
     35          6           0        2.805175   -1.776768   -0.782165
     36          1           0        0.883843   -2.539957   -1.531488
     37          6           0        3.285717   -0.657241   -0.099683
     38          8           0        3.671244   -2.759526   -1.140288
     39          6           0        4.632853   -0.390913    0.318875
     40          6           0        3.142856   -3.910364   -1.810360
     41          6           0        5.106808    0.719747    1.013644
     42         16           0        5.972472   -1.491971   -0.001204
     43          1           0        3.994081   -4.561265   -1.997342
     44          1           0        2.415882   -4.428844   -1.179544
     45          1           0        2.680465   -3.629326   -2.760330
     46          6           0        6.505024    0.688605    1.277511
     47          8           0        4.243116    1.700535    1.372020
     48          6           0        7.094031   -0.443240    0.787921
     49          1           0        7.046576    1.461469    1.802735
     50          6           0        4.763512    2.840416    2.069500
     51          1           0        8.134428   -0.724787    0.846899
     52          1           0        5.503450    3.364533    1.459507
     53          1           0        3.910739    3.490999    2.249919
     54          1           0        5.206719    2.542602    3.023034
 ---------------------------------------------------------------------

 The electronic state is 1-A.
 Alpha  occ. eigenvalues --  -88.88768 -88.88671 -19.17200 -19.16986 -19.12889
 Alpha  occ. eigenvalues --  -19.12863 -19.12360 -19.12358 -14.38858 -14.38418
 Alpha  occ. eigenvalues --  -10.31453 -10.31300 -10.31039 -10.30867 -10.25125
 Alpha  occ. eigenvalues --  -10.24976 -10.23744 -10.22907 -10.22874 -10.22855
 Alpha  occ. eigenvalues --  -10.22706 -10.22517 -10.22368 -10.22361 -10.22218
 Alpha  occ. eigenvalues --  -10.22194 -10.22067 -10.21981 -10.21543 -10.21092
 Alpha  occ. eigenvalues --  -10.21012 -10.20922 -10.20895 -10.20767 -10.19482
 Alpha  occ. eigenvalues --  -10.18890  -7.97331  -7.97229  -5.93653  -5.93539
 Alpha  occ. eigenvalues --   -5.93260  -5.93151  -5.92868  -5.92797  -1.08967
 Alpha  occ. eigenvalues --   -1.08594  -1.08588  -1.08396  -1.07160  -1.06704
 Alpha  occ. eigenvalues --   -0.96481  -0.96063  -0.92445  -0.90662  -0.89004
 Alpha  occ. eigenvalues --   -0.86705  -0.84268  -0.80653  -0.78468  -0.77729
 Alpha  occ. eigenvalues --   -0.76422  -0.75407  -0.75209  -0.73423  -0.72574
 Alpha  occ. eigenvalues --   -0.71598  -0.70377  -0.68923  -0.67361  -0.65981
 Alpha  occ. eigenvalues --   -0.65468  -0.65017  -0.61184  -0.60040  -0.58728
 Alpha  occ. eigenvalues --   -0.57562  -0.56807  -0.56083  -0.55003  -0.54883
 Alpha  occ. eigenvalues --   -0.53895  -0.51723  -0.50356  -0.50140  -0.49789
 Alpha  occ. eigenvalues --   -0.49612  -0.49179  -0.48592  -0.48378  -0.48053
 Alpha  occ. eigenvalues --   -0.47978  -0.47279  -0.46997  -0.46573  -0.45834
 Alpha  occ. eigenvalues --   -0.45502  -0.45375  -0.45119  -0.44321  -0.43807
 Alpha  occ. eigenvalues --   -0.42873  -0.42618  -0.42227  -0.42069  -0.41960
 Alpha  occ. eigenvalues --   -0.41834  -0.41547  -0.41132  -0.40741  -0.40095
 Alpha  occ. eigenvalues --   -0.39671  -0.39234  -0.38881  -0.37854  -0.37497
 Alpha  occ. eigenvalues --   -0.36469  -0.36214  -0.34352  -0.34067  -0.33856
 Alpha  occ. eigenvalues --   -0.33705  -0.32074  -0.31523  -0.30746  -0.30163
 Alpha  occ. eigenvalues --   -0.29672  -0.29322  -0.29137  -0.28646  -0.27562
 Alpha  occ. eigenvalues --   -0.26164  -0.25256  -0.24798  -0.19676
 Alpha virt. eigenvalues --   -0.13268  -0.07745  -0.06473  -0.04815  -0.04025
 Alpha virt. eigenvalues --   -0.00793  -0.00591   0.00112   0.00297   0.00378
 Alpha virt. eigenvalues --    0.00785   0.01226   0.01272   0.01533   0.02034

 Mulliken charges:
               1
     1  C    0.432844
     2  C   -0.076895
     3  C    0.133144
     4  C    0.260229
     5  C    0.282935
     6  C   -0.019906
     7  C    0.119957
     8  C    0.313966
     9  C    0.280503
    10  C   -0.560554
    11  C    0.369495
    12  C    0.067892
    13  C   -0.496286
    14  C   -0.595703
    15  H    0.165119
    16  H    0.165338
    17  H    0.166010
    18  N    0.040289
    19  N   -0.113354
    20  O   -0.346556
    21  O   -0.334669
    22  O   -0.356640
    23  O   -0.288006
    24  C   -0.208858
    25  H    0.180793
    26  H    0.182846
    27  H    0.191534
    28  C   -0.211257
    29  H    0.180919
    30  H    0.186044
    31  H    0.180055
    32  C    0.130341
    33  C   -0.680248
    34  S   -0.703930
    35  C   -0.165995
    36  H    0.167028
    37  C    0.692626
    38  O   -0.161804
    39  C    0.859598
    40  C   -0.240065
    41  C   -0.002872
    42  S   -0.219596
    43  H    0.178506
    44  H    0.166825
    45  H    0.163304
    46  C   -0.611854
    47  O   -0.156757
    48  C   -0.311183
    49  H    0.163661
    50  C   -0.254128
    51  H    0.192320
    52  H    0.163795
    53  H    0.176010
    54  H    0.163190
 Sum of Mulliken charges =  -0.00000

 Dipole moment (field-independent basis, Debye):
    X=              5.2727    Y=             -1.0821    Z=              1.2786  Tot=              5.5323
 Quadrupole moment (field-independent basis, Debye-Ang):
   XX=           -207.9800   YY=           -216.2823   ZZ=           -218.2270
   XY=             13.4365   XZ=             15.7200   YZ=             15.7140

 Normal termination of Gaussian 16 at Thu Oct 28 03:13:12 2021.
