 Gaussian 16, Revision C.01,
 Gaussian 16:  ES64L-G16RevC.01  3-Jul-2019

 ---------------------------------------------------------------
 # opt=modredundant b3lyp/6-311+g(d,p) scrf=(pcm, solvent=water)
 ---------------------------------------------------------------

 ------------
 NDI_-120.pdb
 ------------
 Symbolic Z-matrix:
 Charge =  0 Multiplicity = 1

 SCF Done:  E(RB3LYP) =  -2359.35113507     A.U. after   17 cycles
 SCF Done:  E(RB3LYP) =  -2359.35564478     A.U. after   18 cycles
 SCF Done:  E(RB3LYP) =  -2359.35763709     A.U. after   14 cycles
 SCF Done:  E(RB3LYP) =  -2359.35809462     A.U. after   14 cycles
 SCF Done:  E(RB3LYP) =  -2359.35854262     A.U. after   14 cycles
 SCF Done:  E(RB3LYP) =  -2359.35869729     A.U. after   13 cycles
 SCF Done:  E(RB3LYP) =  -2359.35876771     A.U. after   13 cycles
 SCF Done:  E(RB3LYP) =  -2359.35879982     A.U. after   12 cycles
 SCF Done:  E(RB3LYP) =  -2359.35880922     A.U. after   11 cycles
 SCF Done:  E(RB3LYP) =  -2359.35882138     A.U. after   12 cycles
 SCF Done:  E(RB3LYP) =  -2359.35884339     A.U. after   10 cycles
 SCF Done:  E(RB3LYP) =  -2359.35884485     A.U. after    9 cycles
 SCF Done:  E(RB3LYP) =  -2359.35884616     A.U. after   10 cycles
 SCF Done:  E(RB3LYP) =  -2359.35884831     A.U. after    9 cycles
 SCF Done:  E(RB3LYP) =  -2359.35885060     A.U. after   10 cycles
 SCF Done:  E(RB3LYP) =  -2359.35885158     A.U. after   10 cycles
 SCF Done:  E(RB3LYP) =  -2359.35885271     A.U. after   10 cycles
 SCF Done:  E(RB3LYP) =  -2359.35885280     A.U. after    9 cycles
 SCF Done:  E(RB3LYP) =  -2359.35885283     A.U. after    8 cycles
 SCF Done:  E(RB3LYP) =  -2359.35885281     A.U. after    8 cycles
 Optimization completed.
    -- Stationary point found.

                         Standard orientation:
 ---------------------------------------------------------------------
 Center     Atomic      Atomic             Coordinates (Angstroms)
 Number     Number       Type             X           Y           Z
 ---------------------------------------------------------------------
      1          6           0       -3.490928   -2.715567    0.442377
      2          6           0       -2.751994   -1.464485    0.138114
      3          6           0       -3.431209   -0.226757    0.118875
      4          6           0       -4.813422   -0.158927    0.399240
      5          6           0       -5.573436   -1.395885    0.716519
      6          6           0       -1.396603   -1.507951   -0.096364
      7          6           0       -2.706248    0.954131   -0.193702
      8          6           0       -1.315109    0.886592   -0.479200
      9          6           0       -0.643038   -0.339607   -0.376299
     10          6           0       -0.642775    2.119156   -0.977188
     11          6           0       -2.689147    3.448519   -0.519157
     12          6           0       -3.402340    2.187326   -0.206453
     13          6           0       -4.756487    2.232464    0.079197
     14          6           0       -5.465847    1.061189    0.379891
     15          1           0       -6.524729    1.102362    0.598044
     16          1           0       -5.262384    3.188902    0.067757
     17          1           0       -0.883230   -2.458729   -0.037890
     18          7           0       -1.343365    3.330228   -0.862054
     19          7           0       -4.856776   -2.600010    0.710650
     20          8           0       -2.950431   -3.810261    0.463755
     21          8           0       -6.767192   -1.374002    0.969409
     22          8           0       -3.245416    4.536593   -0.496191
     23          8           0        0.462300    2.120460   -1.491344
     24          6           0       -0.618988    4.546692   -1.262237
     25          1           0        0.388591    4.510223   -0.855080
     26          1           0       -0.560719    4.615076   -2.350077
     27          1           0       -1.156937    5.403883   -0.871170
     28          6           0       -5.571559   -3.850465    1.011579
     29          1           0       -5.475909   -4.538116    0.171843
     30          1           0       -5.143965   -4.314196    1.900336
     31          1           0       -6.615164   -3.609690    1.181551
     32          6           0        0.812601   -0.526163   -0.507153
     33          6           0        1.467738   -1.300873   -1.429796
     34         16           0        1.923383    0.183821    0.633152
     35          6           0        2.875979   -1.302823   -1.245422
     36          1           0        0.956395   -1.825516   -2.224019
     37          6           0        3.311528   -0.551410   -0.160091
     38          8           0        3.785121   -1.959810   -2.014305
     39          6           0        4.659181   -0.383172    0.322682
     40          6           0        3.297135   -2.766417   -3.092438
     41          6           0        5.091045    0.373177    1.405419
     42         16           0        6.048772   -1.159364   -0.433988
     43          1           0        4.177540   -3.207300   -3.555127
     44          1           0        2.641884   -3.559236   -2.721631
     45          1           0        2.765021   -2.155970   -3.826984
     46          6           0        6.498750    0.333589    1.622246
     47          8           0        4.182659    1.061247    2.147313
     48          6           0        7.138360   -0.452670    0.706484
     49          1           0        7.010451    0.860103    2.414536
     50          6           0        4.666144    1.859356    3.234004
     51          1           0        8.195202   -0.658884    0.632584
     52          1           0        5.349816    2.633575    2.875716
     53          1           0        3.786884    2.324525    3.674609
     54          1           0        5.165452    1.238228    3.982353
 ---------------------------------------------------------------------

 The electronic state is 1-A.
 Alpha  occ. eigenvalues --  -88.88465 -88.88327 -19.16732 -19.16720 -19.13013
 Alpha  occ. eigenvalues --  -19.13004 -19.12719 -19.12685 -14.38978 -14.38686
 Alpha  occ. eigenvalues --  -10.31597 -10.31440 -10.31373 -10.31217 -10.24596
 Alpha  occ. eigenvalues --  -10.24507 -10.23696 -10.23010 -10.22962 -10.22741
 Alpha  occ. eigenvalues --  -10.22724 -10.22712 -10.22489 -10.22475 -10.22388
 Alpha  occ. eigenvalues --  -10.22123 -10.22012 -10.21665 -10.21620 -10.21358
 Alpha  occ. eigenvalues --  -10.21306 -10.20956 -10.20852 -10.20610 -10.18926
 Alpha  occ. eigenvalues --  -10.18585  -7.97022  -7.96888  -5.93346  -5.93196
 Alpha  occ. eigenvalues --   -5.92958  -5.92811  -5.92558  -5.92457  -1.09106
 Alpha  occ. eigenvalues --   -1.08932  -1.08111  -1.08029  -1.07303  -1.07078
 Alpha  occ. eigenvalues --   -0.96630  -0.96327  -0.92708  -0.90296  -0.88705
 Alpha  occ. eigenvalues --   -0.86845  -0.84538  -0.80521  -0.78688  -0.77531
 Alpha  occ. eigenvalues --   -0.76125  -0.75397  -0.74967  -0.73138  -0.72683
 Alpha  occ. eigenvalues --   -0.71723  -0.70067  -0.68784  -0.67550  -0.66166
 Alpha  occ. eigenvalues --   -0.65618  -0.65117  -0.61057  -0.59810  -0.58695
 Alpha  occ. eigenvalues --   -0.57692  -0.56696  -0.55744  -0.55258  -0.54516
 Alpha  occ. eigenvalues --   -0.53903  -0.51920  -0.50451  -0.50235  -0.49948
 Alpha  occ. eigenvalues --   -0.49555  -0.49303  -0.48678  -0.48133  -0.47826
 Alpha  occ. eigenvalues --   -0.47735  -0.47525  -0.47042  -0.46785  -0.45845
 Alpha  occ. eigenvalues --   -0.45470  -0.45379  -0.45105  -0.44369  -0.43986
 Alpha  occ. eigenvalues --   -0.42948  -0.42705  -0.42321  -0.42022  -0.41789
 Alpha  occ. eigenvalues --   -0.41676  -0.41433  -0.41218  -0.40754  -0.40147
 Alpha  occ. eigenvalues --   -0.39753  -0.39099  -0.38675  -0.37845  -0.37482
 Alpha  occ. eigenvalues --   -0.36147  -0.35786  -0.34180  -0.33731  -0.33710
 Alpha  occ. eigenvalues --   -0.33490  -0.32396  -0.31678  -0.30829  -0.30020
 Alpha  occ. eigenvalues --   -0.29719  -0.29420  -0.29220  -0.28603  -0.27840
 Alpha  occ. eigenvalues --   -0.26417  -0.25050  -0.24652  -0.19434
 Alpha virt. eigenvalues --   -0.13421  -0.07144  -0.06291  -0.05056  -0.04558
 Alpha virt. eigenvalues --   -0.00811  -0.00619   0.00111   0.00405   0.00508
 Alpha virt. eigenvalues --    0.00732   0.00970   0.01153   0.01237   0.02116

 Mulliken charges:
               1
     1  C    0.452088
     2  C   -0.065672
     3  C    0.155793
     4  C    0.218783
     5  C    0.306215
     6  C   -0.401676
     7  C    0.169746
     8  C    0.089555
     9  C    0.331582
    10  C   -0.378421
    11  C    0.323221
    12  C    0.124977
    13  C   -0.459923
    14  C   -0.641306
    15  H    0.167489
    16  H    0.167608
    17  H    0.161513
    18  N   -0.027903
    19  N   -0.108774
    20  O   -0.339812
    21  O   -0.334277
    22  O   -0.345724
    23  O   -0.246149
    24  C   -0.198842
    25  H    0.182456
    26  H    0.192552
    27  H    0.181292
    28  C   -0.215021
    29  H    0.183229
    30  H    0.185056
    31  H    0.180939
    32  C    0.368798
    33  C   -0.485733
    34  S   -0.440761
    35  C   -0.171686
    36  H    0.156046
    37  C    0.373119
    38  O   -0.161179
    39  C    0.792897
    40  C   -0.236536
    41  C    0.024196
    42  S   -0.249296
    43  H    0.176161
    44  H    0.165142
    45  H    0.163853
    46  C   -0.571967
    47  O   -0.169847
    48  C   -0.338205
    49  H    0.161022
    50  C   -0.249604
    51  H    0.188522
    52  H    0.160593
    53  H    0.173600
    54  H    0.160268
 Sum of Mulliken charges =  -0.00000

 Dipole moment (field-independent basis, Debye):
    X=              2.0577    Y=             -0.3307    Z=              0.6309  Tot=              2.1775
 Quadrupole moment (field-independent basis, Debye-Ang):
   XX=           -215.5066   YY=           -227.6736   ZZ=           -203.2553
   XY=              9.1785   XZ=             15.0034   YZ=             17.6579

 Normal termination of Gaussian 16 at Wed Oct 27 21:41:54 2021.
