 Gaussian 16, Revision C.01,
 Gaussian 16:  ES64L-G16RevC.01  3-Jul-2019

 ---------------------------------------------------------------
 # opt=modredundant b3lyp/6-311+g(d,p) scrf=(pcm, solvent=water)
 ---------------------------------------------------------------

 -----------
 NDI_105.pdb
 -----------
 Symbolic Z-matrix:
 Charge =  0 Multiplicity = 1

 SCF Done:  E(RB3LYP) =  -2359.35414640     A.U. after   17 cycles
 SCF Done:  E(RB3LYP) =  -2359.35709974     A.U. after   14 cycles
 SCF Done:  E(RB3LYP) =  -2359.35752811     A.U. after   15 cycles
 SCF Done:  E(RB3LYP) =  -2359.35779641     A.U. after   13 cycles
 SCF Done:  E(RB3LYP) =  -2359.35788134     A.U. after   12 cycles
 SCF Done:  E(RB3LYP) =  -2359.35790926     A.U. after   11 cycles
 SCF Done:  E(RB3LYP) =  -2359.35791580     A.U. after   11 cycles
 SCF Done:  E(RB3LYP) =  -2359.35791995     A.U. after   11 cycles
 SCF Done:  E(RB3LYP) =  -2359.35791882     A.U. after   11 cycles
 SCF Done:  E(RB3LYP) =  -2359.35791743     A.U. after   10 cycles
 SCF Done:  E(RB3LYP) =  -2359.35798023     A.U. after   11 cycles
 SCF Done:  E(RB3LYP) =  -2359.35798034     A.U. after    9 cycles
 SCF Done:  E(RB3LYP) =  -2359.35798134     A.U. after    9 cycles
 SCF Done:  E(RB3LYP) =  -2359.35798310     A.U. after   10 cycles
 SCF Done:  E(RB3LYP) =  -2359.35793230     A.U. after    9 cycles
 SCF Done:  E(RB3LYP) =  -2359.35793571     A.U. after   10 cycles
 SCF Done:  E(RB3LYP) =  -2359.35793503     A.U. after   10 cycles
 SCF Done:  E(RB3LYP) =  -2359.35793579     A.U. after   10 cycles
 SCF Done:  E(RB3LYP) =  -2359.35793581     A.U. after    9 cycles
 SCF Done:  E(RB3LYP) =  -2359.35793581     A.U. after    8 cycles
 Optimization completed.
    -- Stationary point found.

                         Standard orientation:
 ---------------------------------------------------------------------
 Center     Atomic      Atomic             Coordinates (Angstroms)
 Number     Number       Type             X           Y           Z
 ---------------------------------------------------------------------
      1          6           0        3.351168   -2.804387    0.217855
      2          6           0        2.678526   -1.493058    0.037524
      3          6           0        3.425291   -0.298125    0.100312
      4          6           0        4.818376   -0.331724    0.335220
      5          6           0        5.515465   -1.631685    0.518727
      6          6           0        1.319936   -1.442660   -0.181458
      7          6           0        2.760413    0.944009   -0.081570
      8          6           0        1.359991    0.978038   -0.324395
      9          6           0        0.631611   -0.216852   -0.353626
     10          6           0        0.719372    2.298366   -0.592765
     11          6           0        2.881261    3.456481   -0.190762
     12          6           0        3.526621    2.133181   -0.014106
     13          6           0        4.889229    2.077855    0.220851
     14          6           0        5.538913    0.846706    0.394137
     15          1           0        6.605142    0.810782    0.574338
     16          1           0        5.450086    3.001857    0.269374
     17          1           0        0.756778   -2.366067   -0.212239
     18          7           0        1.513381    3.447246   -0.460115
     19          7           0        4.728610   -2.788626    0.447604
     20          8           0        2.747282   -3.864271    0.170599
     21          8           0        6.717095   -1.697116    0.720744
     22          8           0        3.509053    4.501578   -0.113060
     23          8           0       -0.445701    2.423356   -0.925825
     24          6           0        0.831941    4.732147   -0.684270
     25          1           0        0.506419    4.805788   -1.722284
     26          1           0       -0.039496    4.798936   -0.034870
     27          1           0        1.533063    5.527827   -0.457636
     28          6           0        5.376779   -4.097991    0.622111
     29          1           0        4.927218   -4.619843    1.466334
     30          1           0        5.242160   -4.697558   -0.277955
     31          1           0        6.432413   -3.929973    0.804563
     32          6           0       -0.831712   -0.320905   -0.555876
     33          6           0       -1.482517   -0.724950   -1.688610
     34         16           0       -1.942819   -0.025376    0.752179
     35          6           0       -2.895842   -0.771178   -1.522720
     36          1           0       -0.968272   -0.958616   -2.609643
     37          6           0       -3.334094   -0.426273   -0.252770
     38          8           0       -3.802222   -1.119700   -2.476506
     39          6           0       -4.686743   -0.402524    0.250222
     40          6           0       -3.310197   -1.486153   -3.770148
     41          6           0       -5.120080   -0.066884    1.525662
     42         16           0       -6.080012   -0.823578   -0.743230
     43          1           0       -4.189101   -1.725106   -4.365267
     44          1           0       -2.770011   -0.655761   -4.232910
     45          1           0       -2.661057   -2.363782   -3.707702
     46          6           0       -6.532251   -0.143775    1.703751
     47          8           0       -4.209144    0.292023    2.471775
     48          6           0       -7.174475   -0.537633    0.564577
     49          1           0       -7.044813    0.081410    2.627606
     50          6           0       -4.693618    0.640014    3.773195
     51          1           0       -8.234023   -0.677291    0.414127
     52          1           0       -5.214548   -0.203181    4.234892
     53          1           0       -3.812939    0.889833    4.361241
     54          1           0       -5.358743    1.506446    3.724202
 ---------------------------------------------------------------------

 The electronic state is 1-A.
 Alpha  occ. eigenvalues --  -88.88340 -88.88193 -19.16584 -19.16551 -19.13072
 Alpha  occ. eigenvalues --  -19.13071 -19.12821 -19.12815 -14.39034 -14.38812
 Alpha  occ. eigenvalues --  -10.31664 -10.31504 -10.31481 -10.31375 -10.24381
 Alpha  occ. eigenvalues --  -10.24268 -10.23763 -10.23290 -10.23107 -10.22891
 Alpha  occ. eigenvalues --  -10.22660 -10.22635 -10.22600 -10.22595 -10.22554
 Alpha  occ. eigenvalues --  -10.21972 -10.21647 -10.21647 -10.21510 -10.21508
 Alpha  occ. eigenvalues --  -10.21442 -10.20981 -10.20863 -10.20422 -10.18664
 Alpha  occ. eigenvalues --  -10.18467  -7.96891  -7.96754  -5.93216  -5.93063
 Alpha  occ. eigenvalues --   -5.92828  -5.92678  -5.92428  -5.92324  -1.09175
 Alpha  occ. eigenvalues --   -1.09071  -1.07935  -1.07842  -1.07373  -1.07228
 Alpha  occ. eigenvalues --   -0.96704  -0.96429  -0.92822  -0.90134  -0.88589
 Alpha  occ. eigenvalues --   -0.86889  -0.84653  -0.80484  -0.78786  -0.77442
 Alpha  occ. eigenvalues --   -0.75995  -0.75465  -0.74793  -0.73034  -0.72699
 Alpha  occ. eigenvalues --   -0.71787  -0.69929  -0.68731  -0.67630  -0.66250
 Alpha  occ. eigenvalues --   -0.65717  -0.65149  -0.61021  -0.59726  -0.58673
 Alpha  occ. eigenvalues --   -0.57749  -0.56612  -0.55606  -0.55420  -0.54357
 Alpha  occ. eigenvalues --   -0.53892  -0.52008  -0.50498  -0.50318  -0.50015
 Alpha  occ. eigenvalues --   -0.49452  -0.49344  -0.48732  -0.48065  -0.47773
 Alpha  occ. eigenvalues --   -0.47647  -0.47567  -0.47043  -0.46883  -0.45893
 Alpha  occ. eigenvalues --   -0.45424  -0.45334  -0.45059  -0.44388  -0.44038
 Alpha  occ. eigenvalues --   -0.42984  -0.42809  -0.42464  -0.41947  -0.41785
 Alpha  occ. eigenvalues --   -0.41513  -0.41318  -0.41272  -0.40762  -0.40156
 Alpha  occ. eigenvalues --   -0.39846  -0.39024  -0.38599  -0.37869  -0.37361
 Alpha  occ. eigenvalues --   -0.35980  -0.35679  -0.34095  -0.33655  -0.33560
 Alpha  occ. eigenvalues --   -0.33396  -0.32552  -0.31716  -0.30843  -0.30059
 Alpha  occ. eigenvalues --   -0.29758  -0.29575  -0.29202  -0.28520  -0.27891
 Alpha  occ. eigenvalues --   -0.26572  -0.24924  -0.24567  -0.19309
 Alpha virt. eigenvalues --   -0.13499  -0.07086  -0.06010  -0.05154  -0.04884
 Alpha virt. eigenvalues --   -0.00681  -0.00619   0.00117   0.00423   0.00592
 Alpha virt. eigenvalues --    0.00704   0.00884   0.01000   0.01248   0.02116

 Mulliken charges:
               1
     1  C    0.449445
     2  C    0.032355
     3  C    0.217775
     4  C    0.212463
     5  C    0.320196
     6  C   -0.539651
     7  C    0.205805
     8  C   -0.029925
     9  C    0.405508
    10  C   -0.295987
    11  C    0.290124
    12  C    0.199308
    13  C   -0.529438
    14  C   -0.660519
    15  H    0.168467
    16  H    0.168615
    17  H    0.161212
    18  N   -0.101417
    19  N   -0.110009
    20  O   -0.336182
    21  O   -0.331958
    22  O   -0.336655
    23  O   -0.205494
    24  C   -0.218351
    25  H    0.188404
    26  H    0.184209
    27  H    0.181565
    28  C   -0.215911
    29  H    0.183783
    30  H    0.184845
    31  H    0.180873
    32  C    0.228205
    33  C   -0.378663
    34  S   -0.272381
    35  C   -0.150815
    36  H    0.148183
    37  C    0.266293
    38  O   -0.165845
    39  C    0.743287
    40  C   -0.235471
    41  C    0.035266
    42  S   -0.254998
    43  H    0.175691
    44  H    0.164059
    45  H    0.163625
    46  C   -0.544848
    47  O   -0.177295
    48  C   -0.359796
    49  H    0.159984
    50  C   -0.246701
    51  H    0.187135
    52  H    0.159097
    53  H    0.172678
    54  H    0.159856
 Sum of Mulliken charges =  -0.00000

 Dipole moment (field-independent basis, Debye):
    X=             -0.6604    Y=             -0.1488    Z=              0.2097  Tot=              0.7087
 Quadrupole moment (field-independent basis, Debye-Ang):
   XX=           -218.7586   YY=           -235.9339   ZZ=           -193.0918
   XY=             -4.9061   XZ=            -14.7978   YZ=              8.8759

 Normal termination of Gaussian 16 at Thu Oct 28 02:52:16 2021.
