 Gaussian 16, Revision C.01,
 Gaussian 16:  ES64L-G16RevC.01  3-Jul-2019

 ---------------------------------------------------------------
 # opt=modredundant b3lyp/6-311+g(d,p) scrf=(pcm, solvent=water)
 ---------------------------------------------------------------

 -----------
 NDI_110.pdb
 -----------
 Symbolic Z-matrix:
 Charge =  0 Multiplicity = 1

 SCF Done:  E(RB3LYP) =  -2359.35449090     A.U. after   18 cycles
 SCF Done:  E(RB3LYP) =  -2359.35753876     A.U. after   14 cycles
 SCF Done:  E(RB3LYP) =  -2359.35785873     A.U. after   14 cycles
 SCF Done:  E(RB3LYP) =  -2359.35795961     A.U. after   13 cycles
 SCF Done:  E(RB3LYP) =  -2359.35814830     A.U. after   12 cycles
 SCF Done:  E(RB3LYP) =  -2359.35816343     A.U. after   11 cycles
 SCF Done:  E(RB3LYP) =  -2359.35818163     A.U. after   12 cycles
 SCF Done:  E(RB3LYP) =  -2359.35818818     A.U. after   11 cycles
 SCF Done:  E(RB3LYP) =  -2359.35819422     A.U. after   10 cycles
 SCF Done:  E(RB3LYP) =  -2359.35825161     A.U. after   13 cycles
 SCF Done:  E(RB3LYP) =  -2359.35826725     A.U. after   12 cycles
 SCF Done:  E(RB3LYP) =  -2359.35826835     A.U. after   11 cycles
 SCF Done:  E(RB3LYP) =  -2359.35826919     A.U. after   10 cycles
 SCF Done:  E(RB3LYP) =  -2359.35826968     A.U. after   10 cycles
 SCF Done:  E(RB3LYP) =  -2359.35827013     A.U. after    9 cycles
 SCF Done:  E(RB3LYP) =  -2359.35827056     A.U. after   10 cycles
 SCF Done:  E(RB3LYP) =  -2359.35827083     A.U. after   10 cycles
 SCF Done:  E(RB3LYP) =  -2359.35827127     A.U. after    9 cycles
 SCF Done:  E(RB3LYP) =  -2359.35827146     A.U. after    9 cycles
 SCF Done:  E(RB3LYP) =  -2359.35827153     A.U. after    9 cycles
 Optimization completed.
    -- Stationary point found.

                         Standard orientation:
 ---------------------------------------------------------------------
 Center     Atomic      Atomic             Coordinates (Angstroms)
 Number     Number       Type             X           Y           Z
 ---------------------------------------------------------------------
      1          6           0        3.409414   -2.770802    0.317818
      2          6           0        2.709124   -1.483477    0.079355
      3          6           0        3.427624   -0.269481    0.107161
      4          6           0        4.816414   -0.260827    0.366531
      5          6           0        5.539622   -1.535601    0.613193
      6          6           0        1.351698   -1.472618   -0.150786
      7          6           0        2.737771    0.948607   -0.134454
      8          6           0        1.340831    0.940307   -0.398723
      9          6           0        0.636526   -0.269803   -0.372528
     10          6           0        0.683398    2.228416   -0.762404
     11          6           0        2.801712    3.456488   -0.340060
     12          6           0        3.475006    2.157334   -0.100781
     13          6           0        4.834270    2.143591    0.159730
     14          6           0        5.508710    0.936004    0.392140
     15          1           0        6.571933    0.932133    0.592550
     16          1           0        5.372625    3.081870    0.182236
     17          1           0        0.808750   -2.408543   -0.144062
     18          7           0        1.441563    3.402895   -0.640678
     19          7           0        4.781615   -2.713109    0.571294
     20          8           0        2.832120   -3.846406    0.298199
     21          8           0        6.738020   -1.564579    0.841552
     22          8           0        3.401277    4.519849   -0.288039
     23          8           0       -0.462808    2.305844   -1.168027
     24          6           0        0.740614    4.660989   -0.942702
     25          1           0        0.521917    4.723219   -2.009644
     26          1           0       -0.194669    4.693844   -0.387427
     27          1           0        1.384352    5.483253   -0.649690
     28          6           0        5.457329   -3.998905    0.806400
     29          1           0        5.007634   -4.498059    1.664236
     30          1           0        5.350125   -4.636051   -0.071196
     31          1           0        6.505938   -3.798790    0.997082
     32          6           0       -0.824940   -0.410011   -0.548891
     33          6           0       -1.482721   -0.955682   -1.617741
     34         16           0       -1.929458    0.049708    0.717173
     35          6           0       -2.894172   -0.980977   -1.438682
     36          1           0       -0.974068   -1.302782   -2.505536
     37          6           0       -3.325072   -0.477375   -0.219205
     38          8           0       -3.806559   -1.447494   -2.334004
     39          6           0       -4.673845   -0.394870    0.286502
     40          6           0       -3.322181   -1.983227   -3.570433
     41          6           0       -5.099085    0.101905    1.511529
     42         16           0       -6.072608   -0.944155   -0.633621
     43          1           0       -4.204501   -2.298749   -4.123277
     44          1           0       -2.785109   -1.221794   -4.142440
     45          1           0       -2.672206   -2.844841   -3.395416
     46          6           0       -6.509602    0.045876    1.708362
     47          8           0       -4.182547    0.581946    2.395798
     48          6           0       -7.158271   -0.493682    0.634270
     49          1           0       -7.016615    0.387539    2.598945
     50          6           0       -4.658379    1.097429    3.644027
     51          1           0       -8.218389   -0.654274    0.511041
     52          1           0       -5.172099    0.320744    4.216911
     53          1           0       -3.774134    1.425368    4.186534
     54          1           0       -5.327477    1.947622    3.486410
 ---------------------------------------------------------------------

 The electronic state is 1-A.
 Alpha  occ. eigenvalues --  -88.88366 -88.88232 -19.16625 -19.16604 -19.13052
 Alpha  occ. eigenvalues --  -19.13051 -19.12788 -19.12774 -14.39017 -14.38773
 Alpha  occ. eigenvalues --  -10.31642 -10.31485 -10.31447 -10.31326 -10.24446
 Alpha  occ. eigenvalues --  -10.24336 -10.23739 -10.23205 -10.23066 -10.22847
 Alpha  occ. eigenvalues --  -10.22677 -10.22656 -10.22568 -10.22558 -10.22505
 Alpha  occ. eigenvalues --  -10.22013 -10.21749 -10.21637 -10.21551 -10.21464
 Alpha  occ. eigenvalues --  -10.21402 -10.20975 -10.20857 -10.20475 -10.18744
 Alpha  occ. eigenvalues --  -10.18502  -7.96920  -7.96793  -5.93244  -5.93102
 Alpha  occ. eigenvalues --   -5.92856  -5.92717  -5.92456  -5.92363  -1.09154
 Alpha  occ. eigenvalues --   -1.09028  -1.07985  -1.07896  -1.07351  -1.07182
 Alpha  occ. eigenvalues --   -0.96681  -0.96397  -0.92786  -0.90179  -0.88621
 Alpha  occ. eigenvalues --   -0.86875  -0.84618  -0.80490  -0.78756  -0.77467
 Alpha  occ. eigenvalues --   -0.76030  -0.75443  -0.74841  -0.73058  -0.72698
 Alpha  occ. eigenvalues --   -0.71766  -0.69969  -0.68744  -0.67605  -0.66224
 Alpha  occ. eigenvalues --   -0.65684  -0.65140  -0.61025  -0.59750  -0.58679
 Alpha  occ. eigenvalues --   -0.57731  -0.56640  -0.55646  -0.55363  -0.54402
 Alpha  occ. eigenvalues --   -0.53897  -0.51980  -0.50483  -0.50289  -0.49993
 Alpha  occ. eigenvalues --   -0.49479  -0.49334  -0.48714  -0.48078  -0.47782
 Alpha  occ. eigenvalues --   -0.47665  -0.47569  -0.47042  -0.46852  -0.45875
 Alpha  occ. eigenvalues --   -0.45433  -0.45353  -0.45070  -0.44383  -0.44026
 Alpha  occ. eigenvalues --   -0.42974  -0.42770  -0.42420  -0.41963  -0.41786
 Alpha  occ. eigenvalues --   -0.41564  -0.41351  -0.41252  -0.40758  -0.40152
 Alpha  occ. eigenvalues --   -0.39815  -0.39041  -0.38616  -0.37857  -0.37402
 Alpha  occ. eigenvalues --   -0.36031  -0.35706  -0.34117  -0.33676  -0.33601
 Alpha  occ. eigenvalues --   -0.33428  -0.32504  -0.31704  -0.30841  -0.30042
 Alpha  occ. eigenvalues --   -0.29742  -0.29525  -0.29202  -0.28537  -0.27884
 Alpha  occ. eigenvalues --   -0.26523  -0.24960  -0.24589  -0.19344
 Alpha virt. eigenvalues --   -0.13477  -0.07092  -0.06104  -0.05125  -0.04777
 Alpha virt. eigenvalues --   -0.00725  -0.00631   0.00113   0.00423   0.00565
 Alpha virt. eigenvalues --    0.00718   0.00900   0.01054   0.01212   0.02106

 Mulliken charges:
               1
     1  C    0.460790
     2  C   -0.013944
     3  C    0.157840
     4  C    0.262461
     5  C    0.299169
     6  C   -0.657589
     7  C    0.174898
     8  C    0.050649
     9  C    0.482149
    10  C   -0.206705
    11  C    0.348447
    12  C    0.222521
    13  C   -0.534839
    14  C   -0.692847
    15  H    0.168343
    16  H    0.168657
    17  H    0.161697
    18  N   -0.075386
    19  N   -0.108926
    20  O   -0.336851
    21  O   -0.332830
    22  O   -0.339813
    23  O   -0.217220
    24  C   -0.210280
    25  H    0.190995
    26  H    0.183164
    27  H    0.181495
    28  C   -0.216074
    29  H    0.184079
    30  H    0.184642
    31  H    0.181111
    32  C    0.434470
    33  C   -0.811815
    34  S   -0.335952
    35  C   -0.255848
    36  H    0.150830
    37  C    0.368711
    38  O   -0.152157
    39  C    0.899008
    40  C   -0.257305
    41  C    0.021224
    42  S   -0.227917
    43  H    0.176170
    44  H    0.163946
    45  H    0.164874
    46  C   -0.532648
    47  O   -0.174577
    48  C   -0.343799
    49  H    0.160448
    50  C   -0.247785
    51  H    0.187887
    52  H    0.159531
    53  H    0.172934
    54  H    0.159967
 Sum of Mulliken charges =  -0.00000

 Dipole moment (field-independent basis, Debye):
    X=             -1.0718    Y=             -0.1967    Z=              0.3653  Tot=              1.1493
 Quadrupole moment (field-independent basis, Debye-Ang):
   XX=           -217.8796   YY=           -233.6129   ZZ=           -195.9691
   XY=             -6.4878   XZ=            -14.9458   YZ=             12.8652

 Normal termination of Gaussian 16 at Thu Oct 28 02:53:11 2021.
