 Gaussian 16, Revision C.01,
 Gaussian 16:  ES64L-G16RevC.01  3-Jul-2019

 ---------------------------------------------------------------
 # opt=modredundant b3lyp/6-311+g(d,p) scrf=(pcm, solvent=water)
 ---------------------------------------------------------------

 ----------
 NDI_20.pdb
 ----------
 Symbolic Z-matrix:
 Charge =  0 Multiplicity = 1

 SCF Done:  E(RB3LYP) =  -2359.34265085     A.U. after   16 cycles
 SCF Done:  E(RB3LYP) =  -2359.33756800     A.U. after   17 cycles
 SCF Done:  E(RB3LYP) =  -2359.35121093     A.U. after   14 cycles
 SCF Done:  E(RB3LYP) =  -2359.35418649     A.U. after   15 cycles
 SCF Done:  E(RB3LYP) =  -2359.35475029     A.U. after   15 cycles
 SCF Done:  E(RB3LYP) =  -2359.35546939     A.U. after   13 cycles
 SCF Done:  E(RB3LYP) =  -2359.35600177     A.U. after   16 cycles
 SCF Done:  E(RB3LYP) =  -2359.35655033     A.U. after   13 cycles
 SCF Done:  E(RB3LYP) =  -2359.35725929     A.U. after   16 cycles
 SCF Done:  E(RB3LYP) =  -2359.35783521     A.U. after   14 cycles
 SCF Done:  E(RB3LYP) =  -2359.35861414     A.U. after   12 cycles
 SCF Done:  E(RB3LYP) =  -2359.35863403     A.U. after   11 cycles
 SCF Done:  E(RB3LYP) =  -2359.35865367     A.U. after   11 cycles
 SCF Done:  E(RB3LYP) =  -2359.35866339     A.U. after   12 cycles
 SCF Done:  E(RB3LYP) =  -2359.35866744     A.U. after   10 cycles
 SCF Done:  E(RB3LYP) =  -2359.35867016     A.U. after   11 cycles
 SCF Done:  E(RB3LYP) =  -2359.35867117     A.U. after   10 cycles
 SCF Done:  E(RB3LYP) =  -2359.35867147     A.U. after   10 cycles
 SCF Done:  E(RB3LYP) =  -2359.35867164     A.U. after    9 cycles
 SCF Done:  E(RB3LYP) =  -2359.35867165     A.U. after    8 cycles
 Optimization completed.
    -- Stationary point found.

                         Standard orientation:
 ---------------------------------------------------------------------
 Center     Atomic      Atomic             Coordinates (Angstroms)
 Number     Number       Type             X           Y           Z
 ---------------------------------------------------------------------
      1          6           0       -2.631038   -3.022092    0.177733
      2          6           0       -2.287883   -1.583836    0.052877
      3          6           0       -3.308821   -0.605376    0.059421
      4          6           0       -4.659109   -0.977641    0.204269
      5          6           0       -5.028418   -2.409430    0.344319
      6          6           0       -0.973301   -1.204375   -0.016751
      7          6           0       -2.943981    0.759632   -0.093463
      8          6           0       -1.577838    1.136633   -0.243962
      9          6           0       -0.559244    0.157388   -0.122177
     10          6           0       -1.315361    2.527761   -0.688492
     11          6           0       -3.673240    3.159990   -0.242194
     12          6           0       -3.983115    1.723554   -0.084451
     13          6           0       -5.306761    1.338283    0.076686
     14          6           0       -5.651851   -0.009029    0.217033
     15          1           0       -6.685807   -0.304997    0.333476
     16          1           0       -6.072333    2.102955    0.088696
     17          1           0       -0.226633   -1.984384    0.055450
     18          7           0       -2.346445    3.470546   -0.522826
     19          7           0       -3.983272   -3.343341    0.309286
     20          8           0       -1.787024   -3.905312    0.168784
     21          8           0       -6.187383   -2.768524    0.480245
     22          8           0       -4.528269    4.032999   -0.162805
     23          8           0       -0.274044    2.891142   -1.214246
     24          6           0       -2.014934    4.870406   -0.828484
     25          1           0       -1.022835    5.091990   -0.443698
     26          1           0       -2.023729    5.040487   -1.906993
     27          1           0       -2.758086    5.504247   -0.355382
     28          6           0       -4.306502   -4.773400    0.431576
     29          1           0       -3.919390   -5.310357   -0.433666
     30          1           0       -3.849938   -5.179753    1.334240
     31          1           0       -5.385161   -4.872322    0.483150
     32          6           0        0.861797    0.410454    0.057975
     33          6           0        1.517859    1.539083    0.510654
     34         16           0        2.028584   -0.852580   -0.327309
     35          6           0        2.914206    1.390735    0.575431
     36          1           0        1.006207    2.437510    0.811823
     37          6           0        3.384090    0.144823    0.142206
     38          8           0        3.805881    2.316173    1.006936
     39          6           0        4.743192   -0.305344    0.068611
     40          6           0        3.303545    3.589466    1.432657
     41          6           0        5.206105   -1.550168   -0.355274
     42         16           0        6.116748    0.703049    0.522569
     43          1           0        4.176844    4.171507    1.718210
     44          1           0        2.776834    4.091223    0.616810
     45          1           0        2.639301    3.476534    2.293411
     46          6           0        6.621383   -1.688848   -0.315674
     47          8           0        4.317119   -2.489358   -0.755554
     48          6           0        7.234607   -0.553869    0.136078
     49          1           0        7.157678   -2.580377   -0.605330
     50          6           0        4.821934   -3.759774   -1.190864
     51          1           0        8.292389   -0.383153    0.267239
     52          1           0        5.366411   -4.257232   -0.384571
     53          1           0        3.947765   -4.348086   -1.460221
     54          1           0        5.469028   -3.640823   -2.063343
 ---------------------------------------------------------------------

 The electronic state is 1-A.
 Alpha  occ. eigenvalues --  -88.89114 -88.88793 -19.17361 -19.17198 -19.12863
 Alpha  occ. eigenvalues --  -19.12836 -19.12211 -19.12145 -14.38841 -14.38301
 Alpha  occ. eigenvalues --  -10.31424 -10.31268 -10.30917 -10.30702 -10.25315
 Alpha  occ. eigenvalues --  -10.25268 -10.23844 -10.23231 -10.22970 -10.22930
 Alpha  occ. eigenvalues --  -10.22666 -10.22542 -10.22273 -10.22256 -10.22212
 Alpha  occ. eigenvalues --  -10.22141 -10.22108 -10.21825 -10.21532 -10.21246
 Alpha  occ. eigenvalues --  -10.20889 -10.20886 -10.20773 -10.20708 -10.19344
 Alpha  occ. eigenvalues --  -10.18991  -7.97681  -7.97349  -5.93996  -5.93659
 Alpha  occ. eigenvalues --   -5.93609  -5.93271  -5.93230  -5.92916  -1.08945
 Alpha  occ. eigenvalues --   -1.08772  -1.08643  -1.08445  -1.07133  -1.06535
 Alpha  occ. eigenvalues --   -0.96463  -0.95923  -0.92358  -0.90807  -0.89101
 Alpha  occ. eigenvalues --   -0.86655  -0.84183  -0.80642  -0.78462  -0.77882
 Alpha  occ. eigenvalues --   -0.76487  -0.75541  -0.75182  -0.73445  -0.72460
 Alpha  occ. eigenvalues --   -0.71939  -0.70291  -0.68975  -0.67323  -0.65874
 Alpha  occ. eigenvalues --   -0.65612  -0.64783  -0.61397  -0.60086  -0.58710
 Alpha  occ. eigenvalues --   -0.57448  -0.56803  -0.56272  -0.55433  -0.54987
 Alpha  occ. eigenvalues --   -0.53519  -0.51745  -0.50459  -0.50045  -0.49952
 Alpha  occ. eigenvalues --   -0.49446  -0.49125  -0.48588  -0.48507  -0.48103
 Alpha  occ. eigenvalues --   -0.48059  -0.47191  -0.46917  -0.46541  -0.46066
 Alpha  occ. eigenvalues --   -0.45434  -0.45361  -0.44913  -0.44070  -0.43671
 Alpha  occ. eigenvalues --   -0.42935  -0.42772  -0.42429  -0.42189  -0.41989
 Alpha  occ. eigenvalues --   -0.41838  -0.41315  -0.41096  -0.40657  -0.40066
 Alpha  occ. eigenvalues --   -0.39683  -0.39266  -0.39135  -0.38029  -0.37460
 Alpha  occ. eigenvalues --   -0.36556  -0.36279  -0.34464  -0.34207  -0.33883
 Alpha  occ. eigenvalues --   -0.33783  -0.32141  -0.31507  -0.30806  -0.30089
 Alpha  occ. eigenvalues --   -0.29725  -0.29298  -0.29083  -0.28515  -0.27451
 Alpha  occ. eigenvalues --   -0.26195  -0.25224  -0.24990  -0.19766
 Alpha virt. eigenvalues --   -0.13240  -0.08042  -0.06501  -0.04733  -0.03822
 Alpha virt. eigenvalues --   -0.00628  -0.00562   0.00146   0.00297   0.00466
 Alpha virt. eigenvalues --    0.00803   0.01048   0.01422   0.01545   0.02001

 Mulliken charges:
               1
     1  C    0.361895
     2  C   -0.065702
     3  C    0.218744
     4  C    0.213971
     5  C    0.294508
     6  C    0.116045
     7  C    0.222575
     8  C    0.610397
     9  C    0.185374
    10  C   -0.872141
    11  C    0.279831
    12  C    0.120215
    13  C   -0.492334
    14  C   -0.618307
    15  H    0.164102
    16  H    0.164786
    17  H    0.164962
    18  N    0.024722
    19  N   -0.108220
    20  O   -0.352105
    21  O   -0.334430
    22  O   -0.360341
    23  O   -0.291160
    24  C   -0.189949
    25  H    0.179642
    26  H    0.190010
    27  H    0.179065
    28  C   -0.216472
    29  H    0.181443
    30  H    0.185309
    31  H    0.179555
    32  C   -0.116460
    33  C   -0.460541
    34  S   -0.655674
    35  C   -0.315660
    36  H    0.171214
    37  C    0.721209
    38  O   -0.149348
    39  C    0.871550
    40  C   -0.246593
    41  C    0.045033
    42  S   -0.209420
    43  H    0.179838
    44  H    0.167016
    45  H    0.165179
    46  C   -0.637588
    47  O   -0.154016
    48  C   -0.321670
    49  H    0.164812
    50  C   -0.253524
    51  H    0.193712
    52  H    0.164302
    53  H    0.176793
    54  H    0.163849
 Sum of Mulliken charges =  -0.00000

 Dipole moment (field-independent basis, Debye):
    X=              6.7007    Y=             -0.8361    Z=              1.0900  Tot=              6.8401
 Quadrupole moment (field-independent basis, Debye-Ang):
   XX=           -210.1538   YY=           -208.5330   ZZ=           -221.7797
   XY=             -7.4752   XZ=              0.5893   YZ=             13.6927

 Normal termination of Gaussian 16 at Wed Oct 27 23:06:16 2021.
