 Gaussian 16, Revision C.01,
 Gaussian 16:  ES64L-G16RevC.01  3-Jul-2019

 ---------------------------------------------------------------
 # opt=modredundant b3lyp/6-311+g(d,p) scrf=(pcm, solvent=water)
 ---------------------------------------------------------------

 ----------
 NDI_70.pdb
 ----------
 Symbolic Z-matrix:
 Charge =  0 Multiplicity = 1

 SCF Done:  E(RB3LYP) =  -2359.35228829     A.U. after   17 cycles
 SCF Done:  E(RB3LYP) =  -2359.35639448     A.U. after   15 cycles
 SCF Done:  E(RB3LYP) =  -2359.35760056     A.U. after   15 cycles
 SCF Done:  E(RB3LYP) =  -2359.35798197     A.U. after   14 cycles
 SCF Done:  E(RB3LYP) =  -2359.35822904     A.U. after   13 cycles
 SCF Done:  E(RB3LYP) =  -2359.35836942     A.U. after   12 cycles
 SCF Done:  E(RB3LYP) =  -2359.35841675     A.U. after   12 cycles
 SCF Done:  E(RB3LYP) =  -2359.35843378     A.U. after   11 cycles
 SCF Done:  E(RB3LYP) =  -2359.35844580     A.U. after   11 cycles
 SCF Done:  E(RB3LYP) =  -2359.35845725     A.U. after   11 cycles
 SCF Done:  E(RB3LYP) =  -2359.35856448     A.U. after   10 cycles
 SCF Done:  E(RB3LYP) =  -2359.35856709     A.U. after   10 cycles
 SCF Done:  E(RB3LYP) =  -2359.35856928     A.U. after   11 cycles
 SCF Done:  E(RB3LYP) =  -2359.35857297     A.U. after   10 cycles
 SCF Done:  E(RB3LYP) =  -2359.35851366     A.U. after   10 cycles
 SCF Done:  E(RB3LYP) =  -2359.35851591     A.U. after   10 cycles
 SCF Done:  E(RB3LYP) =  -2359.35851690     A.U. after   10 cycles
 SCF Done:  E(RB3LYP) =  -2359.35851722     A.U. after   10 cycles
 SCF Done:  E(RB3LYP) =  -2359.35851725     A.U. after    9 cycles
 SCF Done:  E(RB3LYP) =  -2359.35851729     A.U. after    9 cycles
 Optimization completed.
    -- Stationary point found.

                         Standard orientation:
 ---------------------------------------------------------------------
 Center     Atomic      Atomic             Coordinates (Angstroms)
 Number     Number       Type             X           Y           Z
 ---------------------------------------------------------------------
      1          6           0       -2.970566   -2.889508    0.555739
      2          6           0       -2.469925   -1.512177    0.317847
      3          6           0       -3.376404   -0.465581    0.043028
      4          6           0       -4.766414   -0.710828   -0.002964
      5          6           0       -5.292825   -2.080099    0.235071
      6          6           0       -1.120420   -1.251513    0.388595
      7          6           0       -2.872448    0.841408   -0.193552
      8          6           0       -1.472625    1.087372   -0.153791
      9          6           0       -0.595154    0.050064    0.189596
     10          6           0       -0.984038    2.439065   -0.550729
     11          6           0       -3.323396    3.262295   -0.709326
     12          6           0       -3.796995    1.879396   -0.463830
     13          6           0       -5.156305    1.618509   -0.498062
     14          6           0       -5.644574    0.324076   -0.270621
     15          1           0       -6.707607    0.125415   -0.302572
     16          1           0       -5.840213    2.431391   -0.703567
     17          1           0       -0.442984   -2.059070    0.633527
     18          7           0       -1.942446    3.451172   -0.719104
     19          7           0       -4.351946   -3.085380    0.494521
     20          8           0       -2.226329   -3.827100    0.795992
     21          8           0       -6.487674   -2.326901    0.206588
     22          8           0       -4.094218    4.190023   -0.906180
     23          8           0        0.189117    2.699680   -0.751900
     24          6           0       -1.423206    4.792466   -1.029620
     25          1           0       -0.621958    5.036098   -0.335223
     26          1           0       -1.031239    4.819952   -2.047552
     27          1           0       -2.239203    5.500313   -0.931171
     28          6           0       -4.828487   -4.456977    0.732906
     29          1           0       -4.378519   -5.132239    0.005892
     30          1           0       -4.545623   -4.776117    1.735987
     31          1           0       -5.908055   -4.461319    0.630608
     32          6           0        0.857277    0.216319    0.387246
     33          6           0        1.493918    0.866675    1.410719
     34         16           0        1.989690   -0.637430   -0.627008
     35          6           0        2.904671    0.710382    1.369147
     36          1           0        0.965495    1.434628    2.162479
     37          6           0        3.364039   -0.073083    0.317431
     38          8           0        3.796206    1.238873    2.250345
     39          6           0        4.726193   -0.395933   -0.026371
     40          6           0        3.298515    2.122904    3.261201
     41          6           0        5.177667   -1.209848   -1.057813
     42         16           0        6.110559    0.242524    0.857500
     43          1           0        4.170493    2.454787    3.820818
     44          1           0        2.799119    2.986115    2.813071
     45          1           0        2.610849    1.601714    3.932647
     46          6           0        6.596130   -1.319631   -1.138270
     47          8           0        4.276573   -1.811586   -1.880034
     48          6           0        7.224454   -0.589738   -0.169552
     49          1           0        7.123140   -1.909508   -1.873924
     50          6           0        4.775405   -2.664952   -2.916395
     51          1           0        8.285049   -0.495449    0.006806
     52          1           0        5.337071   -3.503052   -2.495300
     53          1           0        3.898485   -3.039983   -3.439842
     54          1           0        5.406125   -2.106011   -3.612768
 ---------------------------------------------------------------------

 The electronic state is 1-A.
 Alpha  occ. eigenvalues --  -88.88601 -88.88298 -19.16693 -19.16667 -19.13027
 Alpha  occ. eigenvalues --  -19.13017 -19.12713 -19.12687 -14.38992 -14.38710
 Alpha  occ. eigenvalues --  -10.31613 -10.31453 -10.31390 -10.31256 -10.24536
 Alpha  occ. eigenvalues --  -10.24456 -10.23731 -10.23064 -10.22993 -10.22770
 Alpha  occ. eigenvalues --  -10.22698 -10.22693 -10.22525 -10.22502 -10.22418
 Alpha  occ. eigenvalues --  -10.22065 -10.21928 -10.21644 -10.21637 -10.21386
 Alpha  occ. eigenvalues --  -10.21333 -10.20962 -10.20839 -10.20572 -10.18776
 Alpha  occ. eigenvalues --  -10.18564  -7.97152  -7.96858  -5.93473  -5.93167
 Alpha  occ. eigenvalues --   -5.93086  -5.92782  -5.92697  -5.92427  -1.09124
 Alpha  occ. eigenvalues --   -1.08945  -1.08060  -1.07978  -1.07321  -1.07095
 Alpha  occ. eigenvalues --   -0.96648  -0.96329  -0.92736  -0.90292  -0.88690
 Alpha  occ. eigenvalues --   -0.86858  -0.84563  -0.80495  -0.78715  -0.77529
 Alpha  occ. eigenvalues --   -0.76095  -0.75408  -0.74951  -0.73077  -0.72603
 Alpha  occ. eigenvalues --   -0.71901  -0.69962  -0.68789  -0.67572  -0.66170
 Alpha  occ. eigenvalues --   -0.65712  -0.65047  -0.61111  -0.59765  -0.58685
 Alpha  occ. eigenvalues --   -0.57668  -0.56577  -0.55740  -0.55595  -0.54438
 Alpha  occ. eigenvalues --   -0.53736  -0.51958  -0.50454  -0.50242  -0.49997
 Alpha  occ. eigenvalues --   -0.49543  -0.49275  -0.48705  -0.48102  -0.47785
 Alpha  occ. eigenvalues --   -0.47724  -0.47527  -0.47032  -0.46794  -0.45863
 Alpha  occ. eigenvalues --   -0.45557  -0.45191  -0.45112  -0.44309  -0.43973
 Alpha  occ. eigenvalues --   -0.42899  -0.42844  -0.42377  -0.42024  -0.41835
 Alpha  occ. eigenvalues --   -0.41533  -0.41397  -0.41245  -0.40743  -0.40079
 Alpha  occ. eigenvalues --   -0.39833  -0.39167  -0.38780  -0.37794  -0.37467
 Alpha  occ. eigenvalues --   -0.36088  -0.35671  -0.34252  -0.33757  -0.33669
 Alpha  occ. eigenvalues --   -0.33437  -0.32455  -0.31700  -0.30844  -0.30023
 Alpha  occ. eigenvalues --   -0.29775  -0.29498  -0.29268  -0.28591  -0.27701
 Alpha  occ. eigenvalues --   -0.26443  -0.24960  -0.24721  -0.19405
 Alpha virt. eigenvalues --   -0.13435  -0.07114  -0.06179  -0.05071  -0.04750
 Alpha virt. eigenvalues --   -0.00699  -0.00584   0.00069   0.00508   0.00552
 Alpha virt. eigenvalues --    0.00671   0.00928   0.00938   0.01396   0.02158

 Mulliken charges:
               1
     1  C    0.466861
     2  C   -0.055073
     3  C    0.156576
     4  C    0.210401
     5  C    0.304599
     6  C   -0.492176
     7  C    0.193475
     8  C    0.168702
     9  C    0.564579
    10  C   -0.422597
    11  C    0.254104
    12  C    0.149283
    13  C   -0.473745
    14  C   -0.635716
    15  H    0.167583
    16  H    0.167519
    17  H    0.170088
    18  N   -0.087101
    19  N   -0.113223
    20  O   -0.339627
    21  O   -0.331800
    22  O   -0.341909
    23  O   -0.196516
    24  C   -0.217295
    25  H    0.181768
    26  H    0.191526
    27  H    0.180929
    28  C   -0.214691
    29  H    0.182719
    30  H    0.185378
    31  H    0.180360
    32  C    0.137009
    33  C   -0.469694
    34  S   -0.395622
    35  C   -0.168572
    36  H    0.153678
    37  C    0.527314
    38  O   -0.169946
    39  C    0.702991
    40  C   -0.238749
    41  C   -0.010042
    42  S   -0.251458
    43  H    0.175495
    44  H    0.166197
    45  H    0.161075
    46  C   -0.559733
    47  O   -0.167411
    48  C   -0.341379
    49  H    0.160924
    50  C   -0.249349
    51  H    0.188338
    52  H    0.159880
    53  H    0.173222
    54  H    0.160849
 Sum of Mulliken charges =  -0.00000

 Dipole moment (field-independent basis, Debye):
    X=              1.6631    Y=             -0.1375    Z=              0.5409  Tot=              1.7543
 Quadrupole moment (field-independent basis, Debye-Ang):
   XX=           -218.2060   YY=           -224.2260   ZZ=           -203.7834
   XY=             -4.7468   XZ=             -9.6020   YZ=             20.2624

 Normal termination of Gaussian 16 at Thu Oct 28 01:34:52 2021.
