 Gaussian 16, Revision C.01,
 Gaussian 16:  ES64L-G16RevC.01  3-Jul-2019

 ---------------------------------------------------------------
 # opt=modredundant b3lyp/6-311+g(d,p) scrf=(pcm, solvent=water)
 ---------------------------------------------------------------

 -----------
 NDI_-15.pdb
 -----------
 Symbolic Z-matrix:
 Charge =  0 Multiplicity = 1

 SCF Done:  E(RB3LYP) =  -2359.34923513     A.U. after   17 cycles
 SCF Done:  E(RB3LYP) =  -2359.33432305     A.U. after   18 cycles
 SCF Done:  E(RB3LYP) =  -2359.35122457     A.U. after   14 cycles
 SCF Done:  E(RB3LYP) =  -2359.35486047     A.U. after   16 cycles
 SCF Done:  E(RB3LYP) =  -2359.35692151     A.U. after   18 cycles
 SCF Done:  E(RB3LYP) =  -2359.35745064     A.U. after   14 cycles
 SCF Done:  E(RB3LYP) =  -2359.35767000     A.U. after   14 cycles
 SCF Done:  E(RB3LYP) =  -2359.35780411     A.U. after   13 cycles
 SCF Done:  E(RB3LYP) =  -2359.35786527     A.U. after   13 cycles
 SCF Done:  E(RB3LYP) =  -2359.35790259     A.U. after   12 cycles
 SCF Done:  E(RB3LYP) =  -2359.35799047     A.U. after   11 cycles
 SCF Done:  E(RB3LYP) =  -2359.35800564     A.U. after   11 cycles
 SCF Done:  E(RB3LYP) =  -2359.35801501     A.U. after   11 cycles
 SCF Done:  E(RB3LYP) =  -2359.35801736     A.U. after   10 cycles
 SCF Done:  E(RB3LYP) =  -2359.35801880     A.U. after   10 cycles
 SCF Done:  E(RB3LYP) =  -2359.35802009     A.U. after   10 cycles
 SCF Done:  E(RB3LYP) =  -2359.35802106     A.U. after   11 cycles
 SCF Done:  E(RB3LYP) =  -2359.35802141     A.U. after   10 cycles
 SCF Done:  E(RB3LYP) =  -2359.35802147     A.U. after    9 cycles
 SCF Done:  E(RB3LYP) =  -2359.35802149     A.U. after    8 cycles
 Optimization completed.
    -- Stationary point found.

                         Standard orientation:
 ---------------------------------------------------------------------
 Center     Atomic      Atomic             Coordinates (Angstroms)
 Number     Number       Type             X           Y           Z
 ---------------------------------------------------------------------
      1          6           0       -2.597303   -3.030060   -0.103446
      2          6           0       -2.270090   -1.586025   -0.006080
      3          6           0       -3.299907   -0.618063   -0.054178
      4          6           0       -4.642993   -1.006262   -0.219190
      5          6           0       -4.995875   -2.444181   -0.336070
      6          6           0       -0.961029   -1.192393    0.076644
      7          6           0       -2.949760    0.752762    0.078349
      8          6           0       -1.590081    1.146074    0.248150
      9          6           0       -0.557753    0.175183    0.159525
     10          6           0       -1.354365    2.545673    0.678270
     11          6           0       -3.704681    3.148309    0.160508
     12          6           0       -3.997452    1.706268    0.026540
     13          6           0       -5.313958    1.305199   -0.155460
     14          6           0       -5.644254   -0.047577   -0.274079
     15          1           0       -6.672742   -0.355660   -0.406313
     16          1           0       -6.085532    2.062559   -0.200793
     17          1           0       -0.209384   -1.969805    0.035731
     18          7           0       -2.388334    3.476292    0.468425
     19          7           0       -3.943095   -3.367048   -0.258476
     20          8           0       -1.745874   -3.904875   -0.054116
     21          8           0       -6.148295   -2.817473   -0.488511
     22          8           0       -4.564854    4.011877    0.041423
     23          8           0       -0.332539    2.927181    1.229808
     24          6           0       -2.077632    4.884273    0.758031
     25          1           0       -2.121748    5.074371    1.832361
     26          1           0       -1.075736    5.107097    0.400426
     27          1           0       -2.810639    5.502897    0.250188
     28          6           0       -4.250287   -4.802453   -0.356580
     29          1           0       -3.754839   -5.226854   -1.229798
     30          1           0       -3.893949   -5.314685    0.536582
     31          1           0       -5.325284   -4.911956   -0.447957
     32          6           0        0.862022    0.433749   -0.019820
     33          6           0        1.525368    1.581189   -0.414510
     34         16           0        2.027565   -0.851267    0.301595
     35          6           0        2.920116    1.430189   -0.489693
     36          1           0        1.020107    2.497396   -0.666538
     37          6           0        3.385676    0.161775   -0.120869
     38          8           0        3.815192    2.372662   -0.873712
     39          6           0        4.742472   -0.297408   -0.076150
     40          6           0        3.317665    3.666070   -1.240706
     41          6           0        5.201274   -1.564585    0.281955
     42         16           0        6.118893    0.726463   -0.485030
     43          1           0        4.193286    4.257365   -1.498735
     44          1           0        2.653612    3.594938   -2.106035
     45          1           0        2.792262    4.131693   -0.402917
     46          6           0        6.615535   -1.707519    0.228296
     47          8           0        4.309650   -2.518256    0.638144
     48          6           0        7.231935   -0.553693   -0.168213
     49          1           0        7.149176   -2.614898    0.469540
     50          6           0        4.809013   -3.813717    1.000342
     51          1           0        8.289989   -0.381489   -0.295290
     52          1           0        5.461416   -3.746521    1.874333
     53          1           0        3.932605   -4.410596    1.242061
     54          1           0        5.345905   -4.269288    0.164770
 ---------------------------------------------------------------------

 The electronic state is 1-A.
 Alpha  occ. eigenvalues --  -88.89137 -88.88828 -19.17406 -19.17233 -19.12853
 Alpha  occ. eigenvalues --  -19.12827 -19.12183 -19.12142 -14.38831 -14.38286
 Alpha  occ. eigenvalues --  -10.31414 -10.31257 -10.30902 -10.30670 -10.25378
 Alpha  occ. eigenvalues --  -10.25309 -10.23896 -10.23314 -10.22990 -10.22946
 Alpha  occ. eigenvalues --  -10.22649 -10.22615 -10.22253 -10.22245 -10.22218
 Alpha  occ. eigenvalues --  -10.22114 -10.22082 -10.21789 -10.21538 -10.21295
 Alpha  occ. eigenvalues --  -10.20883 -10.20855 -10.20735 -10.20707 -10.19356
 Alpha  occ. eigenvalues --  -10.19022  -7.97706  -7.97384  -5.94021  -5.93694
 Alpha  occ. eigenvalues --   -5.93633  -5.93306  -5.93255  -5.92951  -1.08935
 Alpha  occ. eigenvalues --   -1.08822  -1.08686  -1.08431  -1.07123  -1.06513
 Alpha  occ. eigenvalues --   -0.96453  -0.95912  -0.92339  -0.90836  -0.89128
 Alpha  occ. eigenvalues --   -0.86642  -0.84162  -0.80655  -0.78457  -0.77903
 Alpha  occ. eigenvalues --   -0.76510  -0.75575  -0.75173  -0.73475  -0.72454
 Alpha  occ. eigenvalues --   -0.71946  -0.70313  -0.68986  -0.67317  -0.65860
 Alpha  occ. eigenvalues --   -0.65616  -0.64767  -0.61420  -0.60113  -0.58720
 Alpha  occ. eigenvalues --   -0.57443  -0.56816  -0.56312  -0.55431  -0.55025
 Alpha  occ. eigenvalues --   -0.53511  -0.51738  -0.50477  -0.50045  -0.49941
 Alpha  occ. eigenvalues --   -0.49442  -0.49120  -0.48589  -0.48538  -0.48131
 Alpha  occ. eigenvalues --   -0.48077  -0.47192  -0.46903  -0.46544  -0.46090
 Alpha  occ. eigenvalues --   -0.45453  -0.45336  -0.44901  -0.44077  -0.43624
 Alpha  occ. eigenvalues --   -0.42949  -0.42787  -0.42467  -0.42186  -0.42029
 Alpha  occ. eigenvalues --   -0.41824  -0.41302  -0.41089  -0.40672  -0.40075
 Alpha  occ. eigenvalues --   -0.39670  -0.39291  -0.39115  -0.38059  -0.37433
 Alpha  occ. eigenvalues --   -0.36592  -0.36326  -0.34484  -0.34234  -0.33884
 Alpha  occ. eigenvalues --   -0.33773  -0.32128  -0.31497  -0.30811  -0.30104
 Alpha  occ. eigenvalues --   -0.29719  -0.29299  -0.29053  -0.28517  -0.27446
 Alpha  occ. eigenvalues --   -0.26206  -0.25251  -0.25002  -0.19794
 Alpha virt. eigenvalues --   -0.13226  -0.08145  -0.06495  -0.04715  -0.03775
 Alpha virt. eigenvalues --   -0.00618  -0.00548   0.00148   0.00280   0.00467
 Alpha virt. eigenvalues --    0.00819   0.01033   0.01447   0.01554   0.01985

 Mulliken charges:
               1
     1  C    0.358129
     2  C   -0.046838
     3  C    0.229026
     4  C    0.210478
     5  C    0.297643
     6  C    0.168948
     7  C    0.223268
     8  C    0.595265
     9  C    0.160210
    10  C   -0.923469
    11  C    0.274573
    12  C    0.128380
    13  C   -0.492756
    14  C   -0.611709
    15  H    0.163801
    16  H    0.164633
    17  H    0.163677
    18  N    0.032733
    19  N   -0.108012
    20  O   -0.352495
    21  O   -0.334383
    22  O   -0.361574
    23  O   -0.298936
    24  C   -0.187833
    25  H    0.189939
    26  H    0.179618
    27  H    0.179059
    28  C   -0.215669
    29  H    0.184595
    30  H    0.181975
    31  H    0.179495
    32  C   -0.179017
    33  C   -0.365314
    34  S   -0.653353
    35  C   -0.384040
    36  H    0.172129
    37  C    0.710866
    38  O   -0.147398
    39  C    0.906332
    40  C   -0.247875
    41  C    0.046383
    42  S   -0.199895
    43  H    0.180261
    44  H    0.164933
    45  H    0.167088
    46  C   -0.632982
    47  O   -0.153433
    48  C   -0.327507
    49  H    0.165087
    50  C   -0.253769
    51  H    0.194176
    52  H    0.164060
    53  H    0.177030
    54  H    0.164466
 Sum of Mulliken charges =  -0.00000

 Dipole moment (field-independent basis, Debye):
    X=              7.0363    Y=             -0.8890    Z=             -1.1402  Tot=              7.1833
 Quadrupole moment (field-independent basis, Debye-Ang):
   XX=           -209.5425   YY=           -207.4537   ZZ=           -223.0660
   XY=             -7.5759   XZ=             -1.9410   YZ=            -11.8509

 Normal termination of Gaussian 16 at Wed Oct 27 23:47:23 2021.
