 Gaussian 16, Revision C.01,
 Gaussian 16:  ES64L-G16RevC.01  3-Jul-2019

 ---------------------------------------------------------------
 # opt=modredundant b3lyp/6-311+g(d,p) scrf=(pcm, solvent=water)
 ---------------------------------------------------------------

 -----------
 NDI_-65.pdb
 -----------
 Symbolic Z-matrix:
 Charge =  0 Multiplicity = 1

 SCF Done:  E(RB3LYP) =  -2359.35616518     A.U. after   17 cycles
 SCF Done:  E(RB3LYP) =  -2359.35815840     A.U. after   15 cycles
 SCF Done:  E(RB3LYP) =  -2359.35864114     A.U. after   14 cycles
 SCF Done:  E(RB3LYP) =  -2359.35871751     A.U. after   14 cycles
 SCF Done:  E(RB3LYP) =  -2359.35881304     A.U. after   14 cycles
 SCF Done:  E(RB3LYP) =  -2359.35885470     A.U. after   13 cycles
 SCF Done:  E(RB3LYP) =  -2359.35886934     A.U. after   12 cycles
 SCF Done:  E(RB3LYP) =  -2359.35887701     A.U. after   11 cycles
 SCF Done:  E(RB3LYP) =  -2359.35888211     A.U. after   11 cycles
 SCF Done:  E(RB3LYP) =  -2359.35888857     A.U. after   11 cycles
 SCF Done:  E(RB3LYP) =  -2359.35886301     A.U. after   11 cycles
 SCF Done:  E(RB3LYP) =  -2359.35890878     A.U. after   11 cycles
 SCF Done:  E(RB3LYP) =  -2359.35886373     A.U. after   11 cycles
 SCF Done:  E(RB3LYP) =  -2359.35892759     A.U. after   11 cycles
 SCF Done:  E(RB3LYP) =  -2359.35886440     A.U. after    9 cycles
 SCF Done:  E(RB3LYP) =  -2359.35892933     A.U. after   11 cycles
 SCF Done:  E(RB3LYP) =  -2359.35892937     A.U. after    9 cycles
 SCF Done:  E(RB3LYP) =  -2359.35892933     A.U. after    9 cycles
 SCF Done:  E(RB3LYP) =  -2359.35892925     A.U. after    8 cycles
 SCF Done:  E(RB3LYP) =  -2359.35892918     A.U. after    9 cycles
 Optimization completed.
    -- Stationary point found.

                         Standard orientation:
 ---------------------------------------------------------------------
 Center     Atomic      Atomic             Coordinates (Angstroms)
 Number     Number       Type             X           Y           Z
 ---------------------------------------------------------------------
      1          6           0        2.917490   -2.906316    0.547975
      2          6           0        2.440715   -1.521689    0.304085
      3          6           0        3.367266   -0.486382    0.052285
      4          6           0        4.754107   -0.749916    0.037225
      5          6           0        5.256822   -2.126585    0.282960
      6          6           0        1.094360   -1.243017    0.350304
      7          6           0        2.885163    0.827205   -0.193705
      8          6           0        1.487897    1.091589   -0.185441
      9          6           0        0.589235    0.066813    0.146770
     10          6           0        1.027981    2.443126   -0.613154
     11          6           0        3.379913    3.241218   -0.698901
     12          6           0        3.829508    1.852888   -0.441913
     13          6           0        5.186159    1.574455   -0.444045
     14          6           0        5.652289    0.273954   -0.207734
     15          1           0        6.713024    0.061189   -0.215538
     16          1           0        5.884910    2.378903   -0.632149
     17          1           0        0.403235   -2.042391    0.583520
     18          7           0        2.002303    3.445231   -0.751695
     19          7           0        4.297172   -3.120250    0.517567
     20          8           0        2.155809   -3.835024    0.767744
     21          8           0        6.448688   -2.389300    0.280683
     22          8           0        4.166719    4.160641   -0.871802
     23          8           0       -0.133286    2.713176   -0.866180
     24          6           0        1.508510    4.790357   -1.085855
     25          1           0        1.164786    4.821373   -2.121079
     26          1           0        0.677457    5.039700   -0.429719
     27          1           0        2.324292    5.492134   -0.949001
     28          6           0        4.750093   -4.498713    0.762255
     29          1           0        4.438147   -4.817815    1.756687
     30          1           0        4.309853   -5.165602    0.021642
     31          1           0        5.831739   -4.516573    0.686830
     32          6           0       -0.858648    0.256023    0.333104
     33          6           0       -1.491200    0.991403    1.302025
     34         16           0       -1.999315   -0.677964   -0.600152
     35          6           0       -2.900467    0.833594    1.282112
     36          1           0       -0.958723    1.618401    2.002146
     37          6           0       -3.366709   -0.034729    0.300584
     38          8           0       -3.787389    1.433266    2.120596
     39          6           0       -4.730504   -0.380315   -0.008990
     40          6           0       -3.283425    2.389702    3.060136
     41          6           0       -5.187889   -1.283091   -0.961623
     42         16           0       -6.110208    0.343106    0.814891
     43          1           0       -4.152698    2.767374    3.594288
     44          1           0       -2.596665    1.917855    3.767977
     45          1           0       -2.781171    3.213776    2.546373
     46          6           0       -6.606772   -1.392578   -1.029574
     47          8           0       -4.291374   -1.961976   -1.725469
     48          6           0       -7.229374   -0.573796   -0.130613
     49          1           0       -7.138245   -2.044726   -1.707123
     50          6           0       -4.795973   -2.893862   -2.689333
     51          1           0       -8.289197   -0.458894    0.038104
     52          1           0       -5.419746   -2.388314   -3.431226
     53          1           0       -3.921319   -3.318875   -3.177085
     54          1           0       -5.366264   -3.688966   -2.201781
 ---------------------------------------------------------------------

 The electronic state is 1-A.
 Alpha  occ. eigenvalues --  -88.88673 -88.88355 -19.16771 -19.16724 -19.13006
 Alpha  occ. eigenvalues --  -19.12992 -19.12652 -19.12607 -14.38973 -14.38654
 Alpha  occ. eigenvalues --  -10.31588 -10.31429 -10.31326 -10.31191 -10.24625
 Alpha  occ. eigenvalues --  -10.24556 -10.23719 -10.22974 -10.22928 -10.22726
 Alpha  occ. eigenvalues --  -10.22725 -10.22708 -10.22479 -10.22453 -10.22346
 Alpha  occ. eigenvalues --  -10.22112 -10.22078 -10.21703 -10.21623 -10.21322
 Alpha  occ. eigenvalues --  -10.21270 -10.20954 -10.20818 -10.20651 -10.18859
 Alpha  occ. eigenvalues --  -10.18614  -7.97225  -7.96915  -5.93545  -5.93224
 Alpha  occ. eigenvalues --   -5.93158  -5.92839  -5.92771  -5.92484  -1.09100
 Alpha  occ. eigenvalues --   -1.08873  -1.08137  -1.08054  -1.07295  -1.07019
 Alpha  occ. eigenvalues --   -0.96622  -0.96270  -0.92687  -0.90358  -0.88738
 Alpha  occ. eigenvalues --   -0.86835  -0.84515  -0.80508  -0.78676  -0.77569
 Alpha  occ. eigenvalues --   -0.76146  -0.75377  -0.75024  -0.73111  -0.72585
 Alpha  occ. eigenvalues --   -0.71905  -0.70000  -0.68814  -0.67537  -0.66130
 Alpha  occ. eigenvalues --   -0.65691  -0.65014  -0.61144  -0.59794  -0.58690
 Alpha  occ. eigenvalues --   -0.57633  -0.56598  -0.55798  -0.55583  -0.54498
 Alpha  occ. eigenvalues --   -0.53701  -0.51927  -0.50437  -0.50203  -0.49989
 Alpha  occ. eigenvalues --   -0.49559  -0.49253  -0.48685  -0.48138  -0.47809
 Alpha  occ. eigenvalues --   -0.47762  -0.47493  -0.47024  -0.46747  -0.45857
 Alpha  occ. eigenvalues --   -0.45570  -0.45186  -0.45116  -0.44278  -0.43948
 Alpha  occ. eigenvalues --   -0.42892  -0.42811  -0.42334  -0.42065  -0.41850
 Alpha  occ. eigenvalues --   -0.41555  -0.41438  -0.41227  -0.40726  -0.40048
 Alpha  occ. eigenvalues --   -0.39818  -0.39203  -0.38833  -0.37763  -0.37528
 Alpha  occ. eigenvalues --   -0.36147  -0.35705  -0.34276  -0.33831  -0.33708
 Alpha  occ. eigenvalues --   -0.33489  -0.32405  -0.31676  -0.30830  -0.30015
 Alpha  occ. eigenvalues --   -0.29769  -0.29447  -0.29278  -0.28584  -0.27671
 Alpha  occ. eigenvalues --   -0.26386  -0.24989  -0.24766  -0.19450
 Alpha virt. eigenvalues --   -0.13408  -0.07153  -0.06290  -0.05028  -0.04611
 Alpha virt. eigenvalues --   -0.00728  -0.00590   0.00070   0.00502   0.00531
 Alpha virt. eigenvalues --    0.00658   0.00965   0.00995   0.01406   0.02158

 Mulliken charges:
               1
     1  C    0.455414
     2  C   -0.048541
     3  C    0.109226
     4  C    0.213893
     5  C    0.297203
     6  C   -0.616458
     7  C    0.189808
     8  C    0.250248
     9  C    0.605489
    10  C   -0.430619
    11  C    0.391951
    12  C    0.097572
    13  C   -0.523728
    14  C   -0.653260
    15  H    0.167171
    16  H    0.167750
    17  H    0.172305
    18  N   -0.075750
    19  N   -0.113192
    20  O   -0.340941
    21  O   -0.332173
    22  O   -0.345020
    23  O   -0.200525
    24  C   -0.198698
    25  H    0.191863
    26  H    0.181803
    27  H    0.181259
    28  C   -0.213373
    29  H    0.185156
    30  H    0.183030
    31  H    0.181010
    32  C    0.208154
    33  C   -0.479591
    34  S   -0.435447
    35  C   -0.438170
    36  H    0.155301
    37  C    0.542142
    38  O   -0.154066
    39  C    0.844042
    40  C   -0.242806
    41  C   -0.002141
    42  S   -0.221910
    43  H    0.176201
    44  H    0.162909
    45  H    0.166294
    46  C   -0.506625
    47  O   -0.165744
    48  C   -0.333182
    49  H    0.161336
    50  C   -0.251101
    51  H    0.189208
    52  H    0.161615
    53  H    0.173542
    54  H    0.160168
 Sum of Mulliken charges =  -0.00000

 Dipole moment (field-independent basis, Debye):
    X=             -2.2413    Y=             -0.2341    Z=              0.6414  Tot=              2.3430
 Quadrupole moment (field-independent basis, Debye-Ang):
   XX=           -217.3082   YY=           -221.7197   ZZ=           -206.5652
   XY=              5.4389   XZ=              8.5522   YZ=             20.7573

 Normal termination of Gaussian 16 at Wed Oct 27 21:06:11 2021.
