 Gaussian 16, Revision C.01,
 Gaussian 16:  ES64L-G16RevC.01  3-Jul-2019

 ---------------------------------------------------------------
 # opt=modredundant b3lyp/6-311+g(d,p) scrf=(pcm, solvent=water)
 ---------------------------------------------------------------

 ----------
 NDI_95.pdb
 ----------
 Symbolic Z-matrix:
 Charge =  0 Multiplicity = 1

 SCF Done:  E(RB3LYP) =  -2359.35318114     A.U. after   18 cycles
 SCF Done:  E(RB3LYP) =  -2359.35633990     A.U. after   14 cycles
 SCF Done:  E(RB3LYP) =  -2359.35712779     A.U. after   14 cycles
 SCF Done:  E(RB3LYP) =  -2359.35727574     A.U. after   13 cycles
 SCF Done:  E(RB3LYP) =  -2359.35744076     A.U. after   12 cycles
 SCF Done:  E(RB3LYP) =  -2359.35748238     A.U. after   12 cycles
 SCF Done:  E(RB3LYP) =  -2359.35750454     A.U. after   11 cycles
 SCF Done:  E(RB3LYP) =  -2359.35750828     A.U. after   11 cycles
 SCF Done:  E(RB3LYP) =  -2359.35751488     A.U. after   10 cycles
 SCF Done:  E(RB3LYP) =  -2359.35751776     A.U. after   10 cycles
 SCF Done:  E(RB3LYP) =  -2359.35752568     A.U. after    9 cycles
 SCF Done:  E(RB3LYP) =  -2359.35752570     A.U. after    9 cycles
 SCF Done:  E(RB3LYP) =  -2359.35752572     A.U. after    8 cycles
 SCF Done:  E(RB3LYP) =  -2359.35752575     A.U. after    8 cycles
 SCF Done:  E(RB3LYP) =  -2359.35752580     A.U. after    8 cycles
 SCF Done:  E(RB3LYP) =  -2359.35752584     A.U. after    7 cycles
 SCF Done:  E(RB3LYP) =  -2359.35752587     A.U. after    7 cycles
 SCF Done:  E(RB3LYP) =  -2359.35752588     A.U. after    7 cycles
 SCF Done:  E(RB3LYP) =  -2359.35752585     A.U. after    7 cycles
 SCF Done:  E(RB3LYP) =  -2359.35752582     A.U. after    7 cycles
 Optimization completed.
    -- Stationary point found.

                         Standard orientation:
 ---------------------------------------------------------------------
 Center     Atomic      Atomic             Coordinates (Angstroms)
 Number     Number       Type             X           Y           Z
 ---------------------------------------------------------------------
      1          6           0        3.247295   -2.849736   -0.122507
      2          6           0        2.621889   -1.502997   -0.135930
      3          6           0        3.412922   -0.351332    0.054824
      4          6           0        4.806501   -0.462327    0.263134
      5          6           0        5.456143   -1.799208    0.285034
      6          6           0        1.264734   -1.378045   -0.334353
      7          6           0        2.792693    0.926454    0.033547
      8          6           0        1.390569    1.038144   -0.173603
      9          6           0        0.622444   -0.116495   -0.355538
     10          6           0        0.782103    2.400847   -0.200238
     11          6           0        3.008845    3.429665    0.204322
     12          6           0        3.604411    2.071493    0.222386
     13          6           0        4.966698    1.940240    0.425332
     14          6           0        5.571286    0.674259    0.446685
     15          1           0        6.637317    0.579138    0.605553
     16          1           0        5.563128    2.831684    0.567580
     17          1           0        0.669158   -2.270017   -0.477597
     18          7           0        1.633144    3.499670   -0.010871
     19          7           0        4.626129   -2.910767    0.089849
     20          8           0        2.603916   -3.873941   -0.287335
     21          8           0        6.655973   -1.931012    0.463586
     22          8           0        3.681618    4.436176    0.366736
     23          8           0       -0.405879    2.601268   -0.378281
     24          6           0        0.991533    4.823765   -0.046105
     25          1           0        0.504712    4.970602   -1.009712
     26          1           0        0.242437    4.891309    0.742393
     27          1           0        1.760784    5.573239    0.103374
     28          6           0        5.226148   -4.254357    0.102352
     29          1           0        4.762035   -4.855276    0.883777
     30          1           0        5.064287   -4.738237   -0.860672
     31          1           0        6.288295   -4.147586    0.292958
     32          6           0       -0.843047   -0.137147   -0.583112
     33          6           0       -1.499298   -0.184402   -1.780407
     34         16           0       -1.946104   -0.244316    0.759683
     35          6           0       -2.912971   -0.277748   -1.627698
     36          1           0       -0.989957   -0.138097   -2.731977
     37          6           0       -3.344604   -0.322101   -0.311105
     38          8           0       -3.824071   -0.330907   -2.638152
     39          6           0       -4.696205   -0.425491    0.186390
     40          6           0       -3.340132   -0.269180   -3.984185
     41          6           0       -5.120788   -0.482779    1.506586
     42         16           0       -6.099312   -0.494394   -0.877085
     43          1           0       -4.222034   -0.319856   -4.619391
     44          1           0       -2.811038    0.670050   -4.167217
     45          1           0       -2.683072   -1.115284   -4.203143
     46          6           0       -6.534458   -0.578580    1.663777
     47          8           0       -4.201186   -0.446615    2.510709
     48          6           0       -7.186628   -0.594377    0.463965
     49          1           0       -7.041033   -0.633333    2.616300
     50          6           0       -4.677417   -0.495384    3.859828
     51          1           0       -8.249083   -0.660433    0.286220
     52          1           0       -5.215157   -1.427943    4.051639
     53          1           0       -3.791355   -0.450358    4.489704
     54          1           0       -5.324649    0.358621    4.077410
 ---------------------------------------------------------------------

 The electronic state is 1-A.
 Alpha  occ. eigenvalues --  -88.88331 -88.88157 -19.16536 -19.16500 -19.13097
 Alpha  occ. eigenvalues --  -19.13096 -19.12857 -19.12853 -14.39059 -14.38852
 Alpha  occ. eigenvalues --  -10.31691 -10.31530 -10.31523 -10.31422 -10.24321
 Alpha  occ. eigenvalues --  -10.24202 -10.23792 -10.23377 -10.23149 -10.22940
 Alpha  occ. eigenvalues --  -10.22642 -10.22640 -10.22636 -10.22615 -10.22608
 Alpha  occ. eigenvalues --  -10.21930 -10.21674 -10.21562 -10.21543 -10.21486
 Alpha  occ. eigenvalues --  -10.21465 -10.20997 -10.20869 -10.20371 -10.18581
 Alpha  occ. eigenvalues --  -10.18434  -7.96881  -7.96718  -5.93205  -5.93027
 Alpha  occ. eigenvalues --   -5.92817  -5.92642  -5.92419  -5.92288  -1.09203
 Alpha  occ. eigenvalues --   -1.09114  -1.07874  -1.07781  -1.07401  -1.07274
 Alpha  occ. eigenvalues --   -0.96733  -0.96462  -0.92866  -0.90096  -0.88565
 Alpha  occ. eigenvalues --   -0.86907  -0.84694  -0.80475  -0.78825  -0.77421
 Alpha  occ. eigenvalues --   -0.75957  -0.75490  -0.74747  -0.73010  -0.72684
 Alpha  occ. eigenvalues --   -0.71835  -0.69883  -0.68724  -0.67658  -0.66281
 Alpha  occ. eigenvalues --   -0.65763  -0.65151  -0.61019  -0.59706  -0.58666
 Alpha  occ. eigenvalues --   -0.57769  -0.56577  -0.55571  -0.55520  -0.54304
 Alpha  occ. eigenvalues --   -0.53874  -0.52040  -0.50518  -0.50347  -0.50041
 Alpha  occ. eigenvalues --   -0.49444  -0.49331  -0.48755  -0.48058  -0.47771
 Alpha  occ. eigenvalues --   -0.47636  -0.47545  -0.47045  -0.46920  -0.45914
 Alpha  occ. eigenvalues --   -0.45430  -0.45303  -0.45048  -0.44401  -0.44047
 Alpha  occ. eigenvalues --   -0.42983  -0.42870  -0.42505  -0.41932  -0.41792
 Alpha  occ. eigenvalues --   -0.41449  -0.41303  -0.41282  -0.40771  -0.40166
 Alpha  occ. eigenvalues --   -0.39883  -0.39020  -0.38596  -0.37878  -0.37316
 Alpha  occ. eigenvalues --   -0.35932  -0.35643  -0.34069  -0.33650  -0.33519
 Alpha  occ. eigenvalues --   -0.33362  -0.32606  -0.31739  -0.30857  -0.30081
 Alpha  occ. eigenvalues --   -0.29779  -0.29632  -0.29217  -0.28536  -0.27845
 Alpha  occ. eigenvalues --   -0.26626  -0.24877  -0.24558  -0.19273
 Alpha virt. eigenvalues --   -0.13524  -0.07088  -0.05856  -0.05180  -0.05072
 Alpha virt. eigenvalues --   -0.00647  -0.00595   0.00110   0.00434   0.00612
 Alpha virt. eigenvalues --    0.00694   0.00857   0.00902   0.01278   0.02113

 Mulliken charges:
               1
     1  C    0.448726
     2  C    0.069332
     3  C    0.250432
     4  C    0.215307
     5  C    0.318666
     6  C   -0.605621
     7  C    0.213606
     8  C   -0.018050
     9  C    0.538979
    10  C   -0.345209
    11  C    0.254520
    12  C    0.226545
    13  C   -0.555700
    14  C   -0.666202
    15  H    0.168792
    16  H    0.168924
    17  H    0.161334
    18  N   -0.127721
    19  N   -0.111975
    20  O   -0.335248
    21  O   -0.330835
    22  O   -0.332795
    23  O   -0.178309
    24  C   -0.230548
    25  H    0.184675
    26  H    0.186469
    27  H    0.181651
    28  C   -0.215972
    29  H    0.183663
    30  H    0.185142
    31  H    0.180731
    32  C    0.135795
    33  C   -0.437480
    34  S   -0.128256
    35  C   -0.118699
    36  H    0.146571
    37  C    0.204904
    38  O   -0.171380
    39  C    0.722143
    40  C   -0.235626
    41  C    0.053740
    42  S   -0.256358
    43  H    0.175629
    44  H    0.164625
    45  H    0.162316
    46  C   -0.541052
    47  O   -0.180759
    48  C   -0.370860
    49  H    0.159583
    50  C   -0.246033
    51  H    0.186778
    52  H    0.158799
    53  H    0.172565
    54  H    0.159746
 Sum of Mulliken charges =  -0.00000

 Dipole moment (field-independent basis, Debye):
    X=             -0.2367    Y=             -0.0187    Z=             -0.0338  Tot=              0.2398
 Quadrupole moment (field-independent basis, Debye-Ang):
   XX=           -220.0486   YY=           -237.6461   ZZ=           -190.3979
   XY=             -1.4131   XZ=            -14.1475   YZ=             -2.6946

 Normal termination of Gaussian 16 at Thu Oct 28 03:18:39 2021.
