 Gaussian 16, Revision C.01,
 Gaussian 16:  ES64L-G16RevC.01  3-Jul-2019

 ---------------------------------------------------------------
 # opt=modredundant b3lyp/6-311+g(d,p) scrf=(pcm, solvent=water)
 ---------------------------------------------------------------

 -----------
 NDI_-20.pdb
 -----------
 Symbolic Z-matrix:
 Charge =  0 Multiplicity = 1

 SCF Done:  E(RB3LYP) =  -2359.35256787     A.U. after   17 cycles
 SCF Done:  E(RB3LYP) =  -2359.33644184     A.U. after   18 cycles
 SCF Done:  E(RB3LYP) =  -2359.35297886     A.U. after   14 cycles
 SCF Done:  E(RB3LYP) =  -2359.35630065     A.U. after   16 cycles
 SCF Done:  E(RB3LYP) =  -2359.35782945     A.U. after   17 cycles
 SCF Done:  E(RB3LYP) =  -2359.35820884     A.U. after   13 cycles
 SCF Done:  E(RB3LYP) =  -2359.35840277     A.U. after   14 cycles
 SCF Done:  E(RB3LYP) =  -2359.35852058     A.U. after   13 cycles
 SCF Done:  E(RB3LYP) =  -2359.35854433     A.U. after   13 cycles
 SCF Done:  E(RB3LYP) =  -2359.35855595     A.U. after   12 cycles
 SCF Done:  E(RB3LYP) =  -2359.35867209     A.U. after   10 cycles
 SCF Done:  E(RB3LYP) =  -2359.35867215     A.U. after   10 cycles
 SCF Done:  E(RB3LYP) =  -2359.35867217     A.U. after    8 cycles
 SCF Done:  E(RB3LYP) =  -2359.35867219     A.U. after    7 cycles
 SCF Done:  E(RB3LYP) =  -2359.35867220     A.U. after    8 cycles
 SCF Done:  E(RB3LYP) =  -2359.35867223     A.U. after    8 cycles
 SCF Done:  E(RB3LYP) =  -2359.35867226     A.U. after    8 cycles
 SCF Done:  E(RB3LYP) =  -2359.35867229     A.U. after    8 cycles
 SCF Done:  E(RB3LYP) =  -2359.35867231     A.U. after    8 cycles
 SCF Done:  E(RB3LYP) =  -2359.35867232     A.U. after    8 cycles
 Optimization completed.
    -- Stationary point found.

                         Standard orientation:
 ---------------------------------------------------------------------
 Center     Atomic      Atomic             Coordinates (Angstroms)
 Number     Number       Type             X           Y           Z
 ---------------------------------------------------------------------
      1          6           0        2.631156   -3.022127    0.177263
      2          6           0        2.287927   -1.583864    0.052565
      3          6           0        3.308810   -0.605328    0.059394
      4          6           0        4.659070   -0.977512    0.204616
      5          6           0        5.028409   -2.409268    0.344883
      6          6           0        0.973332   -1.204477   -0.017187
      7          6           0        2.943918    0.759663   -0.093500
      8          6           0        1.577755    1.136578   -0.244117
      9          6           0        0.559216    0.157280   -0.122489
     10          6           0        1.315212    2.527668   -0.688601
     11          6           0        3.673104    3.160048   -0.242500
     12          6           0        3.982987    1.723627   -0.084422
     13          6           0        5.306630    1.338433    0.077026
     14          6           0        5.651762   -0.008835    0.217629
     15          1           0        6.685693   -0.304752    0.334420
     16          1           0        6.072138    2.103171    0.089064
     17          1           0        0.226702   -1.984535    0.054920
     18          7           0        2.346273    3.470547   -0.522882
     19          7           0        3.983415   -3.343308    0.308749
     20          8           0        1.787167   -3.905372    0.168259
     21          8           0        6.187298   -2.768257    0.481737
     22          8           0        4.528192    4.033052   -0.163576
     23          8           0        0.273883    2.891056   -1.214318
     24          6           0        2.014595    4.870374   -0.828485
     25          1           0        2.022569    5.040334   -1.907022
     26          1           0        1.022780    5.092054   -0.443005
     27          1           0        2.758145    5.504226   -0.356029
     28          6           0        4.306828   -4.773357    0.430662
     29          1           0        3.854221   -5.179147    1.335617
     30          1           0        3.915714   -5.310636   -0.432525
     31          1           0        5.385677   -4.872523    0.477648
     32          6           0       -0.861793    0.410346    0.057762
     33          6           0       -1.517742    1.538905    0.510783
     34         16           0       -2.028694   -0.852524   -0.327751
     35          6           0       -2.914095    1.390624    0.575665
     36          1           0       -1.005991    2.437205    0.812178
     37          6           0       -3.384085    0.144843    0.142171
     38          8           0       -3.805645    2.316060    1.007398
     39          6           0       -4.743211   -0.305257    0.068522
     40          6           0       -3.303128    3.589103    1.433670
     41          6           0       -5.206106   -1.550139   -0.355209
     42         16           0       -6.116786    0.703287    0.522072
     43          1           0       -4.176348    4.171123    1.719509
     44          1           0       -2.638879    3.475700    2.294357
     45          1           0       -2.776376    4.091143    0.618023
     46          6           0       -6.621396   -1.688759   -0.315766
     47          8           0       -4.317098   -2.489342   -0.755399
     48          6           0       -7.234637   -0.553671    0.135697
     49          1           0       -7.157695   -2.580319   -0.605323
     50          6           0       -4.821805   -3.760311   -1.189257
     51          1           0       -8.292428   -0.382908    0.266728
     52          1           0       -5.468983   -3.642390   -2.061816
     53          1           0       -3.947584   -4.348804   -1.458041
     54          1           0       -5.366152   -4.256930   -0.382363
 ---------------------------------------------------------------------

 The electronic state is 1-A.
 Alpha  occ. eigenvalues --  -88.89114 -88.88793 -19.17361 -19.17198 -19.12863
 Alpha  occ. eigenvalues --  -19.12836 -19.12210 -19.12145 -14.38841 -14.38301
 Alpha  occ. eigenvalues --  -10.31424 -10.31268 -10.30916 -10.30702 -10.25315
 Alpha  occ. eigenvalues --  -10.25268 -10.23844 -10.23231 -10.22970 -10.22931
 Alpha  occ. eigenvalues --  -10.22666 -10.22542 -10.22272 -10.22256 -10.22212
 Alpha  occ. eigenvalues --  -10.22141 -10.22108 -10.21825 -10.21533 -10.21246
 Alpha  occ. eigenvalues --  -10.20890 -10.20886 -10.20773 -10.20707 -10.19344
 Alpha  occ. eigenvalues --  -10.18991  -7.97681  -7.97349  -5.93996  -5.93659
 Alpha  occ. eigenvalues --   -5.93609  -5.93271  -5.93230  -5.92916  -1.08945
 Alpha  occ. eigenvalues --   -1.08772  -1.08643  -1.08444  -1.07133  -1.06534
 Alpha  occ. eigenvalues --   -0.96463  -0.95922  -0.92358  -0.90807  -0.89101
 Alpha  occ. eigenvalues --   -0.86655  -0.84183  -0.80641  -0.78461  -0.77882
 Alpha  occ. eigenvalues --   -0.76487  -0.75541  -0.75182  -0.73445  -0.72460
 Alpha  occ. eigenvalues --   -0.71939  -0.70292  -0.68975  -0.67323  -0.65874
 Alpha  occ. eigenvalues --   -0.65612  -0.64783  -0.61397  -0.60086  -0.58710
 Alpha  occ. eigenvalues --   -0.57448  -0.56803  -0.56272  -0.55433  -0.54987
 Alpha  occ. eigenvalues --   -0.53519  -0.51745  -0.50459  -0.50045  -0.49952
 Alpha  occ. eigenvalues --   -0.49446  -0.49125  -0.48588  -0.48508  -0.48103
 Alpha  occ. eigenvalues --   -0.48059  -0.47191  -0.46917  -0.46541  -0.46066
 Alpha  occ. eigenvalues --   -0.45434  -0.45361  -0.44913  -0.44070  -0.43671
 Alpha  occ. eigenvalues --   -0.42935  -0.42772  -0.42428  -0.42189  -0.41989
 Alpha  occ. eigenvalues --   -0.41838  -0.41314  -0.41097  -0.40657  -0.40066
 Alpha  occ. eigenvalues --   -0.39683  -0.39266  -0.39135  -0.38029  -0.37459
 Alpha  occ. eigenvalues --   -0.36556  -0.36279  -0.34464  -0.34207  -0.33884
 Alpha  occ. eigenvalues --   -0.33782  -0.32141  -0.31508  -0.30805  -0.30090
 Alpha  occ. eigenvalues --   -0.29724  -0.29298  -0.29083  -0.28515  -0.27451
 Alpha  occ. eigenvalues --   -0.26195  -0.25224  -0.24990  -0.19766
 Alpha virt. eigenvalues --   -0.13241  -0.08042  -0.06501  -0.04733  -0.03822
 Alpha virt. eigenvalues --   -0.00628  -0.00562   0.00146   0.00297   0.00466
 Alpha virt. eigenvalues --    0.00803   0.01047   0.01422   0.01545   0.02001

 Mulliken charges:
               1
     1  C    0.361756
     2  C   -0.065458
     3  C    0.218900
     4  C    0.213492
     5  C    0.294705
     6  C    0.116305
     7  C    0.222802
     8  C    0.610233
     9  C    0.185201
    10  C   -0.872591
    11  C    0.279995
    12  C    0.119966
    13  C   -0.492058
    14  C   -0.617880
    15  H    0.164106
    16  H    0.164786
    17  H    0.164991
    18  N    0.024728
    19  N   -0.108232
    20  O   -0.352119
    21  O   -0.334477
    22  O   -0.360337
    23  O   -0.291131
    24  C   -0.189972
    25  H    0.190009
    26  H    0.179636
    27  H    0.179063
    28  C   -0.216613
    29  H    0.185501
    30  H    0.181280
    31  H    0.179554
    32  C   -0.116626
    33  C   -0.461096
    34  S   -0.655193
    35  C   -0.315359
    36  H    0.171220
    37  C    0.721281
    38  O   -0.149371
    39  C    0.871563
    40  C   -0.246602
    41  C    0.044932
    42  S   -0.209518
    43  H    0.179838
    44  H    0.165179
    45  H    0.167018
    46  C   -0.637761
    47  O   -0.153992
    48  C   -0.321614
    49  H    0.164813
    50  C   -0.253515
    51  H    0.193713
    52  H    0.163855
    53  H    0.176794
    54  H    0.164301
 Sum of Mulliken charges =  -0.00000

 Dipole moment (field-independent basis, Debye):
    X=             -6.7019    Y=             -0.8386    Z=              1.0919  Tot=              6.8419
 Quadrupole moment (field-independent basis, Debye-Ang):
   XX=           -210.1552   YY=           -208.5307   ZZ=           -221.7856
   XY=              7.4753   XZ=             -0.6110   YZ=             13.7053

 Normal termination of Gaussian 16 at Wed Oct 27 23:46:14 2021.
