 Gaussian 16, Revision C.01,
 Gaussian 16:  ES64L-G16RevC.01  3-Jul-2019

 --------------------------------------
 # opt=modredundant wb97xd/6-311+g(d,p)
 --------------------------------------

 ---------------
 pg2T_TT_-15.pdb
 ---------------
 Symbolic Z-matrix:
 Charge =  0 Multiplicity = 1

 SCF Done:  E(RwB97XD) =  -1654.22669833     A.U. after   19 cycles
 SCF Done:  E(RwB97XD) =  -1654.29678941     A.U. after   15 cycles
 SCF Done:  E(RwB97XD) =  -1654.38513167     A.U. after   16 cycles
 SCF Done:  E(RwB97XD) =  -1654.40058727     A.U. after   15 cycles
 SCF Done:  E(RwB97XD) =  -1654.40948858     A.U. after   16 cycles
 SCF Done:  E(RwB97XD) =  -1654.41090537     A.U. after   16 cycles
 SCF Done:  E(RwB97XD) =  -1654.41188486     A.U. after   14 cycles
 SCF Done:  E(RwB97XD) =  -1654.41203766     A.U. after   13 cycles
 SCF Done:  E(RwB97XD) =  -1654.41203792     A.U. after   13 cycles
 SCF Done:  E(RwB97XD) =  -1654.41209152     A.U. after   13 cycles
 SCF Done:  E(RwB97XD) =  -1654.41209330     A.U. after   11 cycles
 SCF Done:  E(RwB97XD) =  -1654.41209385     A.U. after   11 cycles
 SCF Done:  E(RwB97XD) =  -1654.41209413     A.U. after   10 cycles
 Optimization completed.
    -- Stationary point found.

                         Standard orientation:
 ---------------------------------------------------------------------
 Center     Atomic      Atomic             Coordinates (Angstroms)
 Number     Number       Type             X           Y           Z
 ---------------------------------------------------------------------
      1          6           0       -3.813320    0.415790    0.119524
      2          6           0       -2.470150    0.887284    0.172589
      3          6           0       -1.550760   -0.112459    0.006615
      4          6           0       -3.901220   -0.926404   -0.088355
      5         16           0       -2.337862   -1.636691   -0.237853
      6          1           0       -4.795016   -1.524794   -0.161920
      7          6           0       -0.100843   -0.006500   -0.011511
      8         16           0        0.656826    1.564639   -0.199999
      9          6           0        2.232723    0.857582   -0.085288
     10          6           0        2.147536   -0.510933    0.076323
     11          6           0        0.817788   -1.008651    0.125880
     12          1           0        0.550101   -2.046328    0.272263
     13         16           0        3.723689   -1.217093    0.188582
     14          6           0        4.463934    0.344092    0.013242
     15          6           0        3.565693    1.355851   -0.123204
     16          1           0        5.540921    0.420326    0.020781
     17          1           0        3.842867    2.393469   -0.243744
     18          1           0       -2.201858    1.922218    0.349732
     19          8           0       -4.914777    1.197324    0.265757
     20          1           0       -4.649522    2.108927    0.390268
 ---------------------------------------------------------------------

 The electronic state is 1-A.
 Alpha  occ. eigenvalues --  -89.05566 -89.05466 -89.05249 -19.28840 -10.35875
 Alpha  occ. eigenvalues --  -10.34400 -10.34221 -10.32901 -10.32832 -10.32703
 Alpha  occ. eigenvalues --  -10.31001 -10.30910 -10.30873 -10.30309  -8.09620
 Alpha  occ. eigenvalues --   -8.09509  -8.09317  -6.04480  -6.04358  -6.04164
 Alpha  occ. eigenvalues --   -6.04110  -6.03984  -6.03779  -6.03653  -6.03572
 Alpha  occ. eigenvalues --   -6.03393  -1.17930  -1.02747  -0.99977  -0.95736
 Alpha  occ. eigenvalues --   -0.87650  -0.86441  -0.84362  -0.81441  -0.80405
 Alpha  occ. eigenvalues --   -0.72565  -0.68071  -0.67157  -0.64798  -0.63853
 Alpha  occ. eigenvalues --   -0.62212  -0.59010  -0.57119  -0.52580  -0.52514
 Alpha  occ. eigenvalues --   -0.52121  -0.51130  -0.49962  -0.48102  -0.47846
 Alpha  occ. eigenvalues --   -0.46402  -0.45803  -0.45589  -0.43554  -0.42588
 Alpha  occ. eigenvalues --   -0.42379  -0.37508  -0.34727  -0.31807  -0.31249
 Alpha  occ. eigenvalues --   -0.27535
 Alpha virt. eigenvalues --   -0.00296   0.04815   0.05422   0.05556   0.06034
 Alpha virt. eigenvalues --    0.06716   0.07512   0.07666   0.08259   0.08522
 Alpha virt. eigenvalues --    0.08994   0.09408   0.10034   0.10149   0.10206

 Mulliken charges:
               1
     1  C   -0.763106
     2  C    0.854749
     3  C    0.087254
     4  C    0.319068
     5  S   -0.546141
     6  H    0.186309
     7  C    0.025280
     8  S   -0.626262
     9  C    0.269008
    10  C    0.310982
    11  C    0.143802
    12  H    0.169106
    13  S   -0.463497
    14  C   -0.140931
    15  C   -0.323529
    16  H    0.194866
    17  H    0.162440
    18  H    0.148017
    19  O   -0.272175
    20  H    0.264761
 Sum of Mulliken charges =  -0.00000

 Dipole moment (field-independent basis, Debye):
    X=              1.1526    Y=              1.5391    Z=              0.2641  Tot=              1.9410
 Quadrupole moment (field-independent basis, Debye-Ang):
   XX=            -96.1375   YY=            -90.5198   ZZ=           -107.9699
   XY=             -0.3532   XZ=             -0.7607   YZ=              0.6670

 Normal termination of Gaussian 16 at Tue Oct 26 23:31:11 2021.
