 Gaussian 16, Revision C.01,
 Gaussian 16:  ES64L-G16RevC.01  3-Jul-2019

 --------------------------------------
 # opt=modredundant wb97xd/6-311+g(d,p)
 --------------------------------------

 ---------------
 pg2T_TT_-65.pdb
 ---------------
 Symbolic Z-matrix:
 Charge =  0 Multiplicity = 1

 SCF Done:  E(RwB97XD) =  -1654.22426504     A.U. after   19 cycles
 SCF Done:  E(RwB97XD) =  -1654.29461696     A.U. after   15 cycles
 SCF Done:  E(RwB97XD) =  -1654.38340887     A.U. after   16 cycles
 SCF Done:  E(RwB97XD) =  -1654.39942720     A.U. after   15 cycles
 SCF Done:  E(RwB97XD) =  -1654.40848614     A.U. after   15 cycles
 SCF Done:  E(RwB97XD) =  -1654.40988698     A.U. after   15 cycles
 SCF Done:  E(RwB97XD) =  -1654.41092356     A.U. after   14 cycles
 SCF Done:  E(RwB97XD) =  -1654.41082351     A.U. after   14 cycles
 SCF Done:  E(RwB97XD) =  -1654.41113741     A.U. after   13 cycles
 SCF Done:  E(RwB97XD) =  -1654.41114399     A.U. after   13 cycles
 SCF Done:  E(RwB97XD) =  -1654.41117183     A.U. after   13 cycles
 SCF Done:  E(RwB97XD) =  -1654.41117506     A.U. after   11 cycles
 SCF Done:  E(RwB97XD) =  -1654.41117510     A.U. after   10 cycles
 Optimization completed.
    -- Stationary point found.

                         Standard orientation:
 ---------------------------------------------------------------------
 Center     Atomic      Atomic             Coordinates (Angstroms)
 Number     Number       Type             X           Y           Z
 ---------------------------------------------------------------------
      1          6           0       -3.810183    0.307249    0.429582
      2          6           0       -2.464414    0.713736    0.662967
      3          6           0       -1.558371   -0.062973   -0.002055
      4          6           0       -3.906332   -0.772465   -0.395714
      5         16           0       -2.351509   -1.301973   -0.911836
      6          1           0       -4.806003   -1.269361   -0.722318
      7          6           0       -0.099561    0.027745    0.027332
      8         16           0        0.696562    1.451948   -0.613626
      9          6           0        2.252323    0.775572   -0.273718
     10          6           0        2.131252   -0.484895    0.279000
     11          6           0        0.787474   -0.918839    0.448056
     12          1           0        0.480907   -1.866812    0.868202
     13         16           0        3.687913   -1.160545    0.621869
     14          6           0        4.469323    0.266792    0.015250
     15          6           0        3.599650    1.213683   -0.425763
     16          1           0        5.547836    0.318867    0.019409
     17          1           0        3.904993    2.165147   -0.837532
     18          1           0       -2.175640    1.535479    1.307192
     19          8           0       -4.906152    0.903870    0.968035
     20          1           0       -4.637288    1.661201    1.488620
 ---------------------------------------------------------------------

 The electronic state is 1-A.
 Alpha  occ. eigenvalues --  -89.05423 -89.05370 -89.05217 -19.28783 -10.35790
 Alpha  occ. eigenvalues --  -10.34068 -10.33901 -10.32762 -10.32693 -10.32640
 Alpha  occ. eigenvalues --  -10.30935 -10.30819 -10.30808 -10.30293  -8.09460
 Alpha  occ. eigenvalues --   -8.09415  -8.09270  -6.04314  -6.04264  -6.04106
 Alpha  occ. eigenvalues --   -6.03942  -6.03890  -6.03723  -6.03509  -6.03478
 Alpha  occ. eigenvalues --   -6.03365  -1.17856  -1.02573  -0.99865  -0.95608
 Alpha  occ. eigenvalues --   -0.87466  -0.86175  -0.84188  -0.81399  -0.80341
 Alpha  occ. eigenvalues --   -0.72345  -0.67812  -0.66983  -0.64487  -0.63564
 Alpha  occ. eigenvalues --   -0.62685  -0.58874  -0.57054  -0.52410  -0.52384
 Alpha  occ. eigenvalues --   -0.52005  -0.50820  -0.50333  -0.48183  -0.47802
 Alpha  occ. eigenvalues --   -0.46111  -0.45428  -0.44636  -0.43658  -0.42531
 Alpha  occ. eigenvalues --   -0.42397  -0.37284  -0.33730  -0.31616  -0.30701
 Alpha  occ. eigenvalues --   -0.28967
 Alpha virt. eigenvalues --    0.01274   0.04226   0.05027   0.05481   0.06055
 Alpha virt. eigenvalues --    0.06872   0.07116   0.07469   0.07538   0.08466
 Alpha virt. eigenvalues --    0.09090   0.09347   0.09797   0.09941   0.10159

 Mulliken charges:
               1
     1  C   -0.551584
     2  C    0.000320
     3  C    0.140051
     4  C    0.190722
     5  S   -0.157312
     6  H    0.188126
     7  C    0.057553
     8  S   -0.490849
     9  C    0.308148
    10  C   -0.602248
    11  C    0.709339
    12  H    0.172376
    13  S   -0.424906
    14  C   -0.194445
    15  C    0.151746
    16  H    0.194360
    17  H    0.163331
    18  H    0.153674
    19  O   -0.274024
    20  H    0.265624
 Sum of Mulliken charges =  -0.00000

 Dipole moment (field-independent basis, Debye):
    X=              1.0961    Y=              1.2570    Z=              0.8991  Tot=              1.8947
 Quadrupole moment (field-independent basis, Debye-Ang):
   XX=            -96.4060   YY=            -95.1743   ZZ=           -102.9830
   XY=              0.1454   XZ=             -3.1894   YZ=              2.2966

 Normal termination of Gaussian 16 at Tue Oct 26 23:16:03 2021.
