 Gaussian 16, Revision C.01,
 Gaussian 16:  ES64L-G16RevC.01  3-Jul-2019

 --------------------------------------
 # opt=modredundant wb97xd/6-311+g(d,p)
 --------------------------------------

 ---------------
 pg2T_TT_-55.pdb
 ---------------
 Symbolic Z-matrix:
 Charge =  0 Multiplicity = 1

 SCF Done:  E(RwB97XD) =  -1654.22543331     A.U. after   19 cycles
 SCF Done:  E(RwB97XD) =  -1654.29568790     A.U. after   15 cycles
 SCF Done:  E(RwB97XD) =  -1654.38433105     A.U. after   16 cycles
 SCF Done:  E(RwB97XD) =  -1654.40023480     A.U. after   15 cycles
 SCF Done:  E(RwB97XD) =  -1654.40923707     A.U. after   15 cycles
 SCF Done:  E(RwB97XD) =  -1654.41064432     A.U. after   14 cycles
 SCF Done:  E(RwB97XD) =  -1654.41167848     A.U. after   14 cycles
 SCF Done:  E(RwB97XD) =  -1654.41163303     A.U. after   14 cycles
 SCF Done:  E(RwB97XD) =  -1654.41186628     A.U. after   14 cycles
 SCF Done:  E(RwB97XD) =  -1654.41189636     A.U. after   13 cycles
 SCF Done:  E(RwB97XD) =  -1654.41190796     A.U. after   13 cycles
 SCF Done:  E(RwB97XD) =  -1654.41191291     A.U. after   12 cycles
 SCF Done:  E(RwB97XD) =  -1654.41191312     A.U. after   11 cycles
 Optimization completed.
    -- Stationary point found.

                         Standard orientation:
 ---------------------------------------------------------------------
 Center     Atomic      Atomic             Coordinates (Angstroms)
 Number     Number       Type             X           Y           Z
 ---------------------------------------------------------------------
      1          6           0       -3.809812    0.346817    0.366634
      2          6           0       -2.465204    0.779149    0.554325
      3          6           0       -1.556164   -0.074521   -0.005177
      4          6           0       -3.903142   -0.826920   -0.318658
      5         16           0       -2.346225   -1.414168   -0.762172
      6          1           0       -4.801236   -1.360963   -0.585233
      7          6           0       -0.100180    0.018740    0.018070
      8         16           0        0.685607    1.475673   -0.558675
      9          6           0        2.246608    0.795683   -0.248999
     10          6           0        2.134374   -0.489765    0.244625
     11          6           0        0.794055   -0.939760    0.396492
     12          1           0        0.495870   -1.905362    0.781084
     13         16           0        3.695888   -1.169483    0.555546
     14          6           0        4.467119    0.289679    0.015073
     15          6           0        3.590415    1.249754   -0.381601
     16          1           0        5.545232    0.348995    0.021197
     17          1           0        3.888827    2.221307   -0.749177
     18          1           0       -2.180147    1.671541    1.098645
     19          8           0       -4.907619    1.005076    0.822739
     20          1           0       -4.640329    1.818391    1.251691
 ---------------------------------------------------------------------

 The electronic state is 1-A.
 Alpha  occ. eigenvalues --  -89.05470 -89.05381 -89.05248 -19.28798 -10.35817
 Alpha  occ. eigenvalues --  -10.34136 -10.33966 -10.32784 -10.32720 -10.32644
 Alpha  occ. eigenvalues --  -10.30927 -10.30823 -10.30823 -10.30281  -8.09509
 Alpha  occ. eigenvalues --   -8.09425  -8.09303  -6.04364  -6.04274  -6.04141
 Alpha  occ. eigenvalues --   -6.03992  -6.03900  -6.03758  -6.03555  -6.03488
 Alpha  occ. eigenvalues --   -6.03396  -1.17875  -1.02607  -0.99899  -0.95635
 Alpha  occ. eigenvalues --   -0.87498  -0.86236  -0.84233  -0.81408  -0.80347
 Alpha  occ. eigenvalues --   -0.72394  -0.67862  -0.67016  -0.64555  -0.63628
 Alpha  occ. eigenvalues --   -0.62556  -0.58895  -0.57069  -0.52456  -0.52406
 Alpha  occ. eigenvalues --   -0.52024  -0.50897  -0.50245  -0.48163  -0.47822
 Alpha  occ. eigenvalues --   -0.46170  -0.45465  -0.44837  -0.43640  -0.42561
 Alpha  occ. eigenvalues --   -0.42411  -0.37327  -0.33953  -0.31684  -0.30885
 Alpha  occ. eigenvalues --   -0.28562
 Alpha virt. eigenvalues --    0.00888   0.04608   0.05027   0.05491   0.06057
 Alpha virt. eigenvalues --    0.06828   0.07239   0.07493   0.07577   0.08499
 Alpha virt. eigenvalues --    0.09125   0.09385   0.09813   0.09900   0.10155

 Mulliken charges:
               1
     1  C   -0.619846
     2  C    0.083539
     3  C    0.201983
     4  C    0.225683
     5  S   -0.218298
     6  H    0.187996
     7  C    0.040700
     8  S   -0.522616
     9  C    0.310786
    10  C   -0.666175
    11  C    0.798804
    12  H    0.173378
    13  S   -0.429911
    14  C   -0.194361
    15  C    0.123496
    16  H    0.194363
    17  H    0.163235
    18  H    0.154116
    19  O   -0.271676
    20  H    0.264803
 Sum of Mulliken charges =  -0.00000

 Dipole moment (field-independent basis, Debye):
    X=              1.0965    Y=              1.3602    Z=              0.7599  Tot=              1.9052
 Quadrupole moment (field-independent basis, Debye-Ang):
   XX=            -96.3821   YY=            -93.7588   ZZ=           -104.4463
   XY=              0.0007   XZ=             -2.6875   YZ=              2.0372

 Normal termination of Gaussian 16 at Tue Oct 26 23:21:54 2021.
