 Gaussian 16, Revision C.01,
 Gaussian 16:  ES64L-G16RevC.01  3-Jul-2019

 --------------------------------------
 # opt=modredundant wb97xd/6-311+g(d,p)
 --------------------------------------

 ---------------
 pg2T_TT_100.pdb
 ---------------
 Symbolic Z-matrix:
 Charge =  0 Multiplicity = 1

 SCF Done:  E(RwB97XD) =  -1654.22323740     A.U. after   18 cycles
 SCF Done:  E(RwB97XD) =  -1654.29354808     A.U. after   16 cycles
 SCF Done:  E(RwB97XD) =  -1654.38226132     A.U. after   16 cycles
 SCF Done:  E(RwB97XD) =  -1654.39815640     A.U. after   15 cycles
 SCF Done:  E(RwB97XD) =  -1654.40720882     A.U. after   15 cycles
 SCF Done:  E(RwB97XD) =  -1654.40862485     A.U. after   15 cycles
 SCF Done:  E(RwB97XD) =  -1654.40969614     A.U. after   14 cycles
 SCF Done:  E(RwB97XD) =  -1654.40950636     A.U. after   14 cycles
 SCF Done:  E(RwB97XD) =  -1654.40995733     A.U. after   13 cycles
 SCF Done:  E(RwB97XD) =  -1654.40996026     A.U. after   13 cycles
 SCF Done:  E(RwB97XD) =  -1654.40998324     A.U. after   13 cycles
 SCF Done:  E(RwB97XD) =  -1654.40998737     A.U. after   12 cycles
 SCF Done:  E(RwB97XD) =  -1654.40998741     A.U. after   10 cycles
 SCF Done:  E(RwB97XD) =  -1654.40998750     A.U. after   10 cycles
 Optimization completed.
    -- Stationary point found.

                         Standard orientation:
 ---------------------------------------------------------------------
 Center     Atomic      Atomic             Coordinates (Angstroms)
 Number     Number       Type             X           Y           Z
 ---------------------------------------------------------------------
      1          6           0        3.767860    0.526128   -0.434728
      2          6           0        2.391752    0.706735   -0.759534
      3          6           0        1.558784    0.026917    0.081917
      4          6           0        3.958683   -0.291560    0.637782
      5         16           0        2.458836   -0.848495    1.272945
      6          1           0        4.898141   -0.584595    1.079018
      7          6           0        0.094759   -0.018572    0.035329
      8         16           0       -0.725850   -1.393470   -0.678458
      9          6           0       -2.267343   -0.663491   -0.391099
     10          6           0       -2.124519    0.570847    0.212919
     11          6           0       -0.773689    0.942775    0.458782
     12          1           0       -0.447511    1.861237    0.926699
     13         16           0       -3.668233    1.300171    0.500500
     14          6           0       -4.473995   -0.069807   -0.199436
     15          6           0       -3.621787   -1.036918   -0.630205
     16          1           0       -5.552559   -0.076864   -0.250429
     17          1           0       -3.943536   -1.960086   -1.090953
     18          1           0        2.028334    1.308484   -1.583895
     19          8           0        4.805803    1.094025   -1.104052
     20          1           0        4.471636    1.609993   -1.838169
 ---------------------------------------------------------------------

 The electronic state is 1-A.
 Alpha  occ. eigenvalues --  -89.05380 -89.05347 -89.05132 -19.28782 -10.35750
 Alpha  occ. eigenvalues --  -10.33986 -10.33823 -10.32751 -10.32667 -10.32653
 Alpha  occ. eigenvalues --  -10.30974 -10.30828 -10.30801 -10.30330  -8.09425
 Alpha  occ. eigenvalues --   -8.09384  -8.09187  -6.04273  -6.04237  -6.04022
 Alpha  occ. eigenvalues --   -6.03900  -6.03864  -6.03640  -6.03487  -6.03434
 Alpha  occ. eigenvalues --   -6.03285  -1.17843  -1.02540  -0.99815  -0.95584
 Alpha  occ. eigenvalues --   -0.87463  -0.86083  -0.84116  -0.81399  -0.80345
 Alpha  occ. eigenvalues --   -0.72290  -0.67833  -0.66888  -0.64243  -0.63390
 Alpha  occ. eigenvalues --   -0.63117  -0.58880  -0.57061  -0.52401  -0.52284
 Alpha  occ. eigenvalues --   -0.51963  -0.50710  -0.50420  -0.48240  -0.47784
 Alpha  occ. eigenvalues --   -0.46015  -0.45437  -0.44319  -0.43781  -0.42487
 Alpha  occ. eigenvalues --   -0.42403  -0.37213  -0.33499  -0.31218  -0.30645
 Alpha  occ. eigenvalues --   -0.29583
 Alpha virt. eigenvalues --    0.01877   0.03557   0.04993   0.05542   0.06079
 Alpha virt. eigenvalues --    0.06883   0.07005   0.07389   0.07532   0.08529
 Alpha virt. eigenvalues --    0.08962   0.09293   0.09831   0.10047   0.10306

 Mulliken charges:
               1
     1  C   -0.650337
     2  C    0.236522
     3  C    0.068704
     4  C    0.297715
     5  S   -0.205321
     6  H    0.187132
     7  C   -0.229882
     8  S   -0.533215
     9  C    0.263294
    10  C   -0.450926
    11  C    0.700112
    12  H    0.166462
    13  S   -0.421569
    14  C   -0.202126
    15  C    0.277452
    16  H    0.194477
    17  H    0.163598
    18  H    0.148238
    19  O   -0.277531
    20  H    0.267201
 Sum of Mulliken charges =  -0.00000

 Dipole moment (field-independent basis, Debye):
    X=             -1.2006    Y=              0.8709    Z=             -1.2803  Tot=              1.9593
 Quadrupole moment (field-independent basis, Debye-Ang):
   XX=            -96.8008   YY=            -98.2360   ZZ=            -99.8429
   XY=              4.4369   XZ=             -0.6191   YZ=             -2.0855

 Normal termination of Gaussian 16 at Wed Oct 27 00:54:37 2021.
