 Gaussian 16, Revision C.01,
 Gaussian 16:  ES64L-G16RevC.01  3-Jul-2019

 --------------------------------------
 # opt=modredundant wb97xd/6-311+g(d,p)
 --------------------------------------

 --------------
 pg2T_TT_65.pdb
 --------------
 Symbolic Z-matrix:
 Charge =  0 Multiplicity = 1

 SCF Done:  E(RwB97XD) =  -1654.22414809     A.U. after   19 cycles
 SCF Done:  E(RwB97XD) =  -1654.29450691     A.U. after   15 cycles
 SCF Done:  E(RwB97XD) =  -1654.38333349     A.U. after   16 cycles
 SCF Done:  E(RwB97XD) =  -1654.39917891     A.U. after   15 cycles
 SCF Done:  E(RwB97XD) =  -1654.40827898     A.U. after   15 cycles
 SCF Done:  E(RwB97XD) =  -1654.40969343     A.U. after   15 cycles
 SCF Done:  E(RwB97XD) =  -1654.41078179     A.U. after   14 cycles
 SCF Done:  E(RwB97XD) =  -1654.41063184     A.U. after   14 cycles
 SCF Done:  E(RwB97XD) =  -1654.41114983     A.U. after   13 cycles
 SCF Done:  E(RwB97XD) =  -1654.41115792     A.U. after   13 cycles
 SCF Done:  E(RwB97XD) =  -1654.41116773     A.U. after   13 cycles
 SCF Done:  E(RwB97XD) =  -1654.41117415     A.U. after   12 cycles
 SCF Done:  E(RwB97XD) =  -1654.41117427     A.U. after   10 cycles
 Optimization completed.
    -- Stationary point found.

                         Standard orientation:
 ---------------------------------------------------------------------
 Center     Atomic      Atomic             Coordinates (Angstroms)
 Number     Number       Type             X           Y           Z
 ---------------------------------------------------------------------
      1          6           0        3.810005    0.307540    0.429700
      2          6           0        2.464123    0.713642    0.662998
      3          6           0        1.558368   -0.063024   -0.002384
      4          6           0        3.906528   -0.772203   -0.395469
      5         16           0        2.351902   -1.301777   -0.912112
      6          1           0        4.806319   -1.269057   -0.721799
      7          6           0        0.099549    0.027573    0.026781
      8         16           0       -0.696649    1.451677   -0.614225
      9          6           0       -2.252357    0.775575   -0.273594
     10          6           0       -2.131229   -0.484947    0.279041
     11          6           0       -0.787439   -0.919004    0.447667
     12          1           0       -0.480764   -1.866833    0.868061
     13         16           0       -3.687849   -1.160492    0.622186
     14          6           0       -4.469334    0.266697    0.015301
     15          6           0       -3.599672    1.213806   -0.425265
     16          1           0       -5.547850    0.318684    0.019441
     17          1           0       -3.905046    2.165401   -0.836720
     18          1           0        2.174964    1.535181    1.307583
     19          8           0        4.905749    0.903874    0.968953
     20          1           0        4.636676    1.661175    1.489555
 ---------------------------------------------------------------------

 The electronic state is 1-A.
 Alpha  occ. eigenvalues --  -89.05423 -89.05370 -89.05216 -19.28783 -10.35790
 Alpha  occ. eigenvalues --  -10.34068 -10.33900 -10.32762 -10.32693 -10.32640
 Alpha  occ. eigenvalues --  -10.30936 -10.30819 -10.30808 -10.30294  -8.09461
 Alpha  occ. eigenvalues --   -8.09415  -8.09270  -6.04314  -6.04264  -6.04105
 Alpha  occ. eigenvalues --   -6.03942  -6.03890  -6.03723  -6.03509  -6.03478
 Alpha  occ. eigenvalues --   -6.03365  -1.17854  -1.02574  -0.99866  -0.95609
 Alpha  occ. eigenvalues --   -0.87466  -0.86175  -0.84187  -0.81400  -0.80341
 Alpha  occ. eigenvalues --   -0.72344  -0.67811  -0.66983  -0.64487  -0.63563
 Alpha  occ. eigenvalues --   -0.62685  -0.58874  -0.57054  -0.52411  -0.52385
 Alpha  occ. eigenvalues --   -0.52003  -0.50820  -0.50333  -0.48184  -0.47803
 Alpha  occ. eigenvalues --   -0.46111  -0.45428  -0.44634  -0.43658  -0.42530
 Alpha  occ. eigenvalues --   -0.42397  -0.37284  -0.33730  -0.31615  -0.30702
 Alpha  occ. eigenvalues --   -0.28968
 Alpha virt. eigenvalues --    0.01274   0.04227   0.05026   0.05481   0.06055
 Alpha virt. eigenvalues --    0.06872   0.07115   0.07469   0.07538   0.08466
 Alpha virt. eigenvalues --    0.09090   0.09346   0.09797   0.09942   0.10158

 Mulliken charges:
               1
     1  C   -0.551534
     2  C    0.000379
     3  C    0.140162
     4  C    0.190616
     5  S   -0.157074
     6  H    0.188129
     7  C    0.057257
     8  S   -0.490760
     9  C    0.308094
    10  C   -0.603025
    11  C    0.709860
    12  H    0.172378
    13  S   -0.424832
    14  C   -0.194454
    15  C    0.151846
    16  H    0.194363
    17  H    0.163333
    18  H    0.153697
    19  O   -0.274066
    20  H    0.265631
 Sum of Mulliken charges =  -0.00000

 Dipole moment (field-independent basis, Debye):
    X=             -1.0966    Y=              1.2569    Z=              0.8999  Tot=              1.8953
 Quadrupole moment (field-independent basis, Debye-Ang):
   XX=            -96.4076   YY=            -95.1762   ZZ=           -102.9816
   XY=             -0.1489   XZ=              3.1866   YZ=              2.2970

 Normal termination of Gaussian 16 at Wed Oct 27 00:24:53 2021.
