 Gaussian 16, Revision C.01,
 Gaussian 16:  ES64L-G16RevC.01  3-Jul-2019

 --------------------------------------
 # opt=modredundant wb97xd/6-311+g(d,p)
 --------------------------------------

 ---------------
 pg2T_TT_110.pdb
 ---------------
 Symbolic Z-matrix:
 Charge =  0 Multiplicity = 1

 SCF Done:  E(RwB97XD) =  -1654.22380204     A.U. after   18 cycles
 SCF Done:  E(RwB97XD) =  -1654.29407261     A.U. after   16 cycles
 SCF Done:  E(RwB97XD) =  -1654.38273471     A.U. after   16 cycles
 SCF Done:  E(RwB97XD) =  -1654.39865013     A.U. after   15 cycles
 SCF Done:  E(RwB97XD) =  -1654.40769630     A.U. after   16 cycles
 SCF Done:  E(RwB97XD) =  -1654.40911437     A.U. after   15 cycles
 SCF Done:  E(RwB97XD) =  -1654.41018015     A.U. after   14 cycles
 SCF Done:  E(RwB97XD) =  -1654.41002535     A.U. after   14 cycles
 SCF Done:  E(RwB97XD) =  -1654.41041393     A.U. after   13 cycles
 SCF Done:  E(RwB97XD) =  -1654.41042160     A.U. after   13 cycles
 SCF Done:  E(RwB97XD) =  -1654.41044094     A.U. after   13 cycles
 SCF Done:  E(RwB97XD) =  -1654.41044495     A.U. after   12 cycles
 SCF Done:  E(RwB97XD) =  -1654.41044500     A.U. after   10 cycles
 Optimization completed.
    -- Stationary point found.

                         Standard orientation:
 ---------------------------------------------------------------------
 Center     Atomic      Atomic             Coordinates (Angstroms)
 Number     Number       Type             X           Y           Z
 ---------------------------------------------------------------------
      1          6           0        3.755381    0.623127   -0.354123
      2          6           0        2.373279    0.856056   -0.613545
      3          6           0        1.557417    0.014340    0.087247
      4          6           0        3.968045   -0.395206    0.525027
      5         16           0        2.481346   -1.079044    1.059979
      6          1           0        4.915980   -0.766964    0.880303
      7          6           0        0.095382   -0.030768    0.050037
      8         16           0       -0.734470   -1.384065   -0.693584
      9          6           0       -2.270896   -0.648270   -0.392735
     10          6           0       -2.119391    0.574887    0.231448
     11          6           0       -0.766283    0.931612    0.486446
     12          1           0       -0.433998    1.836951    0.975125
     13         16           0       -3.658216    1.308314    0.534228
     14          6           0       -4.473586   -0.045309   -0.186298
     15          6           0       -3.627817   -1.010099   -0.634684
     16          1           0       -5.552231   -0.044840   -0.235788
     17          1           0       -3.955840   -1.923596   -1.110057
     18          1           0        1.993527    1.604174   -1.298728
     19          8           0        4.779339    1.321242   -0.912415
     20          1           0        4.430126    1.978847   -1.514429
 ---------------------------------------------------------------------

 The electronic state is 1-A.
 Alpha  occ. eigenvalues --  -89.05388 -89.05375 -89.05154 -19.28797 -10.35771
 Alpha  occ. eigenvalues --  -10.34029 -10.33867 -10.32760 -10.32685 -10.32652
 Alpha  occ. eigenvalues --  -10.30966 -10.30834 -10.30807 -10.30327  -8.09433
 Alpha  occ. eigenvalues --   -8.09413  -8.09211  -6.04282  -6.04267  -6.04046
 Alpha  occ. eigenvalues --   -6.03908  -6.03894  -6.03664  -6.03496  -6.03462
 Alpha  occ. eigenvalues --   -6.03307  -1.17861  -1.02561  -0.99839  -0.95599
 Alpha  occ. eigenvalues --   -0.87501  -0.86106  -0.84150  -0.81403  -0.80347
 Alpha  occ. eigenvalues --   -0.72325  -0.67895  -0.66881  -0.64200  -0.63477
 Alpha  occ. eigenvalues --   -0.63084  -0.58901  -0.57079  -0.52428  -0.52288
 Alpha  occ. eigenvalues --   -0.51975  -0.50795  -0.50278  -0.48272  -0.47777
 Alpha  occ. eigenvalues --   -0.46024  -0.45495  -0.44464  -0.43745  -0.42540
 Alpha  occ. eigenvalues --   -0.42398  -0.37226  -0.33662  -0.31258  -0.30929
 Alpha  occ. eigenvalues --   -0.29153
 Alpha virt. eigenvalues --    0.01507   0.03955   0.04951   0.05584   0.06095
 Alpha virt. eigenvalues --    0.06899   0.06977   0.07402   0.07549   0.08612
 Alpha virt. eigenvalues --    0.09001   0.09329   0.09838   0.10029   0.10318

 Mulliken charges:
               1
     1  C   -0.680281
     2  C    0.286871
     3  C    0.084181
     4  C    0.303662
     5  S   -0.244622
     6  H    0.187261
     7  C   -0.208991
     8  S   -0.549618
     9  C    0.248370
    10  C   -0.389031
    11  C    0.677181
    12  H    0.165570
    13  S   -0.424534
    14  C   -0.198405
    15  C    0.247287
    16  H    0.194535
    17  H    0.163538
    18  H    0.147457
    19  O   -0.276606
    20  H    0.266175
 Sum of Mulliken charges =  -0.00000

 Dipole moment (field-independent basis, Debye):
    X=             -1.2211    Y=              1.0935    Z=             -1.0708  Tot=              1.9579
 Quadrupole moment (field-independent basis, Debye-Ang):
   XX=            -96.8483   YY=            -96.1925   ZZ=           -101.9102
   XY=              4.7482   XZ=             -0.0084   YZ=             -2.1540

 Normal termination of Gaussian 16 at Wed Oct 27 01:01:57 2021.
