 Gaussian 16, Revision C.01,
 Gaussian 16:  ES64L-G16RevC.01  3-Jul-2019

 --------------------------------------
 # opt=modredundant wb97xd/6-311+g(d,p)
 --------------------------------------

 ----------------
 pg2T_TT_-165.pdb
 ----------------
 Symbolic Z-matrix:
 Charge =  0 Multiplicity = 1

 SCF Done:  E(RwB97XD) =  -1654.22418311     A.U. after   19 cycles
 SCF Done:  E(RwB97XD) =  -1654.29440225     A.U. after   16 cycles
 SCF Done:  E(RwB97XD) =  -1654.38299804     A.U. after   16 cycles
 SCF Done:  E(RwB97XD) =  -1654.39880052     A.U. after   15 cycles
 SCF Done:  E(RwB97XD) =  -1654.40786088     A.U. after   16 cycles
 SCF Done:  E(RwB97XD) =  -1654.40927084     A.U. after   15 cycles
 SCF Done:  E(RwB97XD) =  -1654.41035149     A.U. after   14 cycles
 SCF Done:  E(RwB97XD) =  -1654.41029356     A.U. after   14 cycles
 SCF Done:  E(RwB97XD) =  -1654.41060982     A.U. after   13 cycles
 SCF Done:  E(RwB97XD) =  -1654.41062506     A.U. after   13 cycles
 SCF Done:  E(RwB97XD) =  -1654.41063244     A.U. after   12 cycles
 SCF Done:  E(RwB97XD) =  -1654.41063708     A.U. after   11 cycles
 SCF Done:  E(RwB97XD) =  -1654.41063710     A.U. after   10 cycles
 Optimization completed.
    -- Stationary point found.

                         Standard orientation:
 ---------------------------------------------------------------------
 Center     Atomic      Atomic             Coordinates (Angstroms)
 Number     Number       Type             X           Y           Z
 ---------------------------------------------------------------------
      1          6           0        3.747458    0.775090    0.066479
      2          6           0        2.364369    1.090476    0.182960
      3          6           0        1.556394   -0.004565    0.032097
      4          6           0        3.977416   -0.545955   -0.171170
      5         16           0        2.499881   -1.424710   -0.272719
      6          1           0        4.928949   -1.039345   -0.286843
      7          6           0        0.101181   -0.028823    0.042124
      8         16           0       -0.777157   -1.535480    0.224964
      9          6           0       -2.292039   -0.708185    0.108295
     10          6           0       -2.100680    0.650113   -0.051851
     11          6           0       -0.736706    1.042153   -0.099494
     12          1           0       -0.388125    2.053349   -0.255760
     13         16           0       -3.617951    1.475765   -0.169040
     14          6           0       -4.477012   -0.024539    0.002280
     15          6           0       -3.659853   -1.102133    0.141215
     16          1           0       -5.556617   -0.017584   -0.009657
     17          1           0       -4.016214   -2.115596    0.259114
     18          1           0        1.988308    2.083256    0.397709
     19          8           0        4.760311    1.672892    0.184945
     20          1           0        4.401682    2.541801    0.366988
 ---------------------------------------------------------------------

 The electronic state is 1-A.
 Alpha  occ. eigenvalues --  -89.05527 -89.05459 -89.05293 -19.28869 -10.35887
 Alpha  occ. eigenvalues --  -10.34395 -10.34212 -10.32877 -10.32813 -10.32684
 Alpha  occ. eigenvalues --  -10.31006 -10.30882 -10.30856 -10.30275  -8.09580
 Alpha  occ. eigenvalues --   -8.09504  -8.09363  -6.04439  -6.04353  -6.04206
 Alpha  occ. eigenvalues --   -6.04066  -6.03979  -6.03821  -6.03617  -6.03565
 Alpha  occ. eigenvalues --   -6.03445  -1.17954  -1.02730  -0.99985  -0.95714
 Alpha  occ. eigenvalues --   -0.87745  -0.86273  -0.84398  -0.81425  -0.80387
 Alpha  occ. eigenvalues --   -0.72558  -0.68232  -0.66999  -0.64264  -0.63960
 Alpha  occ. eigenvalues --   -0.62681  -0.59108  -0.57141  -0.52525  -0.52501
 Alpha  occ. eigenvalues --   -0.52056  -0.51120  -0.49583  -0.48408  -0.47579
 Alpha  occ. eigenvalues --   -0.46268  -0.46145  -0.45491  -0.43843  -0.42553
 Alpha  occ. eigenvalues --   -0.42153  -0.37582  -0.34600  -0.32048  -0.30968
 Alpha  occ. eigenvalues --   -0.27555
 Alpha virt. eigenvalues --   -0.00269   0.04327   0.05425   0.05642   0.06086
 Alpha virt. eigenvalues --    0.06682   0.07044   0.07495   0.08451   0.08891
 Alpha virt. eigenvalues --    0.09119   0.09636   0.09904   0.10388   0.10520

 Mulliken charges:
               1
     1  C   -0.726054
     2  C    0.731864
     3  C    0.119145
     4  C    0.363327
     5  S   -0.511353
     6  H    0.184913
     7  C    0.065311
     8  S   -0.583727
     9  C    0.374230
    10  C    0.249115
    11  C    0.037535
    12  H    0.153030
    13  S   -0.454849
    14  C   -0.146035
    15  C   -0.347987
    16  H    0.194984
    17  H    0.163333
    18  H    0.138048
    19  O   -0.269608
    20  H    0.264776
 Sum of Mulliken charges =  -0.00000

 Dipole moment (field-independent basis, Debye):
    X=             -1.2777    Y=              1.3844    Z=              0.2625  Tot=              1.9021
 Quadrupole moment (field-independent basis, Debye-Ang):
   XX=            -96.4535   YY=            -90.5443   ZZ=           -107.8322
   XY=              5.8010   XZ=              0.3090   YZ=              1.0678

 Normal termination of Gaussian 16 at Tue Oct 26 22:16:01 2021.
