 Gaussian 16, Revision C.01,
 Gaussian 16:  ES64L-G16RevC.01  3-Jul-2019

 --------------------------------------
 # opt=modredundant wb97xd/6-311+g(d,p)
 --------------------------------------

 ----------------
 pg2T_TT_-155.pdb
 ----------------
 Symbolic Z-matrix:
 Charge =  0 Multiplicity = 1

 SCF Done:  E(RwB97XD) =  -1654.22443636     A.U. after   19 cycles
 SCF Done:  E(RwB97XD) =  -1654.29469302     A.U. after   15 cycles
 SCF Done:  E(RwB97XD) =  -1654.38334534     A.U. after   16 cycles
 SCF Done:  E(RwB97XD) =  -1654.39925251     A.U. after   15 cycles
 SCF Done:  E(RwB97XD) =  -1654.40842727     A.U. after   15 cycles
 SCF Done:  E(RwB97XD) =  -1654.40984914     A.U. after   15 cycles
 SCF Done:  E(RwB97XD) =  -1654.41093372     A.U. after   14 cycles
 SCF Done:  E(RwB97XD) =  -1654.41084566     A.U. after   14 cycles
 SCF Done:  E(RwB97XD) =  -1654.41119667     A.U. after   13 cycles
 SCF Done:  E(RwB97XD) =  -1654.41120974     A.U. after   13 cycles
 SCF Done:  E(RwB97XD) =  -1654.41121991     A.U. after   12 cycles
 SCF Done:  E(RwB97XD) =  -1654.41122477     A.U. after   11 cycles
 SCF Done:  E(RwB97XD) =  -1654.41122481     A.U. after   10 cycles
 Optimization completed.
    -- Stationary point found.

                         Standard orientation:
 ---------------------------------------------------------------------
 Center     Atomic      Atomic             Coordinates (Angstroms)
 Number     Number       Type             X           Y           Z
 ---------------------------------------------------------------------
      1          6           0        3.747292    0.762177    0.115348
      2          6           0        2.364889    1.066078    0.270287
      3          6           0        1.556185   -0.008998    0.019159
      4          6           0        3.973721   -0.531228   -0.246007
      5         16           0        2.494441   -1.395540   -0.423534
      6          1           0        4.924494   -1.012080   -0.410912
      7          6           0        0.101295   -0.031556    0.034270
      8         16           0       -0.775719   -1.519140    0.337014
      9          6           0       -2.290612   -0.699912    0.170335
     10          6           0       -2.099333    0.643152   -0.089262
     11          6           0       -0.734916    1.028244   -0.178264
     12          1           0       -0.382122    2.021810   -0.416980
     13         16           0       -3.616592    1.459980   -0.256733
     14          6           0       -4.475795   -0.022638    0.028684
     15          6           0       -3.658766   -1.088467    0.239922
     16          1           0       -5.555461   -0.015048    0.023603
     17          1           0       -4.015337   -2.090215    0.433254
     18          1           0        1.987154    2.030609    0.587049
     19          8           0        4.762199    1.643541    0.313397
     20          1           0        4.405844    2.490686    0.582007
 ---------------------------------------------------------------------

 The electronic state is 1-A.
 Alpha  occ. eigenvalues --  -89.05514 -89.05448 -89.05277 -19.28863 -10.35876
 Alpha  occ. eigenvalues --  -10.34327 -10.34145 -10.32858 -10.32794 -10.32676
 Alpha  occ. eigenvalues --  -10.30992 -10.30867 -10.30849 -10.30275  -8.09563
 Alpha  occ. eigenvalues --   -8.09493  -8.09343  -6.04421  -6.04342  -6.04185
 Alpha  occ. eigenvalues --   -6.04048  -6.03968  -6.03801  -6.03603  -6.03554
 Alpha  occ. eigenvalues --   -6.03428  -1.17945  -1.02705  -0.99964  -0.95698
 Alpha  occ. eigenvalues --   -0.87713  -0.86251  -0.84360  -0.81426  -0.80374
 Alpha  occ. eigenvalues --   -0.72527  -0.68184  -0.66968  -0.64225  -0.63906
 Alpha  occ. eigenvalues --   -0.62737  -0.59069  -0.57132  -0.52505  -0.52465
 Alpha  occ. eigenvalues --   -0.52050  -0.51067  -0.49681  -0.48404  -0.47660
 Alpha  occ. eigenvalues --   -0.46217  -0.45958  -0.45346  -0.43815  -0.42589
 Alpha  occ. eigenvalues --   -0.42221  -0.37498  -0.34471  -0.31937  -0.31026
 Alpha  occ. eigenvalues --   -0.27741
 Alpha virt. eigenvalues --   -0.00027   0.04436   0.05342   0.05655   0.06095
 Alpha virt. eigenvalues --    0.06751   0.07043   0.07509   0.08177   0.08922
 Alpha virt. eigenvalues --    0.09118   0.09612   0.09781   0.10338   0.10436

 Mulliken charges:
               1
     1  C   -0.740431
     2  C    0.552270
     3  C    0.194246
     4  C    0.355888
     5  S   -0.458294
     6  H    0.185495
     7  C    0.215906
     8  S   -0.555339
     9  C    0.392408
    10  C    0.174127
    11  C   -0.008341
    12  H    0.156893
    13  S   -0.450133
    14  C   -0.139909
    15  C   -0.370053
    16  H    0.194833
    17  H    0.163446
    18  H    0.142187
    19  O   -0.269430
    20  H    0.264233
 Sum of Mulliken charges =  -0.00000

 Dipole moment (field-independent basis, Debye):
    X=             -1.2663    Y=              1.3518    Z=              0.4195  Tot=              1.8992
 Quadrupole moment (field-independent basis, Debye-Ang):
   XX=            -96.4740   YY=            -91.2064   ZZ=           -107.1580
   XY=              5.7043   XZ=              0.2797   YZ=              1.4470

 Normal termination of Gaussian 16 at Tue Oct 26 22:09:44 2021.
