 Gaussian 16, Revision C.01,
 Gaussian 16:  ES64L-G16RevC.01  3-Jul-2019

 --------------------------------------
 # opt=modredundant wb97xd/6-311+g(d,p)
 --------------------------------------

 --------------
 pg2T_TT_45.pdb
 --------------
 Symbolic Z-matrix:
 Charge =  0 Multiplicity = 1

 SCF Done:  E(RwB97XD) =  -1654.22555079     A.U. after   19 cycles
 SCF Done:  E(RwB97XD) =  -1654.29587354     A.U. after   15 cycles
 SCF Done:  E(RwB97XD) =  -1654.38468667     A.U. after   16 cycles
 SCF Done:  E(RwB97XD) =  -1654.40055240     A.U. after   15 cycles
 SCF Done:  E(RwB97XD) =  -1654.40961936     A.U. after   17 cycles
 SCF Done:  E(RwB97XD) =  -1654.41100101     A.U. after   15 cycles
 SCF Done:  E(RwB97XD) =  -1654.41207203     A.U. after   15 cycles
 SCF Done:  E(RwB97XD) =  -1654.41195775     A.U. after   15 cycles
 SCF Done:  E(RwB97XD) =  -1654.41236517     A.U. after   13 cycles
 SCF Done:  E(RwB97XD) =  -1654.41237659     A.U. after   13 cycles
 SCF Done:  E(RwB97XD) =  -1654.41238142     A.U. after   12 cycles
 SCF Done:  E(RwB97XD) =  -1654.41238793     A.U. after   12 cycles
 SCF Done:  E(RwB97XD) =  -1654.41238810     A.U. after   10 cycles
 Optimization completed.
    -- Stationary point found.

                         Standard orientation:
 ---------------------------------------------------------------------
 Center     Atomic      Atomic             Coordinates (Angstroms)
 Number     Number       Type             X           Y           Z
 ---------------------------------------------------------------------
      1          6           0        3.808438    0.375189    0.308613
      2          6           0        2.463523    0.821087    0.457953
      3          6           0        1.553914   -0.089177   -0.004209
      4          6           0        3.902716   -0.861804   -0.253778
      5         16           0        2.345358   -1.494343   -0.630512
      6          1           0        4.800742   -1.419029   -0.467692
      7          6           0        0.100274    0.006478    0.006090
      8         16           0       -0.674568    1.498920   -0.488344
      9          6           0       -2.240908    0.814547   -0.216172
     10          6           0       -2.138398   -0.496918    0.205538
     11          6           0       -0.801817   -0.963780    0.335018
     12          1           0       -0.512748   -1.948996    0.674276
     13         16           0       -3.705057   -1.180965    0.477903
     14          6           0       -4.465149    0.310942    0.016885
     15          6           0       -3.580859    1.284995   -0.325604
     16          1           0       -5.542794    0.377660    0.025353
     17          1           0       -3.871625    2.277448   -0.639547
     18          1           0        2.180168    1.762841    0.912796
     19          8           0        4.905857    1.079375    0.690547
     20          1           0        4.637253    1.927932    1.043701
 ---------------------------------------------------------------------

 The electronic state is 1-A.
 Alpha  occ. eigenvalues --  -89.05510 -89.05400 -89.05261 -19.28810 -10.35837
 Alpha  occ. eigenvalues --  -10.34205 -10.34034 -10.32813 -10.32750 -10.32655
 Alpha  occ. eigenvalues --  -10.30931 -10.30845 -10.30830 -10.30276  -8.09552
 Alpha  occ. eigenvalues --   -8.09444  -8.09320  -6.04409  -6.04293  -6.04159
 Alpha  occ. eigenvalues --   -6.04037  -6.03919  -6.03776  -6.03595  -6.03507
 Alpha  occ. eigenvalues --   -6.03408  -1.17892  -1.02648  -0.99926  -0.95666
 Alpha  occ. eigenvalues --   -0.87538  -0.86298  -0.84272  -0.81420  -0.80358
 Alpha  occ. eigenvalues --   -0.72445  -0.67916  -0.67053  -0.64621  -0.63689
 Alpha  occ. eigenvalues --   -0.62446  -0.58923  -0.57085  -0.52493  -0.52436
 Alpha  occ. eigenvalues --   -0.52048  -0.50965  -0.50168  -0.48138  -0.47849
 Alpha  occ. eigenvalues --   -0.46235  -0.45504  -0.45052  -0.43633  -0.42581
 Alpha  occ. eigenvalues --   -0.42422  -0.37377  -0.34171  -0.31722  -0.31037
 Alpha  occ. eigenvalues --   -0.28225
 Alpha virt. eigenvalues --    0.00534   0.04835   0.05115   0.05512   0.06074
 Alpha virt. eigenvalues --    0.06794   0.07398   0.07514   0.07641   0.08526
 Alpha virt. eigenvalues --    0.09119   0.09447   0.09795   0.09979   0.10152

 Mulliken charges:
               1
     1  C   -0.735832
     2  C    0.234904
     3  C    0.365818
     4  C    0.314712
     5  S   -0.359411
     6  H    0.187343
     7  C    0.469859
     8  S   -0.483923
     9  C    0.422520
    10  C    0.030418
    11  C   -0.183493
    12  H    0.174618
    13  S   -0.447255
    14  C   -0.144516
    15  C   -0.350084
    16  H    0.194476
    17  H    0.163138
    18  H    0.153656
    19  O   -0.271219
    20  H    0.264270
 Sum of Mulliken charges =  -0.00000

 Dipole moment (field-independent basis, Debye):
    X=             -1.1110    Y=              1.4301    Z=              0.6480  Tot=              1.9233
 Quadrupole moment (field-independent basis, Debye-Ang):
   XX=            -96.3718   YY=            -92.6553   ZZ=           -105.6044
   XY=              0.0570   XZ=              2.2148   YZ=              1.7430

 Normal termination of Gaussian 16 at Wed Oct 27 00:04:27 2021.
