 Gaussian 16, Revision C.01,
 Gaussian 16:  ES64L-G16RevC.01  3-Jul-2019

 --------------------------------------
 # opt=modredundant wb97xd/6-311+g(d,p)
 --------------------------------------

 ---------------
 pg2T_TT_105.pdb
 ---------------
 Symbolic Z-matrix:
 Charge =  0 Multiplicity = 1

 SCF Done:  E(RwB97XD) =  -1654.22334969     A.U. after   18 cycles
 SCF Done:  E(RwB97XD) =  -1654.29367635     A.U. after   16 cycles
 SCF Done:  E(RwB97XD) =  -1654.38243496     A.U. after   16 cycles
 SCF Done:  E(RwB97XD) =  -1654.39835637     A.U. after   15 cycles
 SCF Done:  E(RwB97XD) =  -1654.40742110     A.U. after   16 cycles
 SCF Done:  E(RwB97XD) =  -1654.40883715     A.U. after   15 cycles
 SCF Done:  E(RwB97XD) =  -1654.40990752     A.U. after   14 cycles
 SCF Done:  E(RwB97XD) =  -1654.40973382     A.U. after   14 cycles
 SCF Done:  E(RwB97XD) =  -1654.41015594     A.U. after   13 cycles
 SCF Done:  E(RwB97XD) =  -1654.41016005     A.U. after   13 cycles
 SCF Done:  E(RwB97XD) =  -1654.41018267     A.U. after   13 cycles
 SCF Done:  E(RwB97XD) =  -1654.41018664     A.U. after   12 cycles
 SCF Done:  E(RwB97XD) =  -1654.41018671     A.U. after   10 cycles
 Optimization completed.
    -- Stationary point found.

                         Standard orientation:
 ---------------------------------------------------------------------
 Center     Atomic      Atomic             Coordinates (Angstroms)
 Number     Number       Type             X           Y           Z
 ---------------------------------------------------------------------
      1          6           0        3.760810    0.583883   -0.388660
      2          6           0        2.381168    0.797351   -0.676448
      3          6           0        1.558065    0.019832    0.086877
      4          6           0        3.964224   -0.355995    0.576003
      5         16           0        2.471915   -0.989230    1.155389
      6          1           0        4.908628   -0.697406    0.969209
      7          6           0        0.094938   -0.025692    0.044993
      8         16           0       -0.729893   -1.378447   -0.705271
      9          6           0       -2.268977   -0.649678   -0.401640
     10          6           0       -2.122148    0.569778    0.230907
     11          6           0       -0.770296    0.930035    0.488012
     12          1           0       -0.441213    1.834843    0.979851
     13         16           0       -3.663561    1.296920    0.535783
     14          6           0       -4.473759   -0.054253   -0.194972
     15          6           0       -3.624549   -1.013578   -0.648495
     16          1           0       -5.552337   -0.056705   -0.245974
     17          1           0       -3.949188   -1.924804   -1.130498
     18          1           0        2.008176    1.488672   -1.422327
     19          8           0        4.790729    1.230594   -0.995914
     20          1           0        4.447876    1.832650   -1.656815
 ---------------------------------------------------------------------

 The electronic state is 1-A.
 Alpha  occ. eigenvalues --  -89.05384 -89.05359 -89.05141 -19.28790 -10.35760
 Alpha  occ. eigenvalues --  -10.34005 -10.33843 -10.32755 -10.32675 -10.32653
 Alpha  occ. eigenvalues --  -10.30970 -10.30832 -10.30804 -10.30329  -8.09429
 Alpha  occ. eigenvalues --   -8.09396  -8.09198  -6.04278  -6.04250  -6.04032
 Alpha  occ. eigenvalues --   -6.03904  -6.03877  -6.03650  -6.03492  -6.03446
 Alpha  occ. eigenvalues --   -6.03294  -1.17852  -1.02549  -0.99825  -0.95590
 Alpha  occ. eigenvalues --   -0.87481  -0.86092  -0.84131  -0.81400  -0.80346
 Alpha  occ. eigenvalues --   -0.72305  -0.67863  -0.66883  -0.64219  -0.63426
 Alpha  occ. eigenvalues --   -0.63111  -0.58889  -0.57070  -0.52414  -0.52284
 Alpha  occ. eigenvalues --   -0.51968  -0.50754  -0.50349  -0.48255  -0.47781
 Alpha  occ. eigenvalues --   -0.46018  -0.45463  -0.44384  -0.43762  -0.42512
 Alpha  occ. eigenvalues --   -0.42402  -0.37217  -0.33574  -0.31222  -0.30811
 Alpha  occ. eigenvalues --   -0.29365
 Alpha virt. eigenvalues --    0.01699   0.03751   0.04973   0.05563   0.06088
 Alpha virt. eigenvalues --    0.06888   0.06991   0.07393   0.07542   0.08570
 Alpha virt. eigenvalues --    0.08976   0.09309   0.09848   0.10024   0.10316

 Mulliken charges:
               1
     1  C   -0.665754
     2  C    0.267168
     3  C    0.070631
     4  C    0.303282
     5  S   -0.225199
     6  H    0.187202
     7  C   -0.225839
     8  S   -0.540858
     9  C    0.254571
    10  C   -0.416062
    11  C    0.687063
    12  H    0.165990
    13  S   -0.422885
    14  C   -0.200564
    15  C    0.265752
    16  H    0.194508
    17  H    0.163567
    18  H    0.147916
    19  O   -0.277177
    20  H    0.266689
 Sum of Mulliken charges =  -0.00000

 Dipole moment (field-independent basis, Debye):
    X=             -1.2123    Y=              1.0089    Z=             -1.1654  Tot=              1.9610
 Quadrupole moment (field-independent basis, Debye-Ang):
   XX=            -96.8349   YY=            -97.1286   ZZ=           -100.9581
   XY=              4.6095   XZ=             -0.2301   YZ=             -2.1755

 Normal termination of Gaussian 16 at Wed Oct 27 01:04:08 2021.
