 Gaussian 16, Revision C.01,
 Gaussian 16:  ES64L-G16RevC.01  3-Jul-2019

 --------------------------------------
 # opt=modredundant wb97xd/6-311+g(d,p)
 --------------------------------------

 ---------------
 pg2T_TT_170.pdb
 ---------------
 Symbolic Z-matrix:
 Charge =  0 Multiplicity = 1

 SCF Done:  E(RwB97XD) =  -1654.22467122     A.U. after   19 cycles
 SCF Done:  E(RwB97XD) =  -1654.29479424     A.U. after   16 cycles
 SCF Done:  E(RwB97XD) =  -1654.38326033     A.U. after   17 cycles
 SCF Done:  E(RwB97XD) =  -1654.39888547     A.U. after   16 cycles
 SCF Done:  E(RwB97XD) =  -1654.40770088     A.U. after   15 cycles
 SCF Done:  E(RwB97XD) =  -1654.40901583     A.U. after   15 cycles
 SCF Done:  E(RwB97XD) =  -1654.41006686     A.U. after   14 cycles
 SCF Done:  E(RwB97XD) =  -1654.41003731     A.U. after   14 cycles
 SCF Done:  E(RwB97XD) =  -1654.41029975     A.U. after   14 cycles
 SCF Done:  E(RwB97XD) =  -1654.41033325     A.U. after   12 cycles
 SCF Done:  E(RwB97XD) =  -1654.41033431     A.U. after   12 cycles
 SCF Done:  E(RwB97XD) =  -1654.41034031     A.U. after   11 cycles
 SCF Done:  E(RwB97XD) =  -1654.41034048     A.U. after   10 cycles
 Optimization completed.
    -- Stationary point found.

                         Standard orientation:
 ---------------------------------------------------------------------
 Center     Atomic      Atomic             Coordinates (Angstroms)
 Number     Number       Type             X           Y           Z
 ---------------------------------------------------------------------
      1          6           0        3.747643    0.779874   -0.043575
      2          6           0        2.363723    1.100370   -0.129490
      3          6           0        1.556460   -0.001318   -0.029285
      4          6           0        3.979935   -0.551518    0.123092
      5         16           0        2.503478   -1.435079    0.189080
      6          1           0        4.932227   -1.049858    0.206501
      7          6           0        0.100955   -0.027423   -0.036182
      8         16           0       -0.776751   -1.540875   -0.158734
      9          6           0       -2.292335   -0.711356   -0.074399
     10          6           0       -2.102130    0.652145    0.033621
     11          6           0       -0.738724    1.047226    0.062453
     12          1           0       -0.393266    2.065711    0.170640
     13         16           0       -3.620157    1.480338    0.118819
     14          6           0       -4.477888   -0.026118    0.003711
     15          6           0       -3.659701   -1.107585   -0.092750
     16          1           0       -5.557503   -0.019643    0.014566
     17          1           0       -4.015080   -2.125143   -0.172013
     18          1           0        1.987527    2.104679   -0.281260
     19          8           0        4.759271    1.683495   -0.121488
     20          1           0        4.399174    2.560379   -0.256341
 ---------------------------------------------------------------------

 The electronic state is 1-A.
 Alpha  occ. eigenvalues --  -89.05531 -89.05463 -89.05301 -19.28870 -10.35890
 Alpha  occ. eigenvalues --  -10.34424 -10.34241 -10.32883 -10.32819 -10.32686
 Alpha  occ. eigenvalues --  -10.31012 -10.30887 -10.30859 -10.30279  -8.09586
 Alpha  occ. eigenvalues --   -8.09508  -8.09373  -6.04445  -6.04357  -6.04216
 Alpha  occ. eigenvalues --   -6.04072  -6.03984  -6.03830  -6.03621  -6.03569
 Alpha  occ. eigenvalues --   -6.03453  -1.17955  -1.02739  -0.99995  -0.95720
 Alpha  occ. eigenvalues --   -0.87758  -0.86281  -0.84414  -0.81424  -0.80393
 Alpha  occ. eigenvalues --   -0.72570  -0.68250  -0.67013  -0.64283  -0.63980
 Alpha  occ. eigenvalues --   -0.62660  -0.59124  -0.57146  -0.52538  -0.52510
 Alpha  occ. eigenvalues --   -0.52057  -0.51143  -0.49548  -0.48406  -0.47533
 Alpha  occ. eigenvalues --   -0.46284  -0.46242  -0.45545  -0.43854  -0.42538
 Alpha  occ. eigenvalues --   -0.42120  -0.37619  -0.34650  -0.32091  -0.30940
 Alpha  occ. eigenvalues --   -0.27486
 Alpha virt. eigenvalues --   -0.00361   0.04278   0.05451   0.05640   0.06080
 Alpha virt. eigenvalues --    0.06652   0.07040   0.07484   0.08576   0.08863
 Alpha virt. eigenvalues --    0.09113   0.09641   0.09975   0.10427   0.10554

 Mulliken charges:
               1
     1  C   -0.730830
     2  C    0.831504
     3  C    0.099810
     4  C    0.356877
     5  S   -0.539463
     6  H    0.184812
     7  C   -0.039658
     8  S   -0.600057
     9  C    0.363957
    10  C    0.270896
    11  C    0.083077
    12  H    0.151305
    13  S   -0.457210
    14  C   -0.150844
    15  C   -0.313542
    16  H    0.195131
    17  H    0.163270
    18  H    0.135939
    19  O   -0.270158
    20  H    0.265183
 Sum of Mulliken charges =  -0.00000

 Dipole moment (field-independent basis, Debye):
    X=             -1.2823    Y=              1.3971    Z=             -0.1883  Tot=              1.9057
 Quadrupole moment (field-independent basis, Debye-Ang):
   XX=            -96.4634   YY=            -90.2916   ZZ=           -108.0827
   XY=              5.8191   XZ=             -0.2999   YZ=             -0.8148

 Normal termination of Gaussian 16 at Wed Oct 27 01:37:55 2021.
