 Gaussian 16, Revision C.01,
 Gaussian 16:  ES64L-G16RevC.01  3-Jul-2019

 --------------------------------------
 # opt=modredundant wb97xd/6-311+g(d,p)
 --------------------------------------

 --------------
 pg2T_TT_15.pdb
 --------------
 Symbolic Z-matrix:
 Charge =  0 Multiplicity = 1

 SCF Done:  E(RwB97XD) =  -1654.22599877     A.U. after   19 cycles
 SCF Done:  E(RwB97XD) =  -1654.29619035     A.U. after   15 cycles
 SCF Done:  E(RwB97XD) =  -1654.38476888     A.U. after   16 cycles
 SCF Done:  E(RwB97XD) =  -1654.40042687     A.U. after   15 cycles
 SCF Done:  E(RwB97XD) =  -1654.40944725     A.U. after   16 cycles
 SCF Done:  E(RwB97XD) =  -1654.41081907     A.U. after   14 cycles
 SCF Done:  E(RwB97XD) =  -1654.41184841     A.U. after   14 cycles
 SCF Done:  E(RwB97XD) =  -1654.41184229     A.U. after   14 cycles
 SCF Done:  E(RwB97XD) =  -1654.41204446     A.U. after   14 cycles
 SCF Done:  E(RwB97XD) =  -1654.41208896     A.U. after   12 cycles
 SCF Done:  E(RwB97XD) =  -1654.41208774     A.U. after   12 cycles
 SCF Done:  E(RwB97XD) =  -1654.41209195     A.U. after   11 cycles
 SCF Done:  E(RwB97XD) =  -1654.41209324     A.U. after   11 cycles
 Optimization completed.
    -- Stationary point found.

                         Standard orientation:
 ---------------------------------------------------------------------
 Center     Atomic      Atomic             Coordinates (Angstroms)
 Number     Number       Type             X           Y           Z
 ---------------------------------------------------------------------
      1          6           0       -3.813345    0.415791   -0.119113
      2          6           0       -2.470198    0.887307   -0.172488
      3          6           0       -1.550757   -0.112391   -0.006655
      4          6           0       -3.901183   -0.926468    0.088306
      5         16           0       -2.337778   -1.636729    0.237505
      6          1           0       -4.794951   -1.524928    0.161636
      7          6           0       -0.100844   -0.006398    0.011606
      8         16           0        0.656865    1.564701    0.199834
      9          6           0        2.232728    0.857621    0.085042
     10          6           0        2.147507   -0.510932   -0.076400
     11          6           0        0.817748   -1.008597   -0.125881
     12          1           0        0.549946   -2.046226   -0.272386
     13         16           0        3.723647   -1.217161   -0.188190
     14          6           0        4.463928    0.344055   -0.013249
     15          6           0        3.565702    1.355858    0.122985
     16          1           0        5.540915    0.420258   -0.020952
     17          1           0        3.842900    2.393503    0.243261
     18          1           0       -2.201892    1.922318   -0.349622
     19          8           0       -4.914847    1.197272   -0.265368
     20          1           0       -4.649600    2.108851   -0.390288
 ---------------------------------------------------------------------

 The electronic state is 1-A.
 Alpha  occ. eigenvalues --  -89.05566 -89.05466 -89.05248 -19.28840 -10.35875
 Alpha  occ. eigenvalues --  -10.34400 -10.34221 -10.32902 -10.32833 -10.32703
 Alpha  occ. eigenvalues --  -10.31001 -10.30910 -10.30873 -10.30310  -8.09620
 Alpha  occ. eigenvalues --   -8.09510  -8.09317  -6.04481  -6.04358  -6.04163
 Alpha  occ. eigenvalues --   -6.04110  -6.03984  -6.03779  -6.03653  -6.03572
 Alpha  occ. eigenvalues --   -6.03393  -1.17929  -1.02747  -0.99977  -0.95736
 Alpha  occ. eigenvalues --   -0.87651  -0.86441  -0.84362  -0.81442  -0.80405
 Alpha  occ. eigenvalues --   -0.72565  -0.68070  -0.67157  -0.64798  -0.63852
 Alpha  occ. eigenvalues --   -0.62212  -0.59010  -0.57119  -0.52580  -0.52514
 Alpha  occ. eigenvalues --   -0.52120  -0.51130  -0.49962  -0.48102  -0.47847
 Alpha  occ. eigenvalues --   -0.46401  -0.45803  -0.45589  -0.43554  -0.42588
 Alpha  occ. eigenvalues --   -0.42379  -0.37508  -0.34727  -0.31807  -0.31249
 Alpha  occ. eigenvalues --   -0.27534
 Alpha virt. eigenvalues --   -0.00296   0.04815   0.05423   0.05556   0.06034
 Alpha virt. eigenvalues --    0.06716   0.07512   0.07666   0.08260   0.08521
 Alpha virt. eigenvalues --    0.08994   0.09408   0.10034   0.10149   0.10206

 Mulliken charges:
               1
     1  C   -0.762998
     2  C    0.855092
     3  C    0.086990
     4  C    0.319067
     5  S   -0.546204
     6  H    0.186308
     7  C    0.025411
     8  S   -0.626287
     9  C    0.268787
    10  C    0.310852
    11  C    0.143997
    12  H    0.169109
    13  S   -0.463455
    14  C   -0.140839
    15  C   -0.323761
    16  H    0.194867
    17  H    0.162442
    18  H    0.148022
    19  O   -0.272162
    20  H    0.264760
 Sum of Mulliken charges =  -0.00000

 Dipole moment (field-independent basis, Debye):
    X=              1.1529    Y=              1.5392    Z=             -0.2653  Tot=              1.9413
 Quadrupole moment (field-independent basis, Debye-Ang):
   XX=            -96.1381   YY=            -90.5200   ZZ=           -107.9699
   XY=             -0.3525   XZ=              0.7644   YZ=             -0.6684

 Normal termination of Gaussian 16 at Wed Oct 27 00:11:46 2021.
