 Gaussian 16, Revision C.01,
 Gaussian 16:  ES64L-G16RevC.01  3-Jul-2019

 --------------------------------------
 # opt=modredundant wb97xd/6-311+g(d,p)
 --------------------------------------

 ---------------
 pg2T_TT_145.pdb
 ---------------
 Symbolic Z-matrix:
 Charge =  0 Multiplicity = 1

 SCF Done:  E(RwB97XD) =  -1654.22525720     A.U. after   19 cycles
 SCF Done:  E(RwB97XD) =  -1654.29551226     A.U. after   16 cycles
 SCF Done:  E(RwB97XD) =  -1654.38417301     A.U. after   16 cycles
 SCF Done:  E(RwB97XD) =  -1654.39999139     A.U. after   16 cycles
 SCF Done:  E(RwB97XD) =  -1654.40892912     A.U. after   16 cycles
 SCF Done:  E(RwB97XD) =  -1654.41031915     A.U. after   15 cycles
 SCF Done:  E(RwB97XD) =  -1654.41133941     A.U. after   14 cycles
 SCF Done:  E(RwB97XD) =  -1654.41130690     A.U. after   14 cycles
 SCF Done:  E(RwB97XD) =  -1654.41152607     A.U. after   14 cycles
 SCF Done:  E(RwB97XD) =  -1654.41156755     A.U. after   12 cycles
 SCF Done:  E(RwB97XD) =  -1654.41157208     A.U. after   12 cycles
 SCF Done:  E(RwB97XD) =  -1654.41157717     A.U. after   11 cycles
 SCF Done:  E(RwB97XD) =  -1654.41157748     A.U. after   10 cycles
 Optimization completed.
    -- Stationary point found.

                         Standard orientation:
 ---------------------------------------------------------------------
 Center     Atomic      Atomic             Coordinates (Angstroms)
 Number     Number       Type             X           Y           Z
 ---------------------------------------------------------------------
      1          6           0        3.746282    0.746304   -0.167221
      2          6           0        2.362899    1.037186   -0.341792
      3          6           0        1.555874   -0.010239    0.008164
      4          6           0        3.972954   -0.511623    0.302919
      5         16           0        2.494187   -1.356494    0.560716
      6          1           0        4.924581   -0.976604    0.504762
      7          6           0        0.100554   -0.035377   -0.009878
      8         16           0       -0.770756   -1.496958   -0.430281
      9          6           0       -2.287912   -0.689940   -0.227060
     10          6           0       -2.100604    0.631866    0.127805
     11          6           0       -0.737081    1.008923    0.261503
     12          1           0       -0.383844    1.982740    0.570750
     13         16           0       -3.620034    1.435963    0.332651
     14          6           0       -4.475101   -0.022366   -0.067196
     15          6           0       -3.655285   -1.071683   -0.340575
     16          1           0       -5.554750   -0.014188   -0.076299
     17          1           0       -4.009203   -2.057278   -0.607764
     18          1           0        1.980566    1.969058   -0.740516
     19          8           0        4.761108    1.606135   -0.444966
     20          1           0        4.403945    2.428710   -0.780588
 ---------------------------------------------------------------------

 The electronic state is 1-A.
 Alpha  occ. eigenvalues --  -89.05496 -89.05433 -89.05258 -19.28853 -10.35859
 Alpha  occ. eigenvalues --  -10.34255 -10.34080 -10.32834 -10.32771 -10.32667
 Alpha  occ. eigenvalues --  -10.30975 -10.30851 -10.30844 -10.30284  -8.09542
 Alpha  occ. eigenvalues --   -8.09478  -8.09321  -6.04398  -6.04327  -6.04161
 Alpha  occ. eigenvalues --   -6.04026  -6.03953  -6.03777  -6.03583  -6.03540
 Alpha  occ. eigenvalues --   -6.03408  -1.17931  -1.02676  -0.99940  -0.95679
 Alpha  occ. eigenvalues --   -0.87672  -0.86224  -0.84317  -0.81425  -0.80364
 Alpha  occ. eigenvalues --   -0.72489  -0.68127  -0.66938  -0.64194  -0.63837
 Alpha  occ. eigenvalues --   -0.62805  -0.59028  -0.57123  -0.52493  -0.52417
 Alpha  occ. eigenvalues --   -0.52036  -0.51015  -0.49799  -0.48387  -0.47712
 Alpha  occ. eigenvalues --   -0.46163  -0.45817  -0.45159  -0.43778  -0.42620
 Alpha  occ. eigenvalues --   -0.42285  -0.37415  -0.34319  -0.31809  -0.31066
 Alpha  occ. eigenvalues --   -0.27974
 Alpha virt. eigenvalues --    0.00265   0.04531   0.05223   0.05662   0.06103
 Alpha virt. eigenvalues --    0.06817   0.07031   0.07515   0.07907   0.08899
 Alpha virt. eigenvalues --    0.09123   0.09574   0.09702   0.10300   0.10356

 Mulliken charges:
               1
     1  C   -0.750209
     2  C    0.413414
     3  C    0.278350
     4  C    0.335176
     5  S   -0.412933
     6  H    0.186142
     7  C    0.308096
     8  S   -0.529410
     9  C    0.405374
    10  C    0.117062
    11  C   -0.051089
    12  H    0.160121
    13  S   -0.446766
    14  C   -0.136521
    15  C   -0.373879
    16  H    0.194734
    17  H    0.163569
    18  H    0.144976
    19  O   -0.270312
    20  H    0.264105
 Sum of Mulliken charges =  -0.00000

 Dipole moment (field-independent basis, Debye):
    X=             -1.2564    Y=              1.3182    Z=             -0.5602  Tot=              1.9053
 Quadrupole moment (field-independent basis, Debye-Ang):
   XX=            -96.5556   YY=            -91.9926   ZZ=           -106.3343
   XY=              5.5426   XZ=             -0.1007   YZ=             -1.6497

 Normal termination of Gaussian 16 at Wed Oct 27 01:22:33 2021.
