 Gaussian 16, Revision C.01,
 Gaussian 16:  ES64L-G16RevC.01  3-Jul-2019

 --------------------------------------
 # opt=modredundant wb97xd/6-311+g(d,p)
 --------------------------------------

 ---------------
 pg2T_TT_-25.pdb
 ---------------
 Symbolic Z-matrix:
 Charge =  0 Multiplicity = 1

 SCF Done:  E(RwB97XD) =  -1654.22690905     A.U. after   19 cycles
 SCF Done:  E(RwB97XD) =  -1654.29701236     A.U. after   15 cycles
 SCF Done:  E(RwB97XD) =  -1654.38540208     A.U. after   16 cycles
 SCF Done:  E(RwB97XD) =  -1654.40092572     A.U. after   15 cycles
 SCF Done:  E(RwB97XD) =  -1654.40982138     A.U. after   17 cycles
 SCF Done:  E(RwB97XD) =  -1654.41125019     A.U. after   15 cycles
 SCF Done:  E(RwB97XD) =  -1654.41223540     A.U. after   14 cycles
 SCF Done:  E(RwB97XD) =  -1654.41236121     A.U. after   13 cycles
 SCF Done:  E(RwB97XD) =  -1654.41237992     A.U. after   13 cycles
 SCF Done:  E(RwB97XD) =  -1654.41244154     A.U. after   13 cycles
 SCF Done:  E(RwB97XD) =  -1654.41244280     A.U. after   11 cycles
 SCF Done:  E(RwB97XD) =  -1654.41244321     A.U. after   11 cycles
 SCF Done:  E(RwB97XD) =  -1654.41244355     A.U. after   10 cycles
 Optimization completed.
    -- Stationary point found.

                         Standard orientation:
 ---------------------------------------------------------------------
 Center     Atomic      Atomic             Coordinates (Angstroms)
 Number     Number       Type             X           Y           Z
 ---------------------------------------------------------------------
      1          6           0       -3.810101    0.408207    0.188292
      2          6           0       -2.465741    0.871847    0.272998
      3          6           0       -1.551006   -0.109529    0.004807
      4          6           0       -3.902196   -0.909156   -0.142655
      5         16           0       -2.341759   -1.602369   -0.376560
      6          1           0       -4.798272   -1.496592   -0.262718
      7          6           0       -0.100465   -0.007295   -0.010396
      8         16           0        0.659491    1.544310   -0.310629
      9          6           0        2.233570    0.846051   -0.134422
     10          6           0        2.145494   -0.507937    0.122492
     11          6           0        0.814499   -0.999462    0.201088
     12          1           0        0.541516   -2.021816    0.424545
     13         16           0        3.719887   -1.205620    0.296290
     14          6           0        4.463469    0.338696    0.016733
     15          6           0        3.567816    1.339101   -0.197156
     16          1           0        5.540504    0.414184    0.026110
     17          1           0        3.847387    2.365311   -0.388890
     18          1           0       -2.191039    1.882783    0.550254
     19          8           0       -4.909101    1.172894    0.418642
     20          1           0       -4.641252    2.068704    0.625250
 ---------------------------------------------------------------------

 The electronic state is 1-A.
 Alpha  occ. eigenvalues --  -89.05559 -89.05446 -89.05256 -19.28832 -10.35865
 Alpha  occ. eigenvalues --  -10.34341 -10.34166 -10.32875 -10.32810 -10.32688
 Alpha  occ. eigenvalues --  -10.30974 -10.30891 -10.30855 -10.30290  -8.09609
 Alpha  occ. eigenvalues --   -8.09490  -8.09321  -6.04469  -6.04339  -6.04164
 Alpha  occ. eigenvalues --   -6.04098  -6.03965  -6.03780  -6.03646  -6.03553
 Alpha  occ. eigenvalues --   -6.03401  -1.17919  -1.02721  -0.99962  -0.95718
 Alpha  occ. eigenvalues --   -0.87618  -0.86402  -0.84335  -0.81438  -0.80388
 Alpha  occ. eigenvalues --   -0.72532  -0.68022  -0.67126  -0.64745  -0.63803
 Alpha  occ. eigenvalues --   -0.62271  -0.58983  -0.57111  -0.52553  -0.52492
 Alpha  occ. eigenvalues --   -0.52097  -0.51082  -0.50023  -0.48096  -0.47874
 Alpha  occ. eigenvalues --   -0.46364  -0.45588  -0.45521  -0.43588  -0.42592
 Alpha  occ. eigenvalues --   -0.42403  -0.37472  -0.34564  -0.31770  -0.31225
 Alpha  occ. eigenvalues --   -0.27712
 Alpha virt. eigenvalues --   -0.00069   0.04847   0.05365   0.05544   0.06054
 Alpha virt. eigenvalues --    0.06740   0.07518   0.07630   0.08012   0.08539
 Alpha virt. eigenvalues --    0.09036   0.09432   0.09963   0.10099   0.10155

 Mulliken charges:
               1
     1  C   -0.784012
     2  C    0.678360
     3  C    0.161146
     4  C    0.350195
     5  S   -0.493685
     6  H    0.186353
     7  C    0.159525
     8  S   -0.588858
     9  C    0.373719
    10  C    0.188691
    11  C    0.033616
    12  H    0.170638
    13  S   -0.458298
    14  C   -0.137113
    15  C   -0.341106
    16  H    0.194721
    17  H    0.162698
    18  H    0.150358
    19  O   -0.271306
    20  H    0.264359
 Sum of Mulliken charges =  -0.00000

 Dipole moment (field-independent basis, Debye):
    X=              1.1425    Y=              1.5168    Z=              0.4137  Tot=              1.9435
 Quadrupole moment (field-independent basis, Debye-Ang):
   XX=            -96.2311   YY=            -91.0520   ZZ=           -107.3568
   XY=             -0.2334   XZ=             -1.2859   YZ=              1.0739

 Normal termination of Gaussian 16 at Tue Oct 26 23:28:53 2021.
