 Gaussian 16, Revision C.01,
 Gaussian 16:  ES64L-G16RevC.01  3-Jul-2019

 --------------------------------------
 # opt=modredundant wb97xd/6-311+g(d,p)
 --------------------------------------

 --------------
 pg2T_TT_80.pdb
 --------------
 Symbolic Z-matrix:
 Charge =  0 Multiplicity = 1

 SCF Done:  E(RwB97XD) =  -1654.22324137     A.U. after   18 cycles
 SCF Done:  E(RwB97XD) =  -1654.29359662     A.U. after   16 cycles
 SCF Done:  E(RwB97XD) =  -1654.38238588     A.U. after   16 cycles
 SCF Done:  E(RwB97XD) =  -1654.39821476     A.U. after   15 cycles
 SCF Done:  E(RwB97XD) =  -1654.40728556     A.U. after   15 cycles
 SCF Done:  E(RwB97XD) =  -1654.40869578     A.U. after   15 cycles
 SCF Done:  E(RwB97XD) =  -1654.40977923     A.U. after   14 cycles
 SCF Done:  E(RwB97XD) =  -1654.40959054     A.U. after   14 cycles
 SCF Done:  E(RwB97XD) =  -1654.41011707     A.U. after   13 cycles
 SCF Done:  E(RwB97XD) =  -1654.41012266     A.U. after   13 cycles
 SCF Done:  E(RwB97XD) =  -1654.41013626     A.U. after   13 cycles
 SCF Done:  E(RwB97XD) =  -1654.41014239     A.U. after   12 cycles
 Optimization completed.
    -- Stationary point found.

                         Standard orientation:
 ---------------------------------------------------------------------
 Center     Atomic      Atomic             Coordinates (Angstroms)
 Number     Number       Type             X           Y           Z
 ---------------------------------------------------------------------
      1          6           0        3.800982    0.182738    0.554296
      2          6           0        2.446190    0.487463    0.875306
      3          6           0        1.560346   -0.061832   -0.006513
      4          6           0        3.923115   -0.593913   -0.558191
      5         16           0        2.383346   -0.961318   -1.234023
      6          1           0        4.834167   -0.960337   -1.004151
      7          6           0        0.097281    0.019239    0.021130
      8         16           0       -0.710589    1.457998   -0.571045
      9          6           0       -2.260003    0.763556   -0.241608
     10          6           0       -2.129031   -0.508633    0.281405
     11          6           0       -0.781533   -0.939850    0.428056
     12          1           0       -0.465439   -1.898497    0.815561
     13         16           0       -3.680048   -1.202282    0.614206
     14          6           0       -4.472726    0.233834    0.043957
     15          6           0       -3.610974    1.196021   -0.378762
     16          1           0       -5.551506    0.279308    0.054541
     17          1           0       -3.923988    2.154742   -0.767289
     18          1           0        2.135815    1.082874    1.725872
     19          8           0        4.881333    0.599393    1.266311
     20          1           0        4.595077    1.164658    1.984329
 ---------------------------------------------------------------------

 The electronic state is 1-A.
 Alpha  occ. eigenvalues --  -89.05366 -89.05359 -89.05156 -19.28769 -10.35751
 Alpha  occ. eigenvalues --  -10.33990 -10.33824 -10.32746 -10.32666 -10.32646
 Alpha  occ. eigenvalues --  -10.30963 -10.30818 -10.30797 -10.30317  -8.09411
 Alpha  occ. eigenvalues --   -8.09396  -8.09210  -6.04260  -6.04249  -6.04044
 Alpha  occ. eigenvalues --   -6.03887  -6.03876  -6.03662  -6.03474  -6.03447
 Alpha  occ. eigenvalues --   -6.03307  -1.17832  -1.02539  -0.99822  -0.95582
 Alpha  occ. eigenvalues --   -0.87438  -0.86103  -0.84126  -0.81395  -0.80341
 Alpha  occ. eigenvalues --   -0.72287  -0.67772  -0.66935  -0.64380  -0.63462
 Alpha  occ. eigenvalues --   -0.62899  -0.58862  -0.57044  -0.52370  -0.52340
 Alpha  occ. eigenvalues --   -0.51975  -0.50685  -0.50484  -0.48205  -0.47790
 Alpha  occ. eigenvalues --   -0.46049  -0.45391  -0.44376  -0.43724  -0.42479
 Alpha  occ. eigenvalues --   -0.42385  -0.37237  -0.33470  -0.31432  -0.30348
 Alpha  occ. eigenvalues --   -0.29684
 Alpha virt. eigenvalues --    0.01860   0.03576   0.05032   0.05487   0.06053
 Alpha virt. eigenvalues --    0.06908   0.07031   0.07423   0.07510   0.08438
 Alpha virt. eigenvalues --    0.09013   0.09301   0.09749   0.10125   0.10152

 Mulliken charges:
               1
     1  C   -0.574332
     2  C    0.028675
     3  C    0.116195
     4  C    0.232988
     5  S   -0.146982
     6  H    0.187468
     7  C   -0.064855
     8  S   -0.506495
     9  C    0.303226
    10  C   -0.560329
    11  C    0.698671
    12  H    0.169371
    13  S   -0.420361
    14  C   -0.199721
    15  C    0.237089
    16  H    0.194398
    17  H    0.163485
    18  H    0.151022
    19  O   -0.276771
    20  H    0.267259
 Sum of Mulliken charges =  -0.00000

 Dipole moment (field-independent basis, Debye):
    X=             -1.1274    Y=              0.9358    Z=              1.2240  Tot=              1.9091
 Quadrupole moment (field-independent basis, Debye-Ang):
   XX=            -96.5193   YY=            -98.1758   ZZ=            -99.9327
   XY=             -0.9725   XZ=              3.7305   YZ=              2.3330

 Normal termination of Gaussian 16 at Wed Oct 27 00:33:00 2021.
