 Gaussian 16, Revision C.01,
 Gaussian 16:  ES64L-G16RevC.01  3-Jul-2019

 --------------------------------------
 # opt=modredundant wb97xd/6-311+g(d,p)
 --------------------------------------

 ---------------
 pg2T_TT_115.pdb
 ---------------
 Symbolic Z-matrix:
 Charge =  0 Multiplicity = 1

 SCF Done:  E(RwB97XD) =  -1654.22385462     A.U. after   18 cycles
 SCF Done:  E(RwB97XD) =  -1654.29418706     A.U. after   16 cycles
 SCF Done:  E(RwB97XD) =  -1654.38295613     A.U. after   16 cycles
 SCF Done:  E(RwB97XD) =  -1654.39892201     A.U. after   16 cycles
 SCF Done:  E(RwB97XD) =  -1654.40798031     A.U. after   16 cycles
 SCF Done:  E(RwB97XD) =  -1654.40940518     A.U. after   15 cycles
 SCF Done:  E(RwB97XD) =  -1654.41047800     A.U. after   14 cycles
 SCF Done:  E(RwB97XD) =  -1654.41035086     A.U. after   15 cycles
 SCF Done:  E(RwB97XD) =  -1654.41070038     A.U. after   13 cycles
 SCF Done:  E(RwB97XD) =  -1654.41071106     A.U. after   13 cycles
 SCF Done:  E(RwB97XD) =  -1654.41072959     A.U. after   13 cycles
 SCF Done:  E(RwB97XD) =  -1654.41073352     A.U. after   12 cycles
 SCF Done:  E(RwB97XD) =  -1654.41073359     A.U. after   10 cycles
 Optimization completed.
    -- Stationary point found.

                         Standard orientation:
 ---------------------------------------------------------------------
 Center     Atomic      Atomic             Coordinates (Angstroms)
 Number     Number       Type             X           Y           Z
 ---------------------------------------------------------------------
      1          6           0        3.751643    0.652725   -0.324202
      2          6           0        2.368022    0.899661   -0.561392
      3          6           0        1.556839    0.010083    0.083980
      4          6           0        3.970413   -0.423264    0.481604
      5         16           0        2.487378   -1.145259    0.975654
      6          1           0        4.920603   -0.817331    0.805345
      7          6           0        0.096007   -0.033605    0.050758
      8         16           0       -0.739304   -1.397892   -0.666059
      9          6           0       -2.273004   -0.652013   -0.375567
     10          6           0       -2.116499    0.582907    0.223663
     11          6           0       -0.761995    0.940195    0.469722
     12          1           0       -0.426436    1.852397    0.943150
     13         16           0       -3.652646    1.325777    0.516760
     14          6           0       -4.473564   -0.039836   -0.174416
     15          6           0       -3.631401   -1.015414   -0.606013
     16          1           0       -5.552337   -0.037613   -0.220811
     17          1           0       -3.963034   -1.937406   -1.062092
     18          1           0        1.984106    1.689794   -1.195125
     19          8           0        4.771650    1.388902   -0.838967
     20          1           0        4.418271    2.088298   -1.389231
 ---------------------------------------------------------------------

 The electronic state is 1-A.
 Alpha  occ. eigenvalues --  -89.05394 -89.05393 -89.05169 -19.28806 -10.35784
 Alpha  occ. eigenvalues --  -10.34057 -10.33896 -10.32766 -10.32696 -10.32652
 Alpha  occ. eigenvalues --  -10.30963 -10.30837 -10.30811 -10.30325  -8.09437
 Alpha  occ. eigenvalues --   -8.09432  -8.09227  -6.04286  -6.04286  -6.04062
 Alpha  occ. eigenvalues --   -6.03914  -6.03913  -6.03680  -6.03500  -6.03480
 Alpha  occ. eigenvalues --   -6.03321  -1.17872  -1.02575  -0.99854  -0.95608
 Alpha  occ. eigenvalues --   -0.87524  -0.86122  -0.84172  -0.81405  -0.80349
 Alpha  occ. eigenvalues --   -0.72348  -0.67929  -0.66882  -0.64188  -0.63535
 Alpha  occ. eigenvalues --   -0.63047  -0.58915  -0.57088  -0.52442  -0.52296
 Alpha  occ. eigenvalues --   -0.51983  -0.50833  -0.50203  -0.48290  -0.47773
 Alpha  occ. eigenvalues --   -0.46034  -0.45534  -0.44557  -0.43728  -0.42569
 Alpha  occ. eigenvalues --   -0.42391  -0.37239  -0.33759  -0.31327  -0.31003
 Alpha  occ. eigenvalues --   -0.28946
 Alpha virt. eigenvalues --    0.01312   0.04151   0.04930   0.05604   0.06100
 Alpha virt. eigenvalues --    0.06911   0.06966   0.07421   0.07555   0.08656
 Alpha virt. eigenvalues --    0.09032   0.09354   0.09805   0.10058   0.10314

 Mulliken charges:
               1
     1  C   -0.696000
     2  C    0.300413
     3  C    0.107826
     4  C    0.301403
     5  S   -0.264609
     6  H    0.187283
     7  C   -0.185019
     8  S   -0.559101
     9  C    0.245570
    10  C   -0.374660
    11  C    0.675344
    12  H    0.165067
    13  S   -0.426532
    14  C   -0.195771
    15  C    0.224060
    16  H    0.194559
    17  H    0.163514
    18  H    0.146737
    19  O   -0.275795
    20  H    0.265711
 Sum of Mulliken charges =  -0.00000

 Dipole moment (field-independent basis, Debye):
    X=             -1.2272    Y=              1.1539    Z=             -0.9844  Tot=              1.9510
 Quadrupole moment (field-independent basis, Debye-Ang):
   XX=            -96.8425   YY=            -95.3562   ZZ=           -102.7668
   XY=              4.8889   XZ=              0.1206   YZ=             -2.0906

 Normal termination of Gaussian 16 at Wed Oct 27 01:07:37 2021.
