 Gaussian 16, Revision C.01,
 Gaussian 16:  ES64L-G16RevC.01  3-Jul-2019

 --------------------------------------
 # opt=modredundant wb97xd/6-311+g(d,p)
 --------------------------------------

 ----------------
 pg2T_TT_-130.pdb
 ----------------
 Symbolic Z-matrix:
 Charge =  0 Multiplicity = 1

 SCF Done:  E(RwB97XD) =  -1654.22407270     A.U. after   18 cycles
 SCF Done:  E(RwB97XD) =  -1654.29445420     A.U. after   15 cycles
 SCF Done:  E(RwB97XD) =  -1654.38328713     A.U. after   16 cycles
 SCF Done:  E(RwB97XD) =  -1654.39932651     A.U. after   15 cycles
 SCF Done:  E(RwB97XD) =  -1654.40859655     A.U. after   15 cycles
 SCF Done:  E(RwB97XD) =  -1654.41008326     A.U. after   15 cycles
 SCF Done:  E(RwB97XD) =  -1654.41121257     A.U. after   14 cycles
 SCF Done:  E(RwB97XD) =  -1654.41116371     A.U. after   15 cycles
 SCF Done:  E(RwB97XD) =  -1654.41142072     A.U. after   13 cycles
 SCF Done:  E(RwB97XD) =  -1654.41146040     A.U. after   13 cycles
 SCF Done:  E(RwB97XD) =  -1654.41146848     A.U. after   13 cycles
 SCF Done:  E(RwB97XD) =  -1654.41147409     A.U. after   12 cycles
 SCF Done:  E(RwB97XD) =  -1654.41147443     A.U. after   10 cycles
 Optimization completed.
    -- Stationary point found.

                         Standard orientation:
 ---------------------------------------------------------------------
 Center     Atomic      Atomic             Coordinates (Angstroms)
 Number     Number       Type             X           Y           Z
 ---------------------------------------------------------------------
      1          6           0        3.745655    0.712798    0.244409
      2          6           0        2.360441    0.984905    0.438956
      3          6           0        1.555837   -0.002795   -0.056192
      4          6           0        3.973660   -0.476634   -0.378516
      5         16           0        2.495827   -1.276560   -0.756743
      6          1           0        4.926722   -0.913846   -0.630061
      7          6           0        0.098409   -0.037890   -0.032673
      8         16           0       -0.756082   -1.451760    0.553026
      9          6           0       -2.280753   -0.671807    0.305550
     10          6           0       -2.107318    0.609058   -0.181985
     11          6           0       -0.747889    0.974759   -0.380838
     12          1           0       -0.401767    1.917366   -0.781451
     13         16           0       -3.634274    1.385871   -0.431373
     14          6           0       -4.474065   -0.028232    0.127295
     15          6           0       -3.644206   -1.043745    0.484520
     16          1           0       -5.553332   -0.021817    0.158769
     17          1           0       -3.988230   -1.999216    0.854344
     18          1           0        1.972205    1.859517    0.946728
     19          8           0        4.759725    1.526255    0.640381
     20          1           0        4.400448    2.304625    1.066905
 ---------------------------------------------------------------------

 The electronic state is 1-A.
 Alpha  occ. eigenvalues --  -89.05453 -89.05411 -89.05218 -19.28833 -10.35825
 Alpha  occ. eigenvalues --  -10.34154 -10.33988 -10.32796 -10.32734 -10.32655
 Alpha  occ. eigenvalues --  -10.30961 -10.30843 -10.30827 -10.30307  -8.09494
 Alpha  occ. eigenvalues --   -8.09456  -8.09278  -6.04349  -6.04305  -6.04116
 Alpha  occ. eigenvalues --   -6.03977  -6.03931  -6.03733  -6.03539  -6.03518
 Alpha  occ. eigenvalues --   -6.03369  -1.17903  -1.02625  -0.99899  -0.95643
 Alpha  occ. eigenvalues --   -0.87600  -0.86175  -0.84246  -0.81415  -0.80355
 Alpha  occ. eigenvalues --   -0.72421  -0.68033  -0.66901  -0.64174  -0.63702
 Alpha  occ. eigenvalues --   -0.62921  -0.58967  -0.57109  -0.52477  -0.52344
 Alpha  occ. eigenvalues --   -0.52010  -0.50932  -0.49990  -0.48345  -0.47754
 Alpha  occ. eigenvalues --   -0.46087  -0.45667  -0.44855  -0.43727  -0.42627
 Alpha  occ. eigenvalues --   -0.42352  -0.37310  -0.34057  -0.31588  -0.31076
 Alpha  occ. eigenvalues --   -0.28401
 Alpha virt. eigenvalues --    0.00753   0.04516   0.04976   0.05645   0.06101
 Alpha virt. eigenvalues --    0.06889   0.06990   0.07506   0.07614   0.08793
 Alpha virt. eigenvalues --    0.09099   0.09458   0.09705   0.10185   0.10303

 Mulliken charges:
               1
     1  C   -0.741320
     2  C    0.344027
     3  C    0.171464
     4  C    0.305409
     5  S   -0.325271
     6  H    0.186966
     7  C   -0.142888
     8  S   -0.592938
     9  C    0.284292
    10  C   -0.449481
    11  C    0.776482
    12  H    0.162585
    13  S   -0.433029
    14  C   -0.186442
    15  C    0.145577
    16  H    0.194613
    17  H    0.163528
    18  H    0.144455
    19  O   -0.272645
    20  H    0.264614
 Sum of Mulliken charges =  -0.00000

 Dipole moment (field-independent basis, Debye):
    X=             -1.2430    Y=              1.2607    Z=              0.7584  Tot=              1.9260
 Quadrupole moment (field-independent basis, Debye-Ang):
   XX=            -96.7349   YY=            -93.3852   ZZ=           -104.8396
   XY=              5.2390   XZ=             -0.1793   YZ=              1.8412

 Normal termination of Gaussian 16 at Tue Oct 26 22:37:58 2021.
