 Gaussian 16, Revision C.01,
 Gaussian 16:  ES64L-G16RevC.01  3-Jul-2019

 --------------------------------------
 # opt=modredundant wb97xd/6-311+g(d,p)
 --------------------------------------

 ---------------
 pg2T_TT_-90.pdb
 ---------------
 Symbolic Z-matrix:
 Charge =  0 Multiplicity = 1

 SCF Done:  E(RwB97XD) =  -1654.22285639     A.U. after   18 cycles
 SCF Done:  E(RwB97XD) =  -1654.29322447     A.U. after   15 cycles
 SCF Done:  E(RwB97XD) =  -1654.38198589     A.U. after   15 cycles
 SCF Done:  E(RwB97XD) =  -1654.39798775     A.U. after   15 cycles
 SCF Done:  E(RwB97XD) =  -1654.40708905     A.U. after   15 cycles
 SCF Done:  E(RwB97XD) =  -1654.40849043     A.U. after   14 cycles
 SCF Done:  E(RwB97XD) =  -1654.40956118     A.U. after   14 cycles
 SCF Done:  E(RwB97XD) =  -1654.40944806     A.U. after   14 cycles
 SCF Done:  E(RwB97XD) =  -1654.40979518     A.U. after   13 cycles
 SCF Done:  E(RwB97XD) =  -1654.40980308     A.U. after   13 cycles
 SCF Done:  E(RwB97XD) =  -1654.40983030     A.U. after   13 cycles
 SCF Done:  E(RwB97XD) =  -1654.40983469     A.U. after   12 cycles
 SCF Done:  E(RwB97XD) =  -1654.40983494     A.U. after   10 cycles
 Optimization completed.
    -- Stationary point found.

                         Standard orientation:
 ---------------------------------------------------------------------
 Center     Atomic      Atomic             Coordinates (Angstroms)
 Number     Number       Type             X           Y           Z
 ---------------------------------------------------------------------
      1          6           0        3.785961    0.199935    0.601537
      2          6           0        2.420284    0.159597    1.007939
      3          6           0        1.560102    0.056457   -0.047153
      4          6           0        3.941640    0.124882   -0.749703
      5         16           0        2.421061    0.005207   -1.547153
      6          1           0        4.866811    0.136558   -1.303880
      7          6           0        0.095497   -0.003867   -0.003880
      8         16           0       -0.718300   -1.551965    0.116941
      9          6           0       -2.264088   -0.776185    0.116311
     10          6           0       -2.127725    0.595679    0.025333
     11          6           0       -0.778606    1.040713   -0.046614
     12          1           0       -0.457786    2.070154   -0.126000
     13         16           0       -3.675430    1.371894    0.027042
     14          6           0       -4.474072   -0.165157    0.151536
     15          6           0       -3.616770   -1.219012    0.189576
     16          1           0       -5.552782   -0.196625    0.188370
     17          1           0       -3.933773   -2.249535    0.264253
     18          1           0        2.083930    0.205006    2.036659
     19          8           0        4.845836    0.305776    1.446216
     20          1           0        4.536286    0.307787    2.352295
 ---------------------------------------------------------------------

 The electronic state is 1-A.
 Alpha  occ. eigenvalues --  -89.05372 -89.05340 -89.05131 -19.28770 -10.35742
 Alpha  occ. eigenvalues --  -10.33972 -10.33807 -10.32746 -10.32660 -10.32651
 Alpha  occ. eigenvalues --  -10.30975 -10.30823 -10.30797 -10.30326  -8.09417
 Alpha  occ. eigenvalues --   -8.09377  -8.09186  -6.04265  -6.04230  -6.04020
 Alpha  occ. eigenvalues --   -6.03892  -6.03857  -6.03638  -6.03480  -6.03428
 Alpha  occ. eigenvalues --   -6.03284  -1.17830  -1.02533  -0.99808  -0.95578
 Alpha  occ. eigenvalues --   -0.87441  -0.86080  -0.84107  -0.81396  -0.80343
 Alpha  occ. eigenvalues --   -0.72275  -0.67787  -0.66908  -0.64307  -0.63399
 Alpha  occ. eigenvalues --   -0.63040  -0.58868  -0.57049  -0.52377  -0.52303
 Alpha  occ. eigenvalues --   -0.51965  -0.50616  -0.50547  -0.48218  -0.47788
 Alpha  occ. eigenvalues --   -0.46025  -0.45396  -0.44279  -0.43782  -0.42466
 Alpha  occ. eigenvalues --   -0.42393  -0.37218  -0.33420  -0.31293  -0.30222
 Alpha  occ. eigenvalues --   -0.29984
 Alpha virt. eigenvalues --    0.02069   0.03347   0.05021   0.05507   0.06061
 Alpha virt. eigenvalues --    0.06891   0.07024   0.07398   0.07513   0.08462
 Alpha virt. eigenvalues --    0.08972   0.09284   0.09770   0.10113   0.10242

 Mulliken charges:
               1
     1  C   -0.613851
     2  C    0.133465
     3  C    0.094196
     4  C    0.271079
     5  S   -0.168875
     6  H    0.187071
     7  C   -0.175972
     8  S   -0.522986
     9  C    0.286320
    10  C   -0.521532
    11  C    0.713794
    12  H    0.167733
    13  S   -0.419950
    14  C   -0.202544
    15  C    0.274577
    16  H    0.194416
    17  H    0.163582
    18  H    0.149190
    19  O   -0.277487
    20  H    0.267774
 Sum of Mulliken charges =  -0.00000

 Dipole moment (field-independent basis, Debye):
    X=             -1.1654    Y=              0.0102    Z=              1.5477  Tot=              1.9374
 Quadrupole moment (field-independent basis, Debye-Ang):
   XX=            -96.6683   YY=           -100.5962   ZZ=            -97.4895
   XY=              3.2150   XZ=              2.6832   YZ=              0.0010

 Normal termination of Gaussian 16 at Tue Oct 26 22:51:59 2021.
