 Gaussian 16, Revision C.01,
 Gaussian 16:  ES64L-G16RevC.01  3-Jul-2019

 --------------------------------------
 # opt=modredundant wb97xd/6-311+g(d,p)
 --------------------------------------

 -------------
 pg2T_TT_0.pdb
 -------------
 Symbolic Z-matrix:
 Charge =  0 Multiplicity = 1

 SCF Done:  E(RwB97XD) =  -1654.22610952     A.U. after   19 cycles
 SCF Done:  E(RwB97XD) =  -1654.29624782     A.U. after   15 cycles
 SCF Done:  E(RwB97XD) =  -1654.38468500     A.U. after   16 cycles
 SCF Done:  E(RwB97XD) =  -1654.40017188     A.U. after   15 cycles
 SCF Done:  E(RwB97XD) =  -1654.40905925     A.U. after   15 cycles
 SCF Done:  E(RwB97XD) =  -1654.41047209     A.U. after   14 cycles
 SCF Done:  E(RwB97XD) =  -1654.41151701     A.U. after   14 cycles
 SCF Done:  E(RwB97XD) =  -1654.41166288     A.U. after   13 cycles
 SCF Done:  E(RwB97XD) =  -1654.41164938     A.U. after   13 cycles
 SCF Done:  E(RwB97XD) =  -1654.41171325     A.U. after   12 cycles
 SCF Done:  E(RwB97XD) =  -1654.41172562     A.U. after   11 cycles
 SCF Done:  E(RwB97XD) =  -1654.41172680     A.U. after   11 cycles
 SCF Done:  E(RwB97XD) =  -1654.41172727     A.U. after   10 cycles
 Optimization completed.
    -- Stationary point found.

                         Standard orientation:
 ---------------------------------------------------------------------
 Center     Atomic      Atomic             Coordinates (Angstroms)
 Number     Number       Type             X           Y           Z
 ---------------------------------------------------------------------
      1          6           0       -3.816968    0.419052    0.000223
      2          6           0       -2.475207    0.897385    0.000103
      3          6           0       -1.551115   -0.111886    0.000070
      4          6           0       -3.900114   -0.939102   -0.000142
      5         16           0       -2.333475   -1.658816   -0.000098
      6          1           0       -4.791513   -1.545473   -0.000427
      7          6           0       -0.101217   -0.002778    0.000170
      8         16           0        0.656393    1.580364    0.000129
      9          6           0        2.233136    0.865479   -0.000179
     10          6           0        2.148548   -0.512313   -0.000074
     11          6           0        0.819196   -1.012849    0.000019
     12          1           0        0.554738   -2.061683   -0.000113
     13         16           0        3.725470   -1.226003    0.000175
     14          6           0        4.464766    0.345462   -0.000130
     15          6           0        3.565674    1.365734   -0.000287
     16          1           0        5.541830    0.420930   -0.000262
     17          1           0        3.842168    2.410500   -0.000535
     18          1           0       -2.213341    1.949022    0.000003
     19          8           0       -4.921196    1.210225   -0.000121
     20          1           0       -4.658724    2.131081    0.000382
 ---------------------------------------------------------------------

 The electronic state is 1-A.
 Alpha  occ. eigenvalues --  -89.05567 -89.05480 -89.05244 -19.28846 -10.35881
 Alpha  occ. eigenvalues --  -10.34446 -10.34265 -10.32922 -10.32849 -10.32713
 Alpha  occ. eigenvalues --  -10.31025 -10.30923 -10.30891 -10.30332  -8.09624
 Alpha  occ. eigenvalues --   -8.09523  -8.09315  -6.04486  -6.04372  -6.04163
 Alpha  occ. eigenvalues --   -6.04115  -6.03998  -6.03778  -6.03655  -6.03586
 Alpha  occ. eigenvalues --   -6.03388  -1.17937  -1.02764  -0.99986  -0.95748
 Alpha  occ. eigenvalues --   -0.87672  -0.86467  -0.84384  -0.81444  -0.80419
 Alpha  occ. eigenvalues --   -0.72587  -0.68108  -0.67180  -0.64838  -0.63892
 Alpha  occ. eigenvalues --   -0.62174  -0.59033  -0.57124  -0.52600  -0.52528
 Alpha  occ. eigenvalues --   -0.52139  -0.51164  -0.49923  -0.48120  -0.47803
 Alpha  occ. eigenvalues --   -0.46360  -0.46065  -0.45613  -0.43527  -0.42580
 Alpha  occ. eigenvalues --   -0.42359  -0.37531  -0.34845  -0.31843  -0.31247
 Alpha  occ. eigenvalues --   -0.27419
 Alpha virt. eigenvalues --   -0.00451   0.04785   0.05442   0.05565   0.05999
 Alpha virt. eigenvalues --    0.06693   0.07484   0.07681   0.08463   0.08499
 Alpha virt. eigenvalues --    0.08951   0.09377   0.10037   0.10152   0.10366

 Mulliken charges:
               1
     1  C   -0.723039
     2  C    0.911941
     3  C    0.112371
     4  C    0.233255
     5  S   -0.572814
     6  H    0.187483
     7  C   -0.035868
     8  S   -0.646494
     9  C    0.102168
    10  C    0.445310
    11  C    0.215649
    12  H    0.168827
    13  S   -0.474562
    14  C   -0.173892
    15  C   -0.246297
    16  H    0.195235
    17  H    0.162187
    18  H    0.146164
    19  O   -0.273017
    20  H    0.265393
 Sum of Mulliken charges =  -0.00000

 Dipole moment (field-independent basis, Debye):
    X=              1.1594    Y=              1.5505    Z=              0.0003  Tot=              1.9361
 Quadrupole moment (field-independent basis, Debye-Ang):
   XX=            -96.0902   YY=            -90.1766   ZZ=           -108.3676
   XY=             -0.4513   XZ=             -0.0041   YZ=              0.0020

 Normal termination of Gaussian 16 at Tue Oct 26 23:42:48 2021.
