 Gaussian 16, Revision C.01,
 Gaussian 16:  ES64L-G16RevC.01  3-Jul-2019

 --------------------------------------
 # opt=modredundant wb97xd/6-311+g(d,p)
 --------------------------------------

 ----------------
 pg2T_TT_-125.pdb
 ----------------
 Symbolic Z-matrix:
 Charge =  0 Multiplicity = 1

 SCF Done:  E(RwB97XD) =  -1654.22391991     A.U. after   19 cycles
 SCF Done:  E(RwB97XD) =  -1654.29429415     A.U. after   15 cycles
 SCF Done:  E(RwB97XD) =  -1654.38310990     A.U. after   16 cycles
 SCF Done:  E(RwB97XD) =  -1654.39913784     A.U. after   15 cycles
 SCF Done:  E(RwB97XD) =  -1654.40838917     A.U. after   15 cycles
 SCF Done:  E(RwB97XD) =  -1654.40987644     A.U. after   15 cycles
 SCF Done:  E(RwB97XD) =  -1654.41100730     A.U. after   14 cycles
 SCF Done:  E(RwB97XD) =  -1654.41096776     A.U. after   15 cycles
 SCF Done:  E(RwB97XD) =  -1654.41121310     A.U. after   13 cycles
 SCF Done:  E(RwB97XD) =  -1654.41125393     A.U. after   13 cycles
 SCF Done:  E(RwB97XD) =  -1654.41126348     A.U. after   13 cycles
 SCF Done:  E(RwB97XD) =  -1654.41126902     A.U. after   12 cycles
 SCF Done:  E(RwB97XD) =  -1654.41126932     A.U. after   10 cycles
 Optimization completed.
    -- Stationary point found.

                         Standard orientation:
 ---------------------------------------------------------------------
 Center     Atomic      Atomic             Coordinates (Angstroms)
 Number     Number       Type             X           Y           Z
 ---------------------------------------------------------------------
      1          6           0        3.746778    0.696545    0.270112
      2          6           0        2.361654    0.961296    0.476234
      3          6           0        1.556096    0.000775   -0.067605
      4          6           0        3.973163   -0.461728   -0.409527
      5         16           0        2.494431   -1.240380   -0.826139
      6          1           0        4.925840   -0.886929   -0.682361
      7          6           0        0.097622   -0.037529   -0.041283
      8         16           0       -0.750719   -1.434030    0.593233
      9          6           0       -2.278228   -0.664930    0.330442
     10          6           0       -2.110127    0.600460   -0.197750
     11          6           0       -0.752270    0.962621   -0.414498
     12          1           0       -0.409333    1.894454   -0.842170
     13         16           0       -3.639960    1.366380   -0.462768
     14          6           0       -4.473830   -0.031120    0.144305
     15          6           0       -3.640099   -1.033555    0.528330
     16          1           0       -5.552931   -0.025715    0.181435
     17          1           0       -3.980230   -1.977723    0.929475
     18          1           0        1.973526    1.811966    1.023248
     19          8           0        4.761881    1.488680    0.705001
     20          1           0        4.403502    2.245981    1.168598
 ---------------------------------------------------------------------

 The electronic state is 1-A.
 Alpha  occ. eigenvalues --  -89.05434 -89.05404 -89.05202 -19.28824 -10.35812
 Alpha  occ. eigenvalues --  -10.34121 -10.33957 -10.32785 -10.32721 -10.32653
 Alpha  occ. eigenvalues --  -10.30960 -10.30842 -10.30821 -10.30315  -8.09474
 Alpha  occ. eigenvalues --   -8.09449  -8.09261  -6.04329  -6.04298  -6.04098
 Alpha  occ. eigenvalues --   -6.03956  -6.03924  -6.03716  -6.03520  -6.03512
 Alpha  occ. eigenvalues --   -6.03353  -1.17892  -1.02607  -0.99884  -0.95631
 Alpha  occ. eigenvalues --   -0.87574  -0.86157  -0.84221  -0.81412  -0.80353
 Alpha  occ. eigenvalues --   -0.72397  -0.67999  -0.66893  -0.64174  -0.63649
 Alpha  occ. eigenvalues --   -0.62963  -0.58948  -0.57103  -0.52467  -0.52325
 Alpha  occ. eigenvalues --   -0.52001  -0.50902  -0.50059  -0.48327  -0.47763
 Alpha  occ. eigenvalues --   -0.46065  -0.45621  -0.44753  -0.43719  -0.42614
 Alpha  occ. eigenvalues --   -0.42368  -0.37282  -0.33958  -0.31503  -0.31064
 Alpha  occ. eigenvalues --   -0.28571
 Alpha virt. eigenvalues --    0.00933   0.04449   0.04929   0.05635   0.06102
 Alpha virt. eigenvalues --    0.06906   0.06976   0.07481   0.07573   0.08747
 Alpha virt. eigenvalues --    0.09086   0.09419   0.09731   0.10142   0.10304

 Mulliken charges:
               1
     1  C   -0.728094
     2  C    0.324262
     3  C    0.158962
     4  C    0.300554
     5  S   -0.305145
     6  H    0.187140
     7  C   -0.143237
     8  S   -0.580267
     9  C    0.262088
    10  C   -0.404958
    11  C    0.719168
    12  H    0.163607
    13  S   -0.430979
    14  C   -0.189819
    15  C    0.172351
    16  H    0.194596
    17  H    0.163513
    18  H    0.145061
    19  O   -0.273730
    20  H    0.264927
 Sum of Mulliken charges =  -0.00000

 Dipole moment (field-independent basis, Debye):
    X=             -1.2384    Y=              1.2331    Z=              0.8293  Tot=              1.9345
 Quadrupole moment (field-independent basis, Debye-Ang):
   XX=            -96.7834   YY=            -93.9690   ZZ=           -104.2204
   XY=              5.1292   XZ=             -0.2034   YZ=              1.9257

 Normal termination of Gaussian 16 at Tue Oct 26 22:38:10 2021.
