 Gaussian 16, Revision C.01,
 Gaussian 16:  ES64L-G16RevC.01  3-Jul-2019

 --------------------------------------
 # opt=modredundant wb97xd/6-311+g(d,p)
 --------------------------------------

 --------------
 pg2T_TT_60.pdb
 --------------
 Symbolic Z-matrix:
 Charge =  0 Multiplicity = 1

 SCF Done:  E(RwB97XD) =  -1654.22453996     A.U. after   19 cycles
 SCF Done:  E(RwB97XD) =  -1654.29488245     A.U. after   15 cycles
 SCF Done:  E(RwB97XD) =  -1654.38370593     A.U. after   16 cycles
 SCF Done:  E(RwB97XD) =  -1654.39956794     A.U. after   15 cycles
 SCF Done:  E(RwB97XD) =  -1654.40866726     A.U. after   16 cycles
 SCF Done:  E(RwB97XD) =  -1654.41007387     A.U. after   15 cycles
 SCF Done:  E(RwB97XD) =  -1654.41116010     A.U. after   15 cycles
 SCF Done:  E(RwB97XD) =  -1654.41102486     A.U. after   14 cycles
 SCF Done:  E(RwB97XD) =  -1654.41153255     A.U. after   13 cycles
 SCF Done:  E(RwB97XD) =  -1654.41154245     A.U. after   13 cycles
 SCF Done:  E(RwB97XD) =  -1654.41154956     A.U. after   13 cycles
 SCF Done:  E(RwB97XD) =  -1654.41155611     A.U. after   12 cycles
 SCF Done:  E(RwB97XD) =  -1654.41155624     A.U. after   10 cycles
 Optimization completed.
    -- Stationary point found.

                         Standard orientation:
 ---------------------------------------------------------------------
 Center     Atomic      Atomic             Coordinates (Angstroms)
 Number     Number       Type             X           Y           Z
 ---------------------------------------------------------------------
      1          6           0        3.810226    0.328924    0.397110
      2          6           0        2.465288    0.750320    0.606828
      3          6           0        1.557319   -0.068023   -0.004009
      4          6           0        3.904285   -0.802893   -0.355352
      5         16           0        2.348059   -1.363013   -0.834197
      6          1           0        4.802845   -1.320853   -0.650667
      7          6           0        0.099961    0.024049    0.023049
      8         16           0       -0.691275    1.463411   -0.589272
      9          6           0       -2.249528    0.785580   -0.262787
     10          6           0       -2.132610   -0.486777    0.262852
     11          6           0       -0.790469   -0.928337    0.424114
     12          1           0       -0.487798   -1.884394    0.828500
     13         16           0       -3.691573   -1.164218    0.591163
     14          6           0       -4.468194    0.278097    0.014511
     15          6           0       -3.595169    1.231404   -0.405721
     16          1           0       -5.546527    0.333536    0.019398
     17          1           0       -3.897239    2.192485   -0.797075
     18          1           0        2.178722    1.610797    1.199728
     19          8           0        4.907484    0.958427    0.893599
     20          1           0        4.640086    1.748089    1.364644
 ---------------------------------------------------------------------

 The electronic state is 1-A.
 Alpha  occ. eigenvalues --  -89.05447 -89.05374 -89.05234 -19.28790 -10.35803
 Alpha  occ. eigenvalues --  -10.34101 -10.33932 -10.32772 -10.32706 -10.32641
 Alpha  occ. eigenvalues --  -10.30929 -10.30821 -10.30815 -10.30287  -8.09485
 Alpha  occ. eigenvalues --   -8.09419  -8.09288  -6.04339  -6.04268  -6.04125
 Alpha  occ. eigenvalues --   -6.03968  -6.03894  -6.03742  -6.03532  -6.03482
 Alpha  occ. eigenvalues --   -6.03382  -1.17864  -1.02590  -0.99884  -0.95621
 Alpha  occ. eigenvalues --   -0.87481  -0.86205  -0.84210  -0.81403  -0.80343
 Alpha  occ. eigenvalues --   -0.72369  -0.67835  -0.66999  -0.64521  -0.63596
 Alpha  occ. eigenvalues --   -0.62619  -0.58883  -0.57061  -0.52435  -0.52394
 Alpha  occ. eigenvalues --   -0.52013  -0.50861  -0.50286  -0.48175  -0.47811
 Alpha  occ. eigenvalues --   -0.46141  -0.45443  -0.44734  -0.43646  -0.42548
 Alpha  occ. eigenvalues --   -0.42404  -0.37305  -0.33840  -0.31655  -0.30798
 Alpha  occ. eigenvalues --   -0.28757
 Alpha virt. eigenvalues --    0.01077   0.04432   0.05024   0.05485   0.06056
 Alpha virt. eigenvalues --    0.06850   0.07172   0.07482   0.07556   0.08482
 Alpha virt. eigenvalues --    0.09112   0.09364   0.09818   0.09900   0.10157

 Mulliken charges:
               1
     1  C   -0.577298
     2  C    0.031358
     3  C    0.168386
     4  C    0.200818
     5  S   -0.181736
     6  H    0.188135
     7  C    0.063242
     8  S   -0.501647
     9  C    0.308147
    10  C   -0.630770
    11  C    0.742985
    12  H    0.173067
    13  S   -0.427170
    14  C   -0.194053
    15  C    0.132521
    16  H    0.194358
    17  H    0.163285
    18  H    0.154055
    19  O   -0.272861
    20  H    0.265181
 Sum of Mulliken charges =  -0.00000

 Dipole moment (field-independent basis, Debye):
    X=             -1.0945    Y=              1.3152    Z=              0.8233  Tot=              1.8988
 Quadrupole moment (field-independent basis, Debye-Ang):
   XX=            -96.3908   YY=            -94.4178   ZZ=           -103.7637
   XY=             -0.0494   XZ=              2.9257   YZ=              2.1727

 Normal termination of Gaussian 16 at Wed Oct 27 00:12:27 2021.
