 Gaussian 16, Revision C.01,
 Gaussian 16:  ES64L-G16RevC.01  3-Jul-2019

 --------------------------------------
 # opt=modredundant wb97xd/6-311+g(d,p)
 --------------------------------------

 ---------------
 pg2T_TT_-60.pdb
 ---------------
 Symbolic Z-matrix:
 Charge =  0 Multiplicity = 1

 SCF Done:  E(RwB97XD) =  -1654.22493167     A.U. after   19 cycles
 SCF Done:  E(RwB97XD) =  -1654.29521395     A.U. after   15 cycles
 SCF Done:  E(RwB97XD) =  -1654.38389902     A.U. after   16 cycles
 SCF Done:  E(RwB97XD) =  -1654.39986000     A.U. after   15 cycles
 SCF Done:  E(RwB97XD) =  -1654.40888209     A.U. after   15 cycles
 SCF Done:  E(RwB97XD) =  -1654.41028292     A.U. after   15 cycles
 SCF Done:  E(RwB97XD) =  -1654.41131459     A.U. after   14 cycles
 SCF Done:  E(RwB97XD) =  -1654.41123364     A.U. after   14 cycles
 SCF Done:  E(RwB97XD) =  -1654.41151705     A.U. after   14 cycles
 SCF Done:  E(RwB97XD) =  -1654.41153876     A.U. after   13 cycles
 SCF Done:  E(RwB97XD) =  -1654.41155497     A.U. after   13 cycles
 SCF Done:  E(RwB97XD) =  -1654.41155891     A.U. after   12 cycles
 SCF Done:  E(RwB97XD) =  -1654.41155910     A.U. after   11 cycles
 Optimization completed.
    -- Stationary point found.

                         Standard orientation:
 ---------------------------------------------------------------------
 Center     Atomic      Atomic             Coordinates (Angstroms)
 Number     Number       Type             X           Y           Z
 ---------------------------------------------------------------------
      1          6           0       -3.810349    0.328847    0.396827
      2          6           0       -2.465489    0.750577    0.606450
      3          6           0       -1.557313   -0.068058   -0.003760
      4          6           0       -3.904150   -0.803195   -0.355373
      5         16           0       -2.347777   -1.363482   -0.833553
      6          1           0       -4.802627   -1.321280   -0.650721
      7          6           0       -0.099972    0.024114    0.023482
      8         16           0        0.691160    1.463657   -0.588641
      9          6           0        2.249479    0.785650   -0.262781
     10          6           0        2.132650   -0.486734    0.262755
     11          6           0        0.790533   -0.928272    0.424340
     12          1           0        0.487999   -1.884495    0.828435
     13         16           0        3.691669   -1.164280    0.590685
     14          6           0        4.468185    0.278250    0.014428
     15          6           0        3.595117    1.231440   -0.405979
     16          1           0        5.546516    0.333774    0.019274
     17          1           0        3.897130    2.192514   -0.797389
     18          1           0       -2.179198    1.611381    1.198800
     19          8           0       -4.907784    0.958706    0.892491
     20          1           0       -4.640525    1.748417    1.363487
 ---------------------------------------------------------------------

 The electronic state is 1-A.
 Alpha  occ. eigenvalues --  -89.05447 -89.05375 -89.05235 -19.28790 -10.35804
 Alpha  occ. eigenvalues --  -10.34102 -10.33932 -10.32772 -10.32706 -10.32641
 Alpha  occ. eigenvalues --  -10.30929 -10.30821 -10.30815 -10.30286  -8.09485
 Alpha  occ. eigenvalues --   -8.09419  -8.09289  -6.04339  -6.04268  -6.04125
 Alpha  occ. eigenvalues --   -6.03967  -6.03894  -6.03743  -6.03532  -6.03482
 Alpha  occ. eigenvalues --   -6.03383  -1.17865  -1.02590  -0.99883  -0.95621
 Alpha  occ. eigenvalues --   -0.87481  -0.86205  -0.84211  -0.81403  -0.80343
 Alpha  occ. eigenvalues --   -0.72369  -0.67836  -0.66999  -0.64521  -0.63597
 Alpha  occ. eigenvalues --   -0.62618  -0.58884  -0.57061  -0.52435  -0.52394
 Alpha  occ. eigenvalues --   -0.52014  -0.50861  -0.50286  -0.48174  -0.47811
 Alpha  occ. eigenvalues --   -0.46141  -0.45444  -0.44735  -0.43646  -0.42548
 Alpha  occ. eigenvalues --   -0.42404  -0.37305  -0.33841  -0.31655  -0.30798
 Alpha  occ. eigenvalues --   -0.28755
 Alpha virt. eigenvalues --    0.01076   0.04433   0.05024   0.05485   0.06056
 Alpha virt. eigenvalues --    0.06849   0.07172   0.07482   0.07555   0.08482
 Alpha virt. eigenvalues --    0.09112   0.09364   0.09818   0.09900   0.10157

 Mulliken charges:
               1
     1  C   -0.577522
     2  C    0.031633
     3  C    0.168378
     4  C    0.200956
     5  S   -0.182074
     6  H    0.188133
     7  C    0.063401
     8  S   -0.501868
     9  C    0.308293
    10  C   -0.630171
    11  C    0.742734
    12  H    0.173064
    13  S   -0.427254
    14  C   -0.194028
    15  C    0.132310
    16  H    0.194356
    17  H    0.163283
    18  H    0.154036
    19  O   -0.272832
    20  H    0.265173
 Sum of Mulliken charges =  -0.00000

 Dipole moment (field-independent basis, Debye):
    X=              1.0942    Y=              1.3152    Z=              0.8226  Tot=              1.8984
 Quadrupole moment (field-independent basis, Debye-Ang):
   XX=            -96.3901   YY=            -94.4132   ZZ=           -103.7678
   XY=              0.0477   XZ=             -2.9280   YZ=              2.1720

 Normal termination of Gaussian 16 at Tue Oct 26 23:03:43 2021.
