 Gaussian 16, Revision C.01,
 Gaussian 16:  ES64L-G16RevC.01  3-Jul-2019

 --------------------------------------
 # opt=modredundant wb97xd/6-311+g(d,p)
 --------------------------------------

 ---------------
 pg2T_TT_-70.pdb
 ---------------
 Symbolic Z-matrix:
 Charge =  0 Multiplicity = 1

 SCF Done:  E(RwB97XD) =  -1654.22404777     A.U. after   18 cycles
 SCF Done:  E(RwB97XD) =  -1654.29434410     A.U. after   15 cycles
 SCF Done:  E(RwB97XD) =  -1654.38304302     A.U. after   15 cycles
 SCF Done:  E(RwB97XD) =  -1654.39905111     A.U. after   15 cycles
 SCF Done:  E(RwB97XD) =  -1654.40810353     A.U. after   15 cycles
 SCF Done:  E(RwB97XD) =  -1654.40950253     A.U. after   15 cycles
 SCF Done:  E(RwB97XD) =  -1654.41053633     A.U. after   14 cycles
 SCF Done:  E(RwB97XD) =  -1654.41042185     A.U. after   14 cycles
 SCF Done:  E(RwB97XD) =  -1654.41075637     A.U. after   13 cycles
 SCF Done:  E(RwB97XD) =  -1654.41076218     A.U. after   13 cycles
 SCF Done:  E(RwB97XD) =  -1654.41078973     A.U. after   13 cycles
 SCF Done:  E(RwB97XD) =  -1654.41079322     A.U. after   11 cycles
 SCF Done:  E(RwB97XD) =  -1654.41079325     A.U. after   10 cycles
 Optimization completed.
    -- Stationary point found.

                         Standard orientation:
 ---------------------------------------------------------------------
 Center     Atomic      Atomic             Coordinates (Angstroms)
 Number     Number       Type             X           Y           Z
 ---------------------------------------------------------------------
      1          6           0       -3.809170    0.280117    0.464934
      2          6           0       -2.461778    0.664848    0.724728
      3          6           0       -1.559277   -0.060261   -0.000080
      4          6           0       -3.909656   -0.732311   -0.441096
      5         16           0       -2.357459   -1.224975   -0.999190
      6          1           0       -4.811366   -1.200812   -0.802316
      7          6           0       -0.098982    0.028688    0.029858
      8         16           0        0.701298    1.442809   -0.628111
      9          6           0        2.254870    0.766790   -0.278803
     10          6           0        2.130320   -0.485405    0.291741
     11          6           0        0.785161   -0.913835    0.464584
     12          1           0        0.475199   -1.856471    0.894115
     13         16           0        3.685037   -1.160658    0.644256
     14          6           0        4.470467    0.255793    0.017631
     15          6           0        3.603591    1.198800   -0.436860
     16          1           0        5.549126    0.304950    0.021345
     17          1           0        3.911662    2.143469   -0.862025
     18          1           0       -2.169023    1.436440    1.426556
     19          8           0       -4.902517    0.835833    1.050686
     20          1           0       -4.630756    1.551586    1.625734
 ---------------------------------------------------------------------

 The electronic state is 1-A.
 Alpha  occ. eigenvalues --  -89.05399 -89.05367 -89.05197 -19.28777 -10.35775
 Alpha  occ. eigenvalues --  -10.34037 -10.33871 -10.32754 -10.32682 -10.32641
 Alpha  occ. eigenvalues --  -10.30944 -10.30817 -10.30803 -10.30300  -8.09436
 Alpha  occ. eigenvalues --   -8.09412  -8.09250  -6.04289  -6.04261  -6.04085
 Alpha  occ. eigenvalues --   -6.03917  -6.03887  -6.03703  -6.03486  -6.03475
 Alpha  occ. eigenvalues --   -6.03347  -1.17846  -1.02559  -0.99850  -0.95597
 Alpha  occ. eigenvalues --   -0.87453  -0.86147  -0.84166  -0.81397  -0.80340
 Alpha  occ. eigenvalues --   -0.72322  -0.67792  -0.66966  -0.64452  -0.63531
 Alpha  occ. eigenvalues --   -0.62755  -0.58867  -0.57050  -0.52385  -0.52377
 Alpha  occ. eigenvalues --   -0.51995  -0.50778  -0.50381  -0.48190  -0.47796
 Alpha  occ. eigenvalues --   -0.46087  -0.45412  -0.44542  -0.43674  -0.42512
 Alpha  occ. eigenvalues --   -0.42391  -0.37265  -0.33626  -0.31566  -0.30596
 Alpha  occ. eigenvalues --   -0.29194
 Alpha virt. eigenvalues --    0.01475   0.04005   0.05031   0.05481   0.06054
 Alpha virt. eigenvalues --    0.06892   0.07072   0.07454   0.07525   0.08452
 Alpha virt. eigenvalues --    0.09064   0.09331   0.09774   0.09999   0.10159

 Mulliken charges:
               1
     1  C   -0.545701
     2  C   -0.009995
     3  C    0.123821
     4  C    0.196190
     5  S   -0.144964
     6  H    0.187974
     7  C    0.028576
     8  S   -0.490463
     9  C    0.309011
    10  C   -0.583316
    11  C    0.695084
    12  H    0.171405
    13  S   -0.423058
    14  C   -0.195659
    15  C    0.179364
    16  H    0.194372
    17  H    0.163377
    18  H    0.152983
    19  O   -0.275159
    20  H    0.266159
 Sum of Mulliken charges =  -0.00000

 Dipole moment (field-independent basis, Debye):
    X=              1.1014    Y=              1.1846    Z=              0.9845  Tot=              1.8936
 Quadrupole moment (field-independent basis, Debye-Ang):
   XX=            -96.4267   YY=            -96.0309   ZZ=           -102.1048
   XY=              0.2900   XZ=             -3.4330   YZ=              2.3875

 Normal termination of Gaussian 16 at Tue Oct 26 23:15:05 2021.
