 Gaussian 16, Revision C.01,
 Gaussian 16:  ES64L-G16RevC.01  3-Jul-2019

 --------------------------------------
 # opt=modredundant wb97xd/6-311+g(d,p)
 --------------------------------------

 ----------------
 pg2T_TT_-140.pdb
 ----------------
 Symbolic Z-matrix:
 Charge =  0 Multiplicity = 1

 SCF Done:  E(RwB97XD) =  -1654.22431013     A.U. after   19 cycles
 SCF Done:  E(RwB97XD) =  -1654.29468011     A.U. after   15 cycles
 SCF Done:  E(RwB97XD) =  -1654.38350941     A.U. after   16 cycles
 SCF Done:  E(RwB97XD) =  -1654.39953130     A.U. after   15 cycles
 SCF Done:  E(RwB97XD) =  -1654.40879676     A.U. after   15 cycles
 SCF Done:  E(RwB97XD) =  -1654.41028046     A.U. after   15 cycles
 SCF Done:  E(RwB97XD) =  -1654.41135746     A.U. after   14 cycles
 SCF Done:  E(RwB97XD) =  -1654.41129599     A.U. after   15 cycles
 SCF Done:  E(RwB97XD) =  -1654.41157553     A.U. after   13 cycles
 SCF Done:  E(RwB97XD) =  -1654.41160900     A.U. after   12 cycles
 SCF Done:  E(RwB97XD) =  -1654.41161476     A.U. after   12 cycles
 SCF Done:  E(RwB97XD) =  -1654.41162082     A.U. after   11 cycles
 SCF Done:  E(RwB97XD) =  -1654.41162114     A.U. after   10 cycles
 Optimization completed.
    -- Stationary point found.

                         Standard orientation:
 ---------------------------------------------------------------------
 Center     Atomic      Atomic             Coordinates (Angstroms)
 Number     Number       Type             X           Y           Z
 ---------------------------------------------------------------------
      1          6           0        3.745671    0.737197    0.192756
      2          6           0        2.361506    1.021721    0.373465
      3          6           0        1.555756   -0.008804   -0.024901
      4          6           0        3.973312   -0.500995   -0.326766
      5         16           0        2.495192   -1.333590   -0.625115
      6          1           0        4.925665   -0.957566   -0.543978
      7          6           0        0.099912   -0.036889   -0.005468
      8         16           0       -0.766613   -1.483617    0.471774
      9          6           0       -2.285852   -0.684444    0.253510
     10          6           0       -2.102345    0.624909   -0.146730
     11          6           0       -0.739909    0.997944   -0.303353
     12          1           0       -0.388203    1.961517   -0.644795
     13         16           0       -3.623835    1.421213   -0.366149
     14          6           0       -4.474771   -0.023622    0.087673
     15          6           0       -3.652214   -1.062794    0.389822
     16          1           0       -5.554337   -0.015736    0.104475
     17          1           0       -4.003452   -2.039115    0.692267
     18          1           0        1.976601    1.936117    0.808473
     19          8           0        4.759963    1.583972    0.510066
     20          1           0        4.401727    2.393570    0.874832
 ---------------------------------------------------------------------

 The electronic state is 1-A.
 Alpha  occ. eigenvalues --  -89.05483 -89.05426 -89.05246 -19.28847 -10.35849
 Alpha  occ. eigenvalues --  -10.34221 -10.34049 -10.32822 -10.32759 -10.32663
 Alpha  occ. eigenvalues --  -10.30969 -10.30844 -10.30844 -10.30291  -8.09528
 Alpha  occ. eigenvalues --   -8.09471  -8.09308  -6.04384  -6.04320  -6.04147
 Alpha  occ. eigenvalues --   -6.04011  -6.03946  -6.03764  -6.03571  -6.03533
 Alpha  occ. eigenvalues --   -6.03396  -1.17922  -1.02660  -0.99927  -0.95669
 Alpha  occ. eigenvalues --   -0.87650  -0.86209  -0.84294  -0.81423  -0.80360
 Alpha  occ. eigenvalues --   -0.72467  -0.68097  -0.66925  -0.64184  -0.63797
 Alpha  occ. eigenvalues --   -0.62842  -0.59008  -0.57119  -0.52489  -0.52391
 Alpha  occ. eigenvalues --   -0.52028  -0.50988  -0.49862  -0.48376  -0.47729
 Alpha  occ. eigenvalues --   -0.46137  -0.45763  -0.45059  -0.43759  -0.42630
 Alpha  occ. eigenvalues --   -0.42310  -0.37378  -0.34237  -0.31740  -0.31076
 Alpha  occ. eigenvalues --   -0.28104
 Alpha virt. eigenvalues --    0.00419   0.04563   0.05153   0.05661   0.06106
 Alpha virt. eigenvalues --    0.06846   0.07022   0.07516   0.07790   0.08870
 Alpha virt. eigenvalues --    0.09130   0.09545   0.09688   0.10274   0.10326

 Mulliken charges:
               1
     1  C   -0.750537
     2  C    0.362942
     3  C    0.308382
     4  C    0.323840
     5  S   -0.391733
     6  H    0.186442
     7  C    0.334118
     8  S   -0.516331
     9  C    0.406681
    10  C    0.101885
    11  C   -0.070421
    12  H    0.161206
    13  S   -0.445286
    14  C   -0.136067
    15  C   -0.372383
    16  H    0.194692
    17  H    0.163618
    18  H    0.145725
    19  O   -0.270938
    20  H    0.264167
 Sum of Mulliken charges =  -0.00000

 Dipole moment (field-independent basis, Debye):
    X=             -1.2524    Y=              1.3011    Z=              0.6259  Tot=              1.9113
 Quadrupole moment (field-independent basis, Debye-Ang):
   XX=            -96.6134   YY=            -92.4149   ZZ=           -105.8832
   XY=              5.4466   XZ=             -0.0060   YZ=              1.7123

 Normal termination of Gaussian 16 at Tue Oct 26 22:19:47 2021.
