 Gaussian 16, Revision C.01,
 Gaussian 16:  ES64L-G16RevC.01  3-Jul-2019

 --------------------------------------
 # opt=modredundant wb97xd/6-311+g(d,p)
 --------------------------------------

 ---------------
 pg2T_TT_125.pdb
 ---------------
 Symbolic Z-matrix:
 Charge =  0 Multiplicity = 1

 SCF Done:  E(RwB97XD) =  -1654.22452437     A.U. after   19 cycles
 SCF Done:  E(RwB97XD) =  -1654.29482943     A.U. after   16 cycles
 SCF Done:  E(RwB97XD) =  -1654.38356645     A.U. after   16 cycles
 SCF Done:  E(RwB97XD) =  -1654.39950718     A.U. after   16 cycles
 SCF Done:  E(RwB97XD) =  -1654.40855050     A.U. after   16 cycles
 SCF Done:  E(RwB97XD) =  -1654.40995481     A.U. after   16 cycles
 SCF Done:  E(RwB97XD) =  -1654.41102283     A.U. after   14 cycles
 SCF Done:  E(RwB97XD) =  -1654.41092569     A.U. after   15 cycles
 SCF Done:  E(RwB97XD) =  -1654.41122658     A.U. after   14 cycles
 SCF Done:  E(RwB97XD) =  -1654.41125415     A.U. after   13 cycles
 SCF Done:  E(RwB97XD) =  -1654.41126380     A.U. after   13 cycles
 SCF Done:  E(RwB97XD) =  -1654.41126880     A.U. after   12 cycles
 SCF Done:  E(RwB97XD) =  -1654.41126905     A.U. after   10 cycles
 Optimization completed.
    -- Stationary point found.

                         Standard orientation:
 ---------------------------------------------------------------------
 Center     Atomic      Atomic             Coordinates (Angstroms)
 Number     Number       Type             X           Y           Z
 ---------------------------------------------------------------------
      1          6           0        3.746810    0.696296   -0.270509
      2          6           0        2.361676    0.961268   -0.476316
      3          6           0        1.556091    0.000802    0.067586
      4          6           0        3.973149   -0.461685    0.409648
      5         16           0        2.494404   -1.240236    0.826381
      6          1           0        4.925824   -0.886768    0.682677
      7          6           0        0.097621   -0.037517    0.041349
      8         16           0       -0.750696   -1.434028   -0.593214
      9          6           0       -2.278212   -0.664859   -0.330651
     10          6           0       -2.110133    0.600493    0.197633
     11          6           0       -0.752287    0.962663    0.414433
     12          1           0       -0.409378    1.894602    0.841897
     13         16           0       -3.639991    1.366253    0.463006
     14          6           0       -4.473827   -0.031124   -0.144393
     15          6           0       -3.640081   -1.033481   -0.528587
     16          1           0       -5.552923   -0.025662   -0.181693
     17          1           0       -3.980189   -1.977540   -0.930002
     18          1           0        1.973560    1.812008   -1.023184
     19          8           0        4.761906    1.488571   -0.705105
     20          1           0        4.403543    2.245840   -1.168763
 ---------------------------------------------------------------------

 The electronic state is 1-A.
 Alpha  occ. eigenvalues --  -89.05434 -89.05404 -89.05202 -19.28824 -10.35812
 Alpha  occ. eigenvalues --  -10.34121 -10.33957 -10.32785 -10.32721 -10.32653
 Alpha  occ. eigenvalues --  -10.30960 -10.30842 -10.30821 -10.30315  -8.09474
 Alpha  occ. eigenvalues --   -8.09449  -8.09261  -6.04329  -6.04298  -6.04098
 Alpha  occ. eigenvalues --   -6.03956  -6.03924  -6.03716  -6.03520  -6.03512
 Alpha  occ. eigenvalues --   -6.03353  -1.17893  -1.02607  -0.99884  -0.95631
 Alpha  occ. eigenvalues --   -0.87574  -0.86157  -0.84221  -0.81412  -0.80353
 Alpha  occ. eigenvalues --   -0.72397  -0.67999  -0.66893  -0.64174  -0.63649
 Alpha  occ. eigenvalues --   -0.62963  -0.58948  -0.57103  -0.52467  -0.52326
 Alpha  occ. eigenvalues --   -0.52001  -0.50902  -0.50058  -0.48327  -0.47763
 Alpha  occ. eigenvalues --   -0.46065  -0.45620  -0.44754  -0.43719  -0.42614
 Alpha  occ. eigenvalues --   -0.42368  -0.37282  -0.33959  -0.31503  -0.31064
 Alpha  occ. eigenvalues --   -0.28571
 Alpha virt. eigenvalues --    0.00933   0.04448   0.04929   0.05635   0.06102
 Alpha virt. eigenvalues --    0.06906   0.06976   0.07481   0.07573   0.08748
 Alpha virt. eigenvalues --    0.09086   0.09418   0.09731   0.10141   0.10304

 Mulliken charges:
               1
     1  C   -0.728217
     2  C    0.324501
     3  C    0.158827
     4  C    0.300693
     5  S   -0.305216
     6  H    0.187135
     7  C   -0.143417
     8  S   -0.580262
     9  C    0.262155
    10  C   -0.404597
    11  C    0.718923
    12  H    0.163594
    13  S   -0.430972
    14  C   -0.189738
    15  C    0.172229
    16  H    0.194596
    17  H    0.163512
    18  H    0.145053
    19  O   -0.273726
    20  H    0.264930
 Sum of Mulliken charges =  -0.00000

 Dipole moment (field-independent basis, Debye):
    X=             -1.2383    Y=              1.2335    Z=             -0.8295  Tot=              1.9347
 Quadrupole moment (field-independent basis, Debye-Ang):
   XX=            -96.7831   YY=            -93.9702   ZZ=           -104.2189
   XY=              5.1297   XZ=              0.2054   YZ=             -1.9258

 Normal termination of Gaussian 16 at Wed Oct 27 01:17:07 2021.
