 Gaussian 16, Revision C.01,
 Gaussian 16:  ES64L-G16RevC.01  3-Jul-2019

 --------------------------------------
 # opt=modredundant wb97xd/6-311+g(d,p)
 --------------------------------------

 --------------
 pg2T_TT_30.pdb
 --------------
 Symbolic Z-matrix:
 Charge =  0 Multiplicity = 1

 SCF Done:  E(RwB97XD) =  -1654.22582450     A.U. after   19 cycles
 SCF Done:  E(RwB97XD) =  -1654.29613731     A.U. after   15 cycles
 SCF Done:  E(RwB97XD) =  -1654.38492892     A.U. after   16 cycles
 SCF Done:  E(RwB97XD) =  -1654.40077848     A.U. after   16 cycles
 SCF Done:  E(RwB97XD) =  -1654.40986752     A.U. after   17 cycles
 SCF Done:  E(RwB97XD) =  -1654.41125300     A.U. after   15 cycles
 SCF Done:  E(RwB97XD) =  -1654.41224479     A.U. after   14 cycles
 SCF Done:  E(RwB97XD) =  -1654.41213061     A.U. after   14 cycles
 SCF Done:  E(RwB97XD) =  -1654.41252805     A.U. after   13 cycles
 SCF Done:  E(RwB97XD) =  -1654.41254136     A.U. after   13 cycles
 SCF Done:  E(RwB97XD) =  -1654.41254624     A.U. after   12 cycles
 SCF Done:  E(RwB97XD) =  -1654.41255130     A.U. after   12 cycles
 SCF Done:  E(RwB97XD) =  -1654.41255142     A.U. after   10 cycles
 Optimization completed.
    -- Stationary point found.

                         Standard orientation:
 ---------------------------------------------------------------------
 Center     Atomic      Atomic             Coordinates (Angstroms)
 Number     Number       Type             X           Y           Z
 ---------------------------------------------------------------------
      1          6           0       -3.808964    0.402524   -0.219870
      2          6           0       -2.464175    0.862041   -0.319789
      3          6           0       -1.551438   -0.106089   -0.002079
      4          6           0       -3.902565   -0.899064    0.168816
      5         16           0       -2.343336   -1.580650    0.441153
      6          1           0       -4.799522   -1.480155    0.311327
      7          6           0       -0.100354   -0.005725    0.008193
      8         16           0        0.662180    1.533309    0.360181
      9          6           0        2.234758    0.839124    0.156642
     10          6           0        2.143978   -0.505823   -0.143950
     11          6           0        0.811916   -0.992627   -0.235713
     12          1           0        0.535279   -2.006211   -0.491986
     13         16           0        3.716889   -1.199607   -0.345038
     14          6           0        4.463529    0.333875   -0.018198
     15          6           0        3.570070    1.328034    0.230741
     16          1           0        5.540650    0.408087   -0.028340
     17          1           0        3.851752    2.347125    0.454677
     18          1           0       -2.186361    1.858402   -0.642943
     19          8           0       -4.906977    1.155559   -0.489874
     20          1           0       -4.638232    2.041833   -0.733232
 ---------------------------------------------------------------------

 The electronic state is 1-A.
 Alpha  occ. eigenvalues --  -89.05552 -89.05435 -89.05258 -19.28827 -10.35860
 Alpha  occ. eigenvalues --  -10.34308 -10.34135 -10.32861 -10.32796 -10.32679
 Alpha  occ. eigenvalues --  -10.30961 -10.30879 -10.30848 -10.30283  -8.09600
 Alpha  occ. eigenvalues --   -8.09479  -8.09321  -6.04458  -6.04328  -6.04164
 Alpha  occ. eigenvalues --   -6.04088  -6.03954  -6.03780  -6.03638  -6.03542
 Alpha  occ. eigenvalues --   -6.03404  -1.17914  -1.02705  -0.99953  -0.95707
 Alpha  occ. eigenvalues --   -0.87599  -0.86379  -0.84320  -0.81435  -0.80380
 Alpha  occ. eigenvalues --   -0.72513  -0.67996  -0.67108  -0.64715  -0.63775
 Alpha  occ. eigenvalues --   -0.62309  -0.58968  -0.57105  -0.52540  -0.52479
 Alpha  occ. eigenvalues --   -0.52085  -0.51056  -0.50057  -0.48102  -0.47876
 Alpha  occ. eigenvalues --   -0.46336  -0.45558  -0.45407  -0.43603  -0.42592
 Alpha  occ. eigenvalues --   -0.42413  -0.37450  -0.34473  -0.31756  -0.31196
 Alpha  occ. eigenvalues --   -0.27820
 Alpha virt. eigenvalues --    0.00065   0.04860   0.05317   0.05537   0.06061
 Alpha virt. eigenvalues --    0.06752   0.07515   0.07601   0.07888   0.08541
 Alpha virt. eigenvalues --    0.09058   0.09445   0.09903   0.10068   0.10154

 Mulliken charges:
               1
     1  C   -0.785564
     2  C    0.569962
     3  C    0.215308
     4  C    0.352053
     5  S   -0.463264
     6  H    0.186549
     7  C    0.240605
     8  S   -0.567351
     9  C    0.405053
    10  C    0.135071
    11  C   -0.024374
    12  H    0.171761
    13  S   -0.455753
    14  C   -0.138228
    15  C   -0.344003
    16  H    0.194665
    17  H    0.162815
    18  H    0.151473
    19  O   -0.271015
    20  H    0.264237
 Sum of Mulliken charges =  -0.00000

 Dipole moment (field-independent basis, Debye):
    X=              1.1357    Y=              1.5013    Z=             -0.4769  Tot=              1.9419
 Quadrupole moment (field-independent basis, Debye-Ang):
   XX=            -96.2757   YY=            -91.3834   ZZ=           -106.9862
   XY=             -0.1799   XZ=              1.5158   YZ=             -1.2521

 Normal termination of Gaussian 16 at Wed Oct 27 00:10:26 2021.
