 Gaussian 16, Revision C.01,
 Gaussian 16:  ES64L-G16RevC.01  3-Jul-2019

 --------------------------------------
 # opt=modredundant wb97xd/6-311+g(d,p)
 --------------------------------------

 ---------------
 pg2T_TT_180.pdb
 ---------------
 Symbolic Z-matrix:
 Charge =  0 Multiplicity = 1

 SCF Done:  E(RwB97XD) =  -1654.22429875     A.U. after   19 cycles
 SCF Done:  E(RwB97XD) =  -1654.29443740     A.U. after   16 cycles
 SCF Done:  E(RwB97XD) =  -1654.38291199     A.U. after   17 cycles
 SCF Done:  E(RwB97XD) =  -1654.39852985     A.U. after   16 cycles
 SCF Done:  E(RwB97XD) =  -1654.40732724     A.U. after   15 cycles
 SCF Done:  E(RwB97XD) =  -1654.40871013     A.U. after   15 cycles
 SCF Done:  E(RwB97XD) =  -1654.40977841     A.U. after   14 cycles
 SCF Done:  E(RwB97XD) =  -1654.40976241     A.U. after   14 cycles
 SCF Done:  E(RwB97XD) =  -1654.40999740     A.U. after   13 cycles
 SCF Done:  E(RwB97XD) =  -1654.41003280     A.U. after   12 cycles
 SCF Done:  E(RwB97XD) =  -1654.41003287     A.U. after   11 cycles
 SCF Done:  E(RwB97XD) =  -1654.41003702     A.U. after   11 cycles
 SCF Done:  E(RwB97XD) =  -1654.41003719     A.U. after   10 cycles
 Optimization completed.
    -- Stationary point found.

                         Standard orientation:
 ---------------------------------------------------------------------
 Center     Atomic      Atomic             Coordinates (Angstroms)
 Number     Number       Type             X           Y           Z
 ---------------------------------------------------------------------
      1          6           0        3.747771    0.784837   -0.000288
      2          6           0        2.362435    1.109926   -0.000126
      3          6           0        1.556485    0.002396   -0.000074
      4          6           0        3.983542   -0.556293    0.000226
      5         16           0        2.508663   -1.444591    0.000357
      6          1           0        4.937153   -1.059015    0.000413
      7          6           0        0.100609   -0.026413   -0.000090
      8         16           0       -0.776090   -1.545905   -0.000286
      9          6           0       -2.292692   -0.714389   -0.000111
     10          6           0       -2.104066    0.653495   -0.000018
     11          6           0       -0.741332    1.051227   -0.000162
     12          1           0       -0.399622    2.076646   -0.000164
     13         16           0       -3.623219    1.484023    0.000355
     14          6           0       -4.479132   -0.027808   -0.000119
     15          6           0       -3.659571   -1.112576   -0.000080
     16          1           0       -5.558802   -0.021831   -0.000328
     17          1           0       -4.013721   -2.133641   -0.000234
     18          1           0        1.985349    2.125177   -0.000088
     19          8           0        4.757636    1.693755    0.000040
     20          1           0        4.394618    2.579764   -0.001673
 ---------------------------------------------------------------------

 The electronic state is 1-A.
 Alpha  occ. eigenvalues --  -89.05537 -89.05467 -89.05310 -19.28871 -10.35892
 Alpha  occ. eigenvalues --  -10.34455 -10.34272 -10.32888 -10.32825 -10.32688
 Alpha  occ. eigenvalues --  -10.31020 -10.30892 -10.30863 -10.30284  -8.09593
 Alpha  occ. eigenvalues --   -8.09512  -8.09384  -6.04453  -6.04362  -6.04227
 Alpha  occ. eigenvalues --   -6.04080  -6.03988  -6.03842  -6.03627  -6.03573
 Alpha  occ. eigenvalues --   -6.03464  -1.17955  -1.02746  -1.00004  -0.95726
 Alpha  occ. eigenvalues --   -0.87770  -0.86287  -0.84429  -0.81424  -0.80400
 Alpha  occ. eigenvalues --   -0.72581  -0.68268  -0.67026  -0.64304  -0.63998
 Alpha  occ. eigenvalues --   -0.62641  -0.59140  -0.57151  -0.52553  -0.52514
 Alpha  occ. eigenvalues --   -0.52058  -0.51167  -0.49515  -0.48404  -0.47475
 Alpha  occ. eigenvalues --   -0.46361  -0.46301  -0.45586  -0.43863  -0.42526
 Alpha  occ. eigenvalues --   -0.42087  -0.37656  -0.34697  -0.32130  -0.30912
 Alpha  occ. eigenvalues --   -0.27422
 Alpha virt. eigenvalues --   -0.00448   0.04229   0.05469   0.05642   0.06072
 Alpha virt. eigenvalues --    0.06620   0.07034   0.07458   0.08768   0.08770
 Alpha virt. eigenvalues --    0.09091   0.09633   0.10060   0.10509   0.10562

 Mulliken charges:
               1
     1  C   -0.774012
     2  C    0.955127
     3  C    0.091509
     4  C    0.331782
     5  S   -0.566110
     6  H    0.185403
     7  C   -0.172572
     8  S   -0.630069
     9  C    0.328039
    10  C    0.251497
    11  C    0.219182
    12  H    0.149654
    13  S   -0.458071
    14  C   -0.158237
    15  C   -0.240341
    16  H    0.195422
    17  H    0.163205
    18  H    0.133836
    19  O   -0.270996
    20  H    0.265753
 Sum of Mulliken charges =  -0.00000

 Dipole moment (field-independent basis, Debye):
    X=             -1.2894    Y=              1.4122    Z=             -0.0028  Tot=              1.9123
 Quadrupole moment (field-independent basis, Debye-Ang):
   XX=            -96.5096   YY=            -90.0290   ZZ=           -108.3310
   XY=              5.8279   XZ=             -0.0105   YZ=             -0.0090

 Normal termination of Gaussian 16 at Wed Oct 27 01:39:21 2021.
