 Gaussian 16, Revision C.01,
 Gaussian 16:  ES64L-G16RevC.01  3-Jul-2019

 --------------------------------------
 # opt=modredundant wb97xd/6-311+g(d,p)
 --------------------------------------

 ---------------
 pg2T_TT_-10.pdb
 ---------------
 Symbolic Z-matrix:
 Charge =  0 Multiplicity = 1

 SCF Done:  E(RwB97XD) =  -1654.22658729     A.U. after   19 cycles
 SCF Done:  E(RwB97XD) =  -1654.29665998     A.U. after   15 cycles
 SCF Done:  E(RwB97XD) =  -1654.38498528     A.U. after   16 cycles
 SCF Done:  E(RwB97XD) =  -1654.40041938     A.U. after   15 cycles
 SCF Done:  E(RwB97XD) =  -1654.40932019     A.U. after   16 cycles
 SCF Done:  E(RwB97XD) =  -1654.41066201     A.U. after   14 cycles
 SCF Done:  E(RwB97XD) =  -1654.41168820     A.U. after   14 cycles
 SCF Done:  E(RwB97XD) =  -1654.41183915     A.U. after   13 cycles
 SCF Done:  E(RwB97XD) =  -1654.41184275     A.U. after   13 cycles
 SCF Done:  E(RwB97XD) =  -1654.41191183     A.U. after   13 cycles
 SCF Done:  E(RwB97XD) =  -1654.41191303     A.U. after   11 cycles
 SCF Done:  E(RwB97XD) =  -1654.41191318     A.U. after   11 cycles
 SCF Done:  E(RwB97XD) =  -1654.41191361     A.U. after   10 cycles
 Optimization completed.
    -- Stationary point found.

                         Standard orientation:
 ---------------------------------------------------------------------
 Center     Atomic      Atomic             Coordinates (Angstroms)
 Number     Number       Type             X           Y           Z
 ---------------------------------------------------------------------
      1          6           0       -3.815003    0.417866    0.081674
      2          6           0       -2.472434    0.892525    0.118745
      3          6           0       -1.550853   -0.112691    0.006307
      4          6           0       -3.900792   -0.932820   -0.060596
      5         16           0       -2.335957   -1.648583   -0.162709
      6          1           0       -4.793501   -1.535224   -0.110605
      7          6           0       -0.101010   -0.005167   -0.009051
      8         16           0        0.656316    1.572575   -0.137573
      9          6           0        2.232753    0.861719   -0.058376
     10          6           0        2.148193   -0.511793    0.051910
     11          6           0        0.818745   -1.011283    0.085995
     12          1           0        0.552864   -2.054785    0.187663
     13         16           0        3.724907   -1.221540    0.129256
     14          6           0        4.464303    0.345281    0.009421
     15          6           0        3.565384    1.361359   -0.084079
     16          1           0        5.541311    0.421392    0.014753
     17          1           0        3.841958    2.402852   -0.166479
     18          1           0       -2.207210    1.936209    0.240665
     19          8           0       -4.917710    1.204858    0.181678
     20          1           0       -4.653733    2.121491    0.265302
 ---------------------------------------------------------------------

 The electronic state is 1-A.
 Alpha  occ. eigenvalues --  -89.05566 -89.05473 -89.05246 -19.28843 -10.35878
 Alpha  occ. eigenvalues --  -10.34424 -10.34244 -10.32912 -10.32841 -10.32708
 Alpha  occ. eigenvalues --  -10.31013 -10.30917 -10.30882 -10.30320  -8.09622
 Alpha  occ. eigenvalues --   -8.09517  -8.09316  -6.04483  -6.04366  -6.04163
 Alpha  occ. eigenvalues --   -6.04112  -6.03992  -6.03778  -6.03654  -6.03580
 Alpha  occ. eigenvalues --   -6.03390  -1.17934  -1.02756  -0.99982  -0.95742
 Alpha  occ. eigenvalues --   -0.87662  -0.86455  -0.84373  -0.81443  -0.80412
 Alpha  occ. eigenvalues --   -0.72577  -0.68090  -0.67169  -0.64819  -0.63873
 Alpha  occ. eigenvalues --   -0.62191  -0.59022  -0.57122  -0.52590  -0.52522
 Alpha  occ. eigenvalues --   -0.52130  -0.51148  -0.49942  -0.48110  -0.47826
 Alpha  occ. eigenvalues --   -0.46397  -0.45922  -0.45601  -0.43539  -0.42584
 Alpha  occ. eigenvalues --   -0.42368  -0.37521  -0.34789  -0.31825  -0.31250
 Alpha  occ. eigenvalues --   -0.27473
 Alpha virt. eigenvalues --   -0.00378   0.04800   0.05435   0.05561   0.06021
 Alpha virt. eigenvalues --    0.06704   0.07502   0.07675   0.08361   0.08511
 Alpha virt. eigenvalues --    0.08974   0.09395   0.10041   0.10150   0.10273

 Mulliken charges:
               1
     1  C   -0.747672
     2  C    0.904783
     3  C    0.081079
     4  C    0.288581
     5  S   -0.563677
     6  H    0.186602
     7  C   -0.016187
     8  S   -0.640072
     9  C    0.200704
    10  C    0.370186
    11  C    0.187412
    12  H    0.168842
    13  S   -0.467155
    14  C   -0.149629
    15  C   -0.300567
    16  H    0.194984
    17  H    0.162306
    18  H    0.147088
    19  O   -0.272619
    20  H    0.265013
 Sum of Mulliken charges =  -0.00000

 Dipole moment (field-independent basis, Debye):
    X=              1.1562    Y=              1.5454    Z=              0.1814  Tot=              1.9386
 Quadrupole moment (field-independent basis, Debye-Ang):
   XX=            -96.1067   YY=            -90.3381   ZZ=           -108.1819
   XY=             -0.4024   XZ=             -0.5085   YZ=              0.4521

 Normal termination of Gaussian 16 at Tue Oct 26 23:39:38 2021.
