 Gaussian 16, Revision C.01,
 Gaussian 16:  ES64L-G16RevC.01  3-Jul-2019

 --------------------------------------
 # opt=modredundant wb97xd/6-311+g(d,p)
 --------------------------------------

 ---------------
 pg2T_TT_135.pdb
 ---------------
 Symbolic Z-matrix:
 Charge =  0 Multiplicity = 1

 SCF Done:  E(RwB97XD) =  -1654.22522714     A.U. after   19 cycles
 SCF Done:  E(RwB97XD) =  -1654.29545587     A.U. after   16 cycles
 SCF Done:  E(RwB97XD) =  -1654.38408130     A.U. after   16 cycles
 SCF Done:  E(RwB97XD) =  -1654.39994458     A.U. after   16 cycles
 SCF Done:  E(RwB97XD) =  -1654.40890517     A.U. after   16 cycles
 SCF Done:  E(RwB97XD) =  -1654.41030277     A.U. after   16 cycles
 SCF Done:  E(RwB97XD) =  -1654.41137407     A.U. after   14 cycles
 SCF Done:  E(RwB97XD) =  -1654.41130899     A.U. after   15 cycles
 SCF Done:  E(RwB97XD) =  -1654.41156789     A.U. after   14 cycles
 SCF Done:  E(RwB97XD) =  -1654.41159969     A.U. after   13 cycles
 SCF Done:  E(RwB97XD) =  -1654.41160850     A.U. after   13 cycles
 SCF Done:  E(RwB97XD) =  -1654.41161330     A.U. after   12 cycles
 SCF Done:  E(RwB97XD) =  -1654.41161357     A.U. after   10 cycles
 Optimization completed.
    -- Stationary point found.

                         Standard orientation:
 ---------------------------------------------------------------------
 Center     Atomic      Atomic             Coordinates (Angstroms)
 Number     Number       Type             X           Y           Z
 ---------------------------------------------------------------------
      1          6           0        3.745463    0.725933   -0.218913
      2          6           0        2.360619    1.004901   -0.404786
      3          6           0        1.555701   -0.005858    0.041831
      4          6           0        3.973604   -0.489737    0.351080
      5         16           0        2.495818   -1.307304    0.689877
      6          1           0        4.926463   -0.937331    0.584333
      7          6           0        0.099177   -0.037395    0.020548
      8         16           0       -0.761357   -1.468376   -0.512238
      9          6           0       -2.283305   -0.678342   -0.279941
     10          6           0       -2.104736    0.617370    0.164555
     11          6           0       -0.743778    0.986937    0.343120
     12          1           0       -0.394779    1.940346    0.714579
     13         16           0       -3.628924    1.404186    0.399042
     14          6           0       -4.474421   -0.025867   -0.108330
     15          6           0       -3.648276   -1.053731   -0.437905
     16          1           0       -5.553847   -0.018625   -0.133172
     17          1           0       -3.996027   -2.020014   -0.774675
     18          1           0        1.973633    1.900719   -0.875170
     19          8           0        4.759417    1.557541   -0.575212
     20          1           0        4.400334    2.353222   -0.968654
 ---------------------------------------------------------------------

 The electronic state is 1-A.
 Alpha  occ. eigenvalues --  -89.05471 -89.05417 -89.05233 -19.28841 -10.35838
 Alpha  occ. eigenvalues --  -10.34187 -10.34019 -10.32809 -10.32746 -10.32658
 Alpha  occ. eigenvalues --  -10.30964 -10.30843 -10.30835 -10.30299  -8.09513
 Alpha  occ. eigenvalues --   -8.09462  -8.09294  -6.04369  -6.04311  -6.04132
 Alpha  occ. eigenvalues --   -6.03996  -6.03938  -6.03749  -6.03557  -6.03525
 Alpha  occ. eigenvalues --   -6.03383  -1.17914  -1.02642  -0.99913  -0.95655
 Alpha  occ. eigenvalues --   -0.87625  -0.86192  -0.84270  -0.81419  -0.80357
 Alpha  occ. eigenvalues --   -0.72445  -0.68066  -0.66912  -0.64177  -0.63751
 Alpha  occ. eigenvalues --   -0.62880  -0.58987  -0.57114  -0.52485  -0.52365
 Alpha  occ. eigenvalues --   -0.52020  -0.50961  -0.49922  -0.48361  -0.47743
 Alpha  occ. eigenvalues --   -0.46111  -0.45713  -0.44959  -0.43740  -0.42631
 Alpha  occ. eigenvalues --   -0.42333  -0.37342  -0.34151  -0.31666  -0.31079
 Alpha  occ. eigenvalues --   -0.28245
 Alpha virt. eigenvalues --    0.00581   0.04529   0.05051   0.05652   0.06099
 Alpha virt. eigenvalues --    0.06867   0.07002   0.07515   0.07689   0.08835
 Alpha virt. eigenvalues --    0.09104   0.09498   0.09691   0.10226   0.10310

 Mulliken charges:
               1
     1  C   -0.749711
     2  C    0.373047
     3  C    0.171731
     4  C    0.313274
     5  S   -0.344452
     6  H    0.186737
     7  C   -0.162238
     8  S   -0.606394
     9  C    0.315069
    10  C   -0.509622
    11  C    0.857166
    12  H    0.161374
    13  S   -0.434637
    14  C   -0.182770
    15  C    0.116422
    16  H    0.194629
    17  H    0.163558
    18  H    0.144041
    19  O   -0.271590
    20  H    0.264368
 Sum of Mulliken charges =  -0.00000

 Dipole moment (field-independent basis, Debye):
    X=             -1.2471    Y=              1.2830    Z=             -0.6905  Tot=              1.9178
 Quadrupole moment (field-independent basis, Debye-Ang):
   XX=            -96.6754   YY=            -92.8664   ZZ=           -105.3939
   XY=              5.3467   XZ=              0.1142   YZ=             -1.7678

 Normal termination of Gaussian 16 at Wed Oct 27 01:08:50 2021.
