 Gaussian 16, Revision C.01,
 Gaussian 16:  ES64L-G16RevC.01  3-Jul-2019

 --------------------------------------
 # opt=modredundant wb97xd/6-311+g(d,p)
 --------------------------------------

 ----------------
 pg2T_TT_-145.pdb
 ----------------
 Symbolic Z-matrix:
 Charge =  0 Multiplicity = 1

 SCF Done:  E(RwB97XD) =  -1654.22447622     A.U. after   19 cycles
 SCF Done:  E(RwB97XD) =  -1654.29478604     A.U. after   15 cycles
 SCF Done:  E(RwB97XD) =  -1654.38352659     A.U. after   16 cycles
 SCF Done:  E(RwB97XD) =  -1654.39951882     A.U. after   15 cycles
 SCF Done:  E(RwB97XD) =  -1654.40875691     A.U. after   15 cycles
 SCF Done:  E(RwB97XD) =  -1654.41023374     A.U. after   15 cycles
 SCF Done:  E(RwB97XD) =  -1654.41130822     A.U. after   14 cycles
 SCF Done:  E(RwB97XD) =  -1654.41124105     A.U. after   15 cycles
 SCF Done:  E(RwB97XD) =  -1654.41153505     A.U. after   13 cycles
 SCF Done:  E(RwB97XD) =  -1654.41156569     A.U. after   12 cycles
 SCF Done:  E(RwB97XD) =  -1654.41157108     A.U. after   12 cycles
 SCF Done:  E(RwB97XD) =  -1654.41157718     A.U. after   11 cycles
 SCF Done:  E(RwB97XD) =  -1654.41157750     A.U. after   10 cycles
 Optimization completed.
    -- Stationary point found.

                         Standard orientation:
 ---------------------------------------------------------------------
 Center     Atomic      Atomic             Coordinates (Angstroms)
 Number     Number       Type             X           Y           Z
 ---------------------------------------------------------------------
      1          6           0        3.746221    0.746499    0.166937
      2          6           0        2.362829    1.037199    0.341745
      3          6           0        1.555874   -0.010273   -0.008256
      4          6           0        3.973000   -0.511636   -0.302613
      5         16           0        2.494280   -1.356577   -0.560493
      6          1           0        4.924668   -0.976652   -0.504176
      7          6           0        0.100543   -0.035472    0.009731
      8         16           0       -0.770779   -1.497024    0.430128
      9          6           0       -2.287921   -0.689959    0.226959
     10          6           0       -2.100598    0.631825   -0.127970
     11          6           0       -0.737071    1.008790   -0.261875
     12          1           0       -0.383789    1.982517   -0.571350
     13         16           0       -3.620013    1.436074   -0.332312
     14          6           0       -4.475102   -0.022378    0.067043
     15          6           0       -3.655293   -1.071642    0.340662
     16          1           0       -5.554753   -0.014281    0.075846
     17          1           0       -4.009221   -2.057254    0.607777
     18          1           0        1.980478    1.969013    0.740516
     19          8           0        4.761014    1.606310    0.444939
     20          1           0        4.403800    2.428875    0.780532
 ---------------------------------------------------------------------

 The electronic state is 1-A.
 Alpha  occ. eigenvalues --  -89.05496 -89.05433 -89.05258 -19.28853 -10.35859
 Alpha  occ. eigenvalues --  -10.34255 -10.34079 -10.32834 -10.32771 -10.32667
 Alpha  occ. eigenvalues --  -10.30975 -10.30851 -10.30844 -10.30283  -8.09542
 Alpha  occ. eigenvalues --   -8.09478  -8.09321  -6.04398  -6.04327  -6.04161
 Alpha  occ. eigenvalues --   -6.04026  -6.03954  -6.03777  -6.03584  -6.03540
 Alpha  occ. eigenvalues --   -6.03408  -1.17930  -1.02676  -0.99940  -0.95679
 Alpha  occ. eigenvalues --   -0.87672  -0.86224  -0.84317  -0.81425  -0.80364
 Alpha  occ. eigenvalues --   -0.72488  -0.68127  -0.66938  -0.64194  -0.63837
 Alpha  occ. eigenvalues --   -0.62805  -0.59028  -0.57123  -0.52493  -0.52417
 Alpha  occ. eigenvalues --   -0.52036  -0.51014  -0.49800  -0.48387  -0.47712
 Alpha  occ. eigenvalues --   -0.46163  -0.45817  -0.45158  -0.43778  -0.42621
 Alpha  occ. eigenvalues --   -0.42285  -0.37415  -0.34318  -0.31809  -0.31066
 Alpha  occ. eigenvalues --   -0.27974
 Alpha virt. eigenvalues --    0.00264   0.04531   0.05224   0.05662   0.06103
 Alpha virt. eigenvalues --    0.06818   0.07031   0.07515   0.07907   0.08899
 Alpha virt. eigenvalues --    0.09123   0.09575   0.09702   0.10299   0.10355

 Mulliken charges:
               1
     1  C   -0.750190
     2  C    0.412892
     3  C    0.278749
     4  C    0.335037
     5  S   -0.412817
     6  H    0.186144
     7  C    0.308646
     8  S   -0.529405
     9  C    0.405313
    10  C    0.116915
    11  C   -0.050939
    12  H    0.160132
    13  S   -0.446775
    14  C   -0.136542
    15  C   -0.374242
    16  H    0.194734
    17  H    0.163570
    18  H    0.144979
    19  O   -0.270301
    20  H    0.264101
 Sum of Mulliken charges =  -0.00000

 Dipole moment (field-independent basis, Debye):
    X=             -1.2567    Y=              1.3179    Z=              0.5602  Tot=              1.9053
 Quadrupole moment (field-independent basis, Debye-Ang):
   XX=            -96.5561   YY=            -91.9922   ZZ=           -106.3349
   XY=              5.5416   XZ=              0.1030   YZ=              1.6491

 Normal termination of Gaussian 16 at Tue Oct 26 22:11:04 2021.
