 Gaussian 16, Revision C.01,
 Gaussian 16:  ES64L-G16RevC.01  3-Jul-2019

 --------------------------------------
 # opt=modredundant wb97xd/6-311+g(d,p)
 --------------------------------------

 -------------
 pg2T_TT_5.pdb
 -------------
 Symbolic Z-matrix:
 Charge =  0 Multiplicity = 1

 SCF Done:  E(RwB97XD) =  -1654.22600355     A.U. after   19 cycles
 SCF Done:  E(RwB97XD) =  -1654.29616308     A.U. after   15 cycles
 SCF Done:  E(RwB97XD) =  -1654.38463825     A.U. after   16 cycles
 SCF Done:  E(RwB97XD) =  -1654.40016312     A.U. after   15 cycles
 SCF Done:  E(RwB97XD) =  -1654.40909276     A.U. after   15 cycles
 SCF Done:  E(RwB97XD) =  -1654.41051168     A.U. after   14 cycles
 SCF Done:  E(RwB97XD) =  -1654.41156264     A.U. after   14 cycles
 SCF Done:  E(RwB97XD) =  -1654.41167413     A.U. after   13 cycles
 SCF Done:  E(RwB97XD) =  -1654.41168462     A.U. after   13 cycles
 SCF Done:  E(RwB97XD) =  -1654.41177351     A.U. after   13 cycles
 SCF Done:  E(RwB97XD) =  -1654.41177417     A.U. after   11 cycles
 SCF Done:  E(RwB97XD) =  -1654.41177668     A.U. after   11 cycles
 SCF Done:  E(RwB97XD) =  -1654.41177690     A.U. after   10 cycles
 Optimization completed.
    -- Stationary point found.

                         Standard orientation:
 ---------------------------------------------------------------------
 Center     Atomic      Atomic             Coordinates (Angstroms)
 Number     Number       Type             X           Y           Z
 ---------------------------------------------------------------------
      1          6           0       -3.816390    0.418861   -0.041139
      2          6           0       -2.474370    0.896061   -0.060920
      3          6           0       -1.551025   -0.112277   -0.004293
      4          6           0       -3.900356   -0.937368    0.031078
      5         16           0       -2.334262   -1.656204    0.082900
      6          1           0       -4.792162   -1.542627    0.056301
      7          6           0       -0.101154   -0.003626    0.004588
      8         16           0        0.656268    1.578196    0.070245
      9          6           0        2.232968    0.864490    0.029527
     10          6           0        2.148510   -0.512215   -0.026630
     11          6           0        0.819168   -1.012575   -0.044443
     12          1           0        0.554382   -2.059985   -0.097279
     13         16           0        3.725458   -1.224753   -0.065470
     14          6           0        4.464630    0.345599   -0.004727
     15          6           0        3.565483    1.364703    0.042794
     16          1           0        5.541671    0.421348   -0.007426
     17          1           0        3.841894    2.408650    0.084710
     18          1           0       -2.211524    1.945600   -0.123398
     19          8           0       -4.920156    1.209061   -0.091954
     20          1           0       -4.657209    2.128788   -0.135092
 ---------------------------------------------------------------------

 The electronic state is 1-A.
 Alpha  occ. eigenvalues --  -89.05567 -89.05478 -89.05244 -19.28845 -10.35880
 Alpha  occ. eigenvalues --  -10.34440 -10.34260 -10.32919 -10.32847 -10.32712
 Alpha  occ. eigenvalues --  -10.31022 -10.30921 -10.30888 -10.30329  -8.09623
 Alpha  occ. eigenvalues --   -8.09521  -8.09316  -6.04485  -6.04370  -6.04163
 Alpha  occ. eigenvalues --   -6.04114  -6.03996  -6.03778  -6.03654  -6.03584
 Alpha  occ. eigenvalues --   -6.03389  -1.17936  -1.02761  -0.99985  -0.95746
 Alpha  occ. eigenvalues --   -0.87670  -0.86464  -0.84380  -0.81444  -0.80417
 Alpha  occ. eigenvalues --   -0.72585  -0.68103  -0.67177  -0.64833  -0.63887
 Alpha  occ. eigenvalues --   -0.62178  -0.59030  -0.57124  -0.52597  -0.52527
 Alpha  occ. eigenvalues --   -0.52136  -0.51159  -0.49928  -0.48117  -0.47810
 Alpha  occ. eigenvalues --   -0.46375  -0.46022  -0.45610  -0.43530  -0.42581
 Alpha  occ. eigenvalues --   -0.42361  -0.37529  -0.34830  -0.31838  -0.31248
 Alpha  occ. eigenvalues --   -0.27433
 Alpha virt. eigenvalues --   -0.00432   0.04788   0.05441   0.05564   0.06006
 Alpha virt. eigenvalues --    0.06696   0.07490   0.07680   0.08435   0.08502
 Alpha virt. eigenvalues --    0.08958   0.09383   0.10039   0.10151   0.10336

 Mulliken charges:
               1
     1  C   -0.731880
     2  C    0.917348
     3  C    0.097867
     4  C    0.252469
     5  S   -0.571738
     6  H    0.187139
     7  C   -0.034071
     8  S   -0.646301
     9  C    0.134520
    10  C    0.421051
    11  C    0.212030
    12  H    0.168819
    13  S   -0.471834
    14  C   -0.164289
    15  C   -0.267275
    16  H    0.195141
    17  H    0.162212
    18  H    0.146441
    19  O   -0.272914
    20  H    0.265265
 Sum of Mulliken charges =  -0.00000

 Dipole moment (field-independent basis, Debye):
    X=              1.1586    Y=              1.5491    Z=             -0.0945  Tot=              1.9367
 Quadrupole moment (field-independent basis, Debye-Ang):
   XX=            -96.0931   YY=            -90.2196   ZZ=           -108.3188
   XY=             -0.4372   XZ=              0.2665   YZ=             -0.2320

 Normal termination of Gaussian 16 at Tue Oct 26 23:41:59 2021.
