 Gaussian 16, Revision C.01,
 Gaussian 16:  ES64L-G16RevC.01  3-Jul-2019

 --------------------------------------
 # opt=modredundant wb97xd/6-311+g(d,p)
 --------------------------------------

 ---------------
 pg2T_TT_-95.pdb
 ---------------
 Symbolic Z-matrix:
 Charge =  0 Multiplicity = 1

 SCF Done:  E(RwB97XD) =  -1654.22271348     A.U. after   17 cycles
 SCF Done:  E(RwB97XD) =  -1654.29312023     A.U. after   15 cycles
 SCF Done:  E(RwB97XD) =  -1654.38193106     A.U. after   15 cycles
 SCF Done:  E(RwB97XD) =  -1654.39793893     A.U. after   15 cycles
 SCF Done:  E(RwB97XD) =  -1654.40707025     A.U. after   15 cycles
 SCF Done:  E(RwB97XD) =  -1654.40850142     A.U. after   14 cycles
 SCF Done:  E(RwB97XD) =  -1654.40959159     A.U. after   14 cycles
 SCF Done:  E(RwB97XD) =  -1654.40947553     A.U. after   14 cycles
 SCF Done:  E(RwB97XD) =  -1654.40982293     A.U. after   13 cycles
 SCF Done:  E(RwB97XD) =  -1654.40982972     A.U. after   13 cycles
 SCF Done:  E(RwB97XD) =  -1654.40985697     A.U. after   13 cycles
 SCF Done:  E(RwB97XD) =  -1654.40986067     A.U. after   12 cycles
 SCF Done:  E(RwB97XD) =  -1654.40986067     A.U. after   10 cycles
 Optimization completed.
    -- Stationary point found.

                         Standard orientation:
 ---------------------------------------------------------------------
 Center     Atomic      Atomic             Coordinates (Angstroms)
 Number     Number       Type             X           Y           Z
 ---------------------------------------------------------------------
      1          6           0        3.776748    0.421991    0.506521
      2          6           0        2.405592    0.535166    0.879080
      3          6           0        1.559491    0.038877   -0.070473
      4          6           0        3.950728   -0.161760   -0.711861
      5         16           0        2.440923   -0.578134   -1.425752
      6          1           0        4.883414   -0.359915   -1.215847
      7          6           0        0.094942   -0.009577   -0.020727
      8         16           0       -0.722207   -1.455300    0.541158
      9          6           0       -2.265836   -0.705556    0.325991
     10          6           0       -2.126326    0.584577   -0.148377
     11          6           0       -0.776402    0.985371   -0.349447
     12          1           0       -0.452849    1.948708   -0.718533
     13         16           0       -3.671974    1.334684   -0.362265
     14          6           0       -4.474167   -0.102478    0.191786
     15          6           0       -3.619362   -1.105742    0.523297
     16          1           0       -5.552810   -0.118483    0.238992
     17          1           0       -3.938743   -2.072366    0.886175
     18          1           0        2.055050    0.962684    1.810622
     19          8           0        4.825318    0.842673    1.262522
     20          1           0        4.503069    1.192779    2.093424
 ---------------------------------------------------------------------

 The electronic state is 1-A.
 Alpha  occ. eigenvalues --  -89.05375 -89.05340 -89.05129 -19.28775 -10.35743
 Alpha  occ. eigenvalues --  -10.33975 -10.33811 -10.32748 -10.32661 -10.32653
 Alpha  occ. eigenvalues --  -10.30975 -10.30825 -10.30799 -10.30328  -8.09420
 Alpha  occ. eigenvalues --   -8.09378  -8.09184  -6.04269  -6.04230  -6.04018
 Alpha  occ. eigenvalues --   -6.03896  -6.03857  -6.03636  -6.03483  -6.03428
 Alpha  occ. eigenvalues --   -6.03282  -1.17835  -1.02536  -0.99810  -0.95580
 Alpha  occ. eigenvalues --   -0.87451  -0.86078  -0.84109  -0.81397  -0.80344
 Alpha  occ. eigenvalues --   -0.72279  -0.67807  -0.66896  -0.64273  -0.63383
 Alpha  occ. eigenvalues --   -0.63094  -0.58872  -0.57055  -0.52387  -0.52291
 Alpha  occ. eigenvalues --   -0.51963  -0.50659  -0.50492  -0.48227  -0.47787
 Alpha  occ. eigenvalues --   -0.46019  -0.45412  -0.44279  -0.43792  -0.42471
 Alpha  occ. eigenvalues --   -0.42399  -0.37215  -0.33446  -0.31242  -0.30442
 Alpha  occ. eigenvalues --   -0.29796
 Alpha virt. eigenvalues --    0.02016   0.03405   0.05010   0.05523   0.06070
 Alpha virt. eigenvalues --    0.06884   0.07017   0.07391   0.07522   0.08492
 Alpha virt. eigenvalues --    0.08962   0.09286   0.09799   0.10081   0.10281

 Mulliken charges:
               1
     1  C   -0.632703
     2  C    0.190764
     3  C    0.078647
     4  C    0.286127
     5  S   -0.185687
     6  H    0.187058
     7  C   -0.214223
     8  S   -0.527711
     9  C    0.274598
    10  C   -0.488930
    11  C    0.710977
    12  H    0.167052
    13  S   -0.420554
    14  C   -0.202768
    15  C    0.280732
    16  H    0.194440
    17  H    0.163602
    18  H    0.148611
    19  O   -0.277639
    20  H    0.267608
 Sum of Mulliken charges =  -0.00000

 Dipole moment (field-independent basis, Debye):
    X=             -1.1841    Y=              0.5952    Z=              1.4310  Tot=              1.9504
 Quadrupole moment (field-independent basis, Debye-Ang):
   XX=            -96.7398   YY=            -99.5802   ZZ=            -98.4998
   XY=              4.1061   XZ=              1.3823   YZ=              1.6173

 Normal termination of Gaussian 16 at Tue Oct 26 22:49:27 2021.
