 Gaussian 16, Revision C.01,
 Gaussian 16:  ES64L-G16RevC.01  3-Jul-2019

 --------------------------------------
 # opt=modredundant wb97xd/6-311+g(d,p)
 --------------------------------------

 ---------------
 pg2T_TT_150.pdb
 ---------------
 Symbolic Z-matrix:
 Charge =  0 Multiplicity = 1

 SCF Done:  E(RwB97XD) =  -1654.22532413     A.U. after   19 cycles
 SCF Done:  E(RwB97XD) =  -1654.29552362     A.U. after   15 cycles
 SCF Done:  E(RwB97XD) =  -1654.38410118     A.U. after   16 cycles
 SCF Done:  E(RwB97XD) =  -1654.39987431     A.U. after   15 cycles
 SCF Done:  E(RwB97XD) =  -1654.40879757     A.U. after   15 cycles
 SCF Done:  E(RwB97XD) =  -1654.41018539     A.U. after   15 cycles
 SCF Done:  E(RwB97XD) =  -1654.41120405     A.U. after   14 cycles
 SCF Done:  E(RwB97XD) =  -1654.41118589     A.U. after   13 cycles
 SCF Done:  E(RwB97XD) =  -1654.41138593     A.U. after   14 cycles
 SCF Done:  E(RwB97XD) =  -1654.41143195     A.U. after   12 cycles
 SCF Done:  E(RwB97XD) =  -1654.41143577     A.U. after   12 cycles
 SCF Done:  E(RwB97XD) =  -1654.41144038     A.U. after   11 cycles
 SCF Done:  E(RwB97XD) =  -1654.41144066     A.U. after   10 cycles
 Optimization completed.
    -- Stationary point found.

                         Standard orientation:
 ---------------------------------------------------------------------
 Center     Atomic      Atomic             Coordinates (Angstroms)
 Number     Number       Type             X           Y           Z
 ---------------------------------------------------------------------
      1          6           0        3.746822    0.754657   -0.141240
      2          6           0        2.364056    1.052105   -0.307326
      3          6           0        1.556032   -0.010239   -0.006706
      4          6           0        3.973060   -0.521841    0.276046
      5         16           0        2.493863   -1.377310    0.493198
      6          1           0        4.924134   -0.995002    0.460544
      7          6           0        0.101046   -0.033538   -0.023364
      8         16           0       -0.773810   -1.508899   -0.385292
      9          6           0       -2.289494   -0.695131   -0.199231
     10          6           0       -2.099581    0.638031    0.108392
     11          6           0       -0.735402    1.019143    0.219431
     12          1           0       -0.381792    2.003070    0.494275
     13         16           0       -3.617582    1.449032    0.295932
     14          6           0       -4.475422   -0.022099   -0.047062
     15          6           0       -3.657456   -1.080350   -0.290116
     16          1           0       -5.555102   -0.014083   -0.048611
     17          1           0       -4.013158   -2.074533   -0.520579
     18          1           0        1.984116    2.000854   -0.666570
     19          8           0        4.761863    1.626122   -0.378797
     20          1           0        4.405402    2.461119   -0.683032
 ---------------------------------------------------------------------

 The electronic state is 1-A.
 Alpha  occ. eigenvalues --  -89.05505 -89.05440 -89.05269 -19.28859 -10.35868
 Alpha  occ. eigenvalues --  -10.34292 -10.34112 -10.32847 -10.32783 -10.32671
 Alpha  occ. eigenvalues --  -10.30983 -10.30859 -10.30846 -10.30278  -8.09553
 Alpha  occ. eigenvalues --   -8.09485  -8.09333  -6.04410  -6.04335  -6.04174
 Alpha  occ. eigenvalues --   -6.04038  -6.03961  -6.03790  -6.03594  -6.03547
 Alpha  occ. eigenvalues --   -6.03418  -1.17938  -1.02691  -0.99953  -0.95688
 Alpha  occ. eigenvalues --   -0.87694  -0.86239  -0.84339  -0.81425  -0.80368
 Alpha  occ. eigenvalues --   -0.72509  -0.68157  -0.66953  -0.64208  -0.63873
 Alpha  occ. eigenvalues --   -0.62770  -0.59049  -0.57127  -0.52498  -0.52442
 Alpha  occ. eigenvalues --   -0.52044  -0.51041  -0.49739  -0.48397  -0.47689
 Alpha  occ. eigenvalues --   -0.46190  -0.45881  -0.45257  -0.43797  -0.42606
 Alpha  occ. eigenvalues --   -0.42255  -0.37456  -0.34398  -0.31875  -0.31049
 Alpha  occ. eigenvalues --   -0.27851
 Alpha virt. eigenvalues --    0.00114   0.04487   0.05287   0.05660   0.06099
 Alpha virt. eigenvalues --    0.06785   0.07038   0.07512   0.08039   0.08918
 Alpha virt. eigenvalues --    0.09118   0.09596   0.09734   0.10320   0.10394

 Mulliken charges:
               1
     1  C   -0.747145
     2  C    0.478357
     3  C    0.237880
     4  C    0.346466
     5  S   -0.435182
     6  H    0.185821
     7  C    0.267689
     8  S   -0.542192
     9  C    0.400323
    10  C    0.141780
    11  C   -0.029814
    12  H    0.158650
    13  S   -0.448364
    14  C   -0.137872
    15  C   -0.372805
    16  H    0.194782
    17  H    0.163508
    18  H    0.143799
    19  O   -0.269805
    20  H    0.264125
 Sum of Mulliken charges =  -0.00000

 Dipole moment (field-independent basis, Debye):
    X=             -1.2610    Y=              1.3349    Z=             -0.4921  Tot=              1.9011
 Quadrupole moment (field-independent basis, Debye-Ang):
   XX=            -96.5075   YY=            -91.5878   ZZ=           -106.7622
   XY=              5.6282   XZ=             -0.2047   YZ=             -1.5659

 Normal termination of Gaussian 16 at Wed Oct 27 01:21:59 2021.
