 Gaussian 16, Revision C.01,
 Gaussian 16:  ES64L-G16RevC.01  3-Jul-2019

 --------------------------------------
 # opt=modredundant wb97xd/6-311+g(d,p)
 --------------------------------------

 ---------------
 pg2T_TT_130.pdb
 ---------------
 Symbolic Z-matrix:
 Charge =  0 Multiplicity = 1

 SCF Done:  E(RwB97XD) =  -1654.22485089     A.U. after   19 cycles
 SCF Done:  E(RwB97XD) =  -1654.29512756     A.U. after   16 cycles
 SCF Done:  E(RwB97XD) =  -1654.38383493     A.U. after   16 cycles
 SCF Done:  E(RwB97XD) =  -1654.39975764     A.U. after   16 cycles
 SCF Done:  E(RwB97XD) =  -1654.40876015     A.U. after   16 cycles
 SCF Done:  E(RwB97XD) =  -1654.41015945     A.U. after   16 cycles
 SCF Done:  E(RwB97XD) =  -1654.41123033     A.U. after   14 cycles
 SCF Done:  E(RwB97XD) =  -1654.41115123     A.U. after   15 cycles
 SCF Done:  E(RwB97XD) =  -1654.41143008     A.U. after   14 cycles
 SCF Done:  E(RwB97XD) =  -1654.41145962     A.U. after   13 cycles
 SCF Done:  E(RwB97XD) =  -1654.41146967     A.U. after   13 cycles
 SCF Done:  E(RwB97XD) =  -1654.41147433     A.U. after   12 cycles
 SCF Done:  E(RwB97XD) =  -1654.41147458     A.U. after   10 cycles
 Optimization completed.
    -- Stationary point found.

                         Standard orientation:
 ---------------------------------------------------------------------
 Center     Atomic      Atomic             Coordinates (Angstroms)
 Number     Number       Type             X           Y           Z
 ---------------------------------------------------------------------
      1          6           0        3.745677    0.712615   -0.244758
      2          6           0        2.360450    0.984949   -0.438916
      3          6           0        1.555831   -0.002770    0.056178
      4          6           0        3.973654   -0.476623    0.378545
      5         16           0        2.495818   -1.276516    0.756808
      6          1           0        4.926716   -0.913759    0.630225
      7          6           0        0.098411   -0.037870    0.032760
      8         16           0       -0.756058   -1.451778   -0.552924
      9          6           0       -2.280737   -0.671765   -0.305686
     10          6           0       -2.107324    0.609096    0.181865
     11          6           0       -0.747906    0.974812    0.380770
     12          1           0       -0.401819    1.917533    0.781144
     13         16           0       -3.634303    1.385790    0.431518
     14          6           0       -4.474061   -0.028237   -0.127391
     15          6           0       -3.644188   -1.043717   -0.484668
     16          1           0       -5.553323   -0.021758   -0.159054
     17          1           0       -3.988191   -1.999120   -0.854687
     18          1           0        1.972198    1.859679   -0.946447
     19          8           0        4.759728    1.526225   -0.640397
     20          1           0        4.400441    2.304747   -1.066633
 ---------------------------------------------------------------------

 The electronic state is 1-A.
 Alpha  occ. eigenvalues --  -89.05453 -89.05411 -89.05218 -19.28833 -10.35825
 Alpha  occ. eigenvalues --  -10.34154 -10.33988 -10.32796 -10.32734 -10.32655
 Alpha  occ. eigenvalues --  -10.30961 -10.30843 -10.30827 -10.30307  -8.09494
 Alpha  occ. eigenvalues --   -8.09456  -8.09278  -6.04349  -6.04305  -6.04116
 Alpha  occ. eigenvalues --   -6.03977  -6.03931  -6.03733  -6.03539  -6.03518
 Alpha  occ. eigenvalues --   -6.03369  -1.17904  -1.02625  -0.99899  -0.95643
 Alpha  occ. eigenvalues --   -0.87600  -0.86175  -0.84246  -0.81415  -0.80355
 Alpha  occ. eigenvalues --   -0.72422  -0.68033  -0.66901  -0.64174  -0.63702
 Alpha  occ. eigenvalues --   -0.62921  -0.58967  -0.57109  -0.52477  -0.52344
 Alpha  occ. eigenvalues --   -0.52011  -0.50932  -0.49989  -0.48345  -0.47754
 Alpha  occ. eigenvalues --   -0.46087  -0.45667  -0.44857  -0.43726  -0.42627
 Alpha  occ. eigenvalues --   -0.42352  -0.37310  -0.34057  -0.31588  -0.31075
 Alpha  occ. eigenvalues --   -0.28401
 Alpha virt. eigenvalues --    0.00753   0.04515   0.04976   0.05646   0.06101
 Alpha virt. eigenvalues --    0.06889   0.06990   0.07506   0.07614   0.08793
 Alpha virt. eigenvalues --    0.09099   0.09457   0.09705   0.10185   0.10304

 Mulliken charges:
               1
     1  C   -0.741474
     2  C    0.344377
     3  C    0.171285
     4  C    0.305564
     5  S   -0.325400
     6  H    0.186961
     7  C   -0.143127
     8  S   -0.592968
     9  C    0.284406
    10  C   -0.449163
    11  C    0.776373
    12  H    0.162569
    13  S   -0.433032
    14  C   -0.186355
    15  C    0.145422
    16  H    0.194613
    17  H    0.163528
    18  H    0.144449
    19  O   -0.272642
    20  H    0.264616
 Sum of Mulliken charges =  -0.00000

 Dipole moment (field-independent basis, Debye):
    X=             -1.2429    Y=              1.2613    Z=             -0.7581  Tot=              1.9262
 Quadrupole moment (field-independent basis, Debye-Ang):
   XX=            -96.7347   YY=            -93.3837   ZZ=           -104.8407
   XY=              5.2406   XZ=              0.1836   YZ=             -1.8400

 Normal termination of Gaussian 16 at Wed Oct 27 01:00:48 2021.
