 Gaussian 16, Revision C.01,
 Gaussian 16:  ES64L-G16RevC.01  3-Jul-2019

 --------------------------------------
 # opt=modredundant wb97xd/6-311+g(d,p)
 --------------------------------------

 ----------------
 pg2T_TT_-110.pdb
 ----------------
 Symbolic Z-matrix:
 Charge =  0 Multiplicity = 1

 SCF Done:  E(RwB97XD) =  -1654.22312894     A.U. after   18 cycles
 SCF Done:  E(RwB97XD) =  -1654.29352150     A.U. after   15 cycles
 SCF Done:  E(RwB97XD) =  -1654.38233794     A.U. after   15 cycles
 SCF Done:  E(RwB97XD) =  -1654.39836435     A.U. after   15 cycles
 SCF Done:  E(RwB97XD) =  -1654.40757167     A.U. after   15 cycles
 SCF Done:  E(RwB97XD) =  -1654.40904209     A.U. after   14 cycles
 SCF Done:  E(RwB97XD) =  -1654.41017445     A.U. after   14 cycles
 SCF Done:  E(RwB97XD) =  -1654.41011956     A.U. after   15 cycles
 SCF Done:  E(RwB97XD) =  -1654.41038855     A.U. after   13 cycles
 SCF Done:  E(RwB97XD) =  -1654.41042844     A.U. after   13 cycles
 SCF Done:  E(RwB97XD) =  -1654.41043873     A.U. after   13 cycles
 SCF Done:  E(RwB97XD) =  -1654.41044500     A.U. after   12 cycles
 SCF Done:  E(RwB97XD) =  -1654.41044530     A.U. after   10 cycles
 Optimization completed.
    -- Stationary point found.

                         Standard orientation:
 ---------------------------------------------------------------------
 Center     Atomic      Atomic             Coordinates (Angstroms)
 Number     Number       Type             X           Y           Z
 ---------------------------------------------------------------------
      1          6           0        3.755350    0.623493    0.353670
      2          6           0        2.373269    0.856060    0.613473
      3          6           0        1.557427    0.014273   -0.087231
      4          6           0        3.968056   -0.395167   -0.525081
      5         16           0        2.481354   -1.079146   -1.059873
      6          1           0        4.915981   -0.767135   -0.880161
      7          6           0        0.095387   -0.030765   -0.049854
      8         16           0       -0.734513   -1.383982    0.693820
      9          6           0       -2.270935   -0.648399    0.392467
     10          6           0       -2.119383    0.574789   -0.231655
     11          6           0       -0.766257    0.931506   -0.486566
     12          1           0       -0.433928    1.836657   -0.975565
     13         16           0       -3.658160    1.308459   -0.534030
     14          6           0       -4.473595   -0.045255    0.186260
     15          6           0       -3.627868   -1.010240    0.634305
     16          1           0       -5.552242   -0.044785    0.235677
     17          1           0       -3.955947   -1.923923    1.109286
     18          1           0        1.993479    1.603993    1.298950
     19          8           0        4.779358    1.321215    0.912430
     20          1           0        4.430175    1.978390    1.514974
 ---------------------------------------------------------------------

 The electronic state is 1-A.
 Alpha  occ. eigenvalues --  -89.05388 -89.05375 -89.05154 -19.28797 -10.35771
 Alpha  occ. eigenvalues --  -10.34029 -10.33867 -10.32760 -10.32685 -10.32652
 Alpha  occ. eigenvalues --  -10.30966 -10.30835 -10.30807 -10.30328  -8.09433
 Alpha  occ. eigenvalues --   -8.09413  -8.09211  -6.04282  -6.04267  -6.04046
 Alpha  occ. eigenvalues --   -6.03908  -6.03894  -6.03664  -6.03496  -6.03462
 Alpha  occ. eigenvalues --   -6.03307  -1.17860  -1.02561  -0.99839  -0.95599
 Alpha  occ. eigenvalues --   -0.87501  -0.86106  -0.84150  -0.81403  -0.80347
 Alpha  occ. eigenvalues --   -0.72325  -0.67895  -0.66881  -0.64200  -0.63477
 Alpha  occ. eigenvalues --   -0.63083  -0.58901  -0.57079  -0.52427  -0.52289
 Alpha  occ. eigenvalues --   -0.51974  -0.50794  -0.50280  -0.48271  -0.47777
 Alpha  occ. eigenvalues --   -0.46025  -0.45495  -0.44463  -0.43746  -0.42540
 Alpha  occ. eigenvalues --   -0.42398  -0.37226  -0.33661  -0.31258  -0.30930
 Alpha  occ. eigenvalues --   -0.29153
 Alpha virt. eigenvalues --    0.01506   0.03956   0.04951   0.05584   0.06095
 Alpha virt. eigenvalues --    0.06899   0.06977   0.07402   0.07549   0.08612
 Alpha virt. eigenvalues --    0.09001   0.09329   0.09838   0.10030   0.10318

 Mulliken charges:
               1
     1  C   -0.680072
     2  C    0.286778
     3  C    0.084151
     4  C    0.303534
     5  S   -0.244586
     6  H    0.187269
     7  C   -0.208925
     8  S   -0.549579
     9  C    0.248393
    10  C   -0.389290
    11  C    0.677271
    12  H    0.165586
    13  S   -0.424522
    14  C   -0.198485
    15  C    0.247391
    16  H    0.194536
    17  H    0.163539
    18  H    0.147471
    19  O   -0.276630
    20  H    0.266173
 Sum of Mulliken charges =  -0.00000

 Dipole moment (field-independent basis, Debye):
    X=             -1.2212    Y=              1.0922    Z=              1.0715  Tot=              1.9576
 Quadrupole moment (field-independent basis, Debye-Ang):
   XX=            -96.8482   YY=            -96.1959   ZZ=           -101.9077
   XY=              4.7438   XZ=              0.0144   YZ=              2.1551

 Normal termination of Gaussian 16 at Tue Oct 26 22:48:20 2021.
