 Gaussian 16, Revision C.01,
 Gaussian 16:  ES64L-G16RevC.01  3-Jul-2019

 --------------------------------------
 # opt=modredundant wb97xd/6-311+g(d,p)
 --------------------------------------

 ---------------
 pg2T_TT_175.pdb
 ---------------
 Symbolic Z-matrix:
 Charge =  0 Multiplicity = 1

 SCF Done:  E(RwB97XD) =  -1654.22434746     A.U. after   19 cycles
 SCF Done:  E(RwB97XD) =  -1654.29450881     A.U. after   16 cycles
 SCF Done:  E(RwB97XD) =  -1654.38300992     A.U. after   17 cycles
 SCF Done:  E(RwB97XD) =  -1654.39864030     A.U. after   16 cycles
 SCF Done:  E(RwB97XD) =  -1654.40741578     A.U. after   15 cycles
 SCF Done:  E(RwB97XD) =  -1654.40879719     A.U. after   15 cycles
 SCF Done:  E(RwB97XD) =  -1654.40986723     A.U. after   14 cycles
 SCF Done:  E(RwB97XD) =  -1654.40985503     A.U. after   14 cycles
 SCF Done:  E(RwB97XD) =  -1654.41007835     A.U. after   13 cycles
 SCF Done:  E(RwB97XD) =  -1654.41011675     A.U. after   12 cycles
 SCF Done:  E(RwB97XD) =  -1654.41011677     A.U. after   12 cycles
 SCF Done:  E(RwB97XD) =  -1654.41012075     A.U. after   11 cycles
 SCF Done:  E(RwB97XD) =  -1654.41012095     A.U. after   10 cycles
 Optimization completed.
    -- Stationary point found.

                         Standard orientation:
 ---------------------------------------------------------------------
 Center     Atomic      Atomic             Coordinates (Angstroms)
 Number     Number       Type             X           Y           Z
 ---------------------------------------------------------------------
      1          6           0        3.747817    0.783321   -0.021615
      2          6           0        2.362987    1.107364   -0.068461
      3          6           0        1.556494    0.001444   -0.018605
      4          6           0        3.982329   -0.555163    0.066033
      5         16           0        2.506857   -1.441967    0.098664
      6          1           0        4.935456   -1.056825    0.110768
      7          6           0        0.100725   -0.026497   -0.021837
      8         16           0       -0.776229   -1.544431   -0.084069
      9          6           0       -2.292541   -0.713539   -0.038352
     10          6           0       -2.103502    0.653217    0.016567
     11          6           0       -0.740591    1.050332    0.029696
     12          1           0       -0.397827    2.073870    0.085922
     13         16           0       -3.622345    1.483036    0.062486
     14          6           0       -4.478740   -0.027449    0.004444
     15          6           0       -3.659533   -1.111296   -0.046013
     16          1           0       -5.558387   -0.021407    0.011405
     17          1           0       -4.013976   -2.131471   -0.086147
     18          1           0        1.986367    2.119670   -0.148627
     19          8           0        4.758344    1.690678   -0.060514
     20          1           0        4.396425    2.574110   -0.133653
 ---------------------------------------------------------------------

 The electronic state is 1-A.
 Alpha  occ. eigenvalues --  -89.05534 -89.05466 -89.05307 -19.28871 -10.35892
 Alpha  occ. eigenvalues --  -10.34446 -10.34263 -10.32887 -10.32823 -10.32688
 Alpha  occ. eigenvalues --  -10.31017 -10.30891 -10.30862 -10.30283  -8.09590
 Alpha  occ. eigenvalues --   -8.09511  -8.09380  -6.04450  -6.04360  -6.04224
 Alpha  occ. eigenvalues --   -6.04077  -6.03987  -6.03838  -6.03624  -6.03572
 Alpha  occ. eigenvalues --   -6.03460  -1.17955  -1.02744  -1.00001  -0.95724
 Alpha  occ. eigenvalues --   -0.87766  -0.86286  -0.84425  -0.81423  -0.80398
 Alpha  occ. eigenvalues --   -0.72578  -0.68263  -0.67023  -0.64298  -0.63993
 Alpha  occ. eigenvalues --   -0.62646  -0.59135  -0.57150  -0.52549  -0.52513
 Alpha  occ. eigenvalues --   -0.52057  -0.51160  -0.49523  -0.48404  -0.47492
 Alpha  occ. eigenvalues --   -0.46326  -0.46297  -0.45575  -0.43861  -0.42528
 Alpha  occ. eigenvalues --   -0.42096  -0.37645  -0.34684  -0.32120  -0.30919
 Alpha  occ. eigenvalues --   -0.27439
 Alpha virt. eigenvalues --   -0.00424   0.04242   0.05466   0.05640   0.06075
 Alpha virt. eigenvalues --    0.06629   0.07036   0.07468   0.08684   0.08826
 Alpha virt. eigenvalues --    0.09099   0.09638   0.10034   0.10476   0.10568

 Mulliken charges:
               1
     1  C   -0.752627
     2  C    0.916151
     3  C    0.093336
     4  C    0.342334
     5  S   -0.559878
     6  H    0.185061
     7  C   -0.133744
     8  S   -0.618520
     9  C    0.345225
    10  C    0.264195
    11  C    0.161604
    12  H    0.150118
    13  S   -0.458225
    14  C   -0.156013
    15  C   -0.266794
    16  H    0.195321
    17  H    0.163218
    18  H    0.134404
    19  O   -0.270744
    20  H    0.265579
 Sum of Mulliken charges =  -0.00000

 Dipole moment (field-independent basis, Debye):
    X=             -1.2868    Y=              1.4080    Z=             -0.0991  Tot=              1.9101
 Quadrupole moment (field-independent basis, Debye-Ang):
   XX=            -96.4900   YY=            -90.1032   ZZ=           -108.2620
   XY=              5.8292   XZ=             -0.1864   YZ=             -0.4527

 Normal termination of Gaussian 16 at Wed Oct 27 01:34:51 2021.
