 Gaussian 16, Revision C.01,
 Gaussian 16:  ES64L-G16RevC.01  3-Jul-2019

 --------------------------------------
 # opt=modredundant wb97xd/6-311+g(d,p)
 --------------------------------------

 ----------------
 pg2T_TT_-170.pdb
 ----------------
 Symbolic Z-matrix:
 Charge =  0 Multiplicity = 1

 SCF Done:  E(RwB97XD) =  -1654.22412601     A.U. after   19 cycles
 SCF Done:  E(RwB97XD) =  -1654.29432976     A.U. after   16 cycles
 SCF Done:  E(RwB97XD) =  -1654.38288442     A.U. after   16 cycles
 SCF Done:  E(RwB97XD) =  -1654.39860491     A.U. after   15 cycles
 SCF Done:  E(RwB97XD) =  -1654.40755969     A.U. after   15 cycles
 SCF Done:  E(RwB97XD) =  -1654.40898956     A.U. after   14 cycles
 SCF Done:  E(RwB97XD) =  -1654.41007749     A.U. after   14 cycles
 SCF Done:  E(RwB97XD) =  -1654.41004691     A.U. after   14 cycles
 SCF Done:  E(RwB97XD) =  -1654.41030313     A.U. after   13 cycles
 SCF Done:  E(RwB97XD) =  -1654.41033537     A.U. after   12 cycles
 SCF Done:  E(RwB97XD) =  -1654.41033571     A.U. after   12 cycles
 SCF Done:  E(RwB97XD) =  -1654.41034141     A.U. after   11 cycles
 SCF Done:  E(RwB97XD) =  -1654.41034157     A.U. after   10 cycles
 Optimization completed.
    -- Stationary point found.

                         Standard orientation:
 ---------------------------------------------------------------------
 Center     Atomic      Atomic             Coordinates (Angstroms)
 Number     Number       Type             X           Y           Z
 ---------------------------------------------------------------------
      1          6           0        3.747632    0.779945    0.043393
      2          6           0        2.363706    1.100388    0.129514
      3          6           0        1.556459   -0.001294    0.029058
      4          6           0        3.979954   -0.551514   -0.122812
      5         16           0        2.503501   -1.435081   -0.189019
      6          1           0        4.932272   -1.049841   -0.206000
      7          6           0        0.100946   -0.027469    0.035774
      8         16           0       -0.776748   -1.540898    0.158546
      9          6           0       -2.292334   -0.711342    0.074480
     10          6           0       -2.102132    0.652121   -0.033941
     11          6           0       -0.738719    1.047132   -0.063472
     12          1           0       -0.393216    2.065550   -0.172129
     13         16           0       -3.620178    1.480370   -0.118413
     14          6           0       -4.477889   -0.026132   -0.003767
     15          6           0       -3.659705   -1.107549    0.093292
     16          1           0       -5.557501   -0.019712   -0.014997
     17          1           0       -4.015072   -2.125098    0.172706
     18          1           0        1.987553    2.104606    0.281596
     19          8           0        4.759273    1.683480    0.122154
     20          1           0        4.399051    2.560680    0.254645
 ---------------------------------------------------------------------

 The electronic state is 1-A.
 Alpha  occ. eigenvalues --  -89.05531 -89.05463 -89.05301 -19.28871 -10.35890
 Alpha  occ. eigenvalues --  -10.34424 -10.34241 -10.32883 -10.32819 -10.32686
 Alpha  occ. eigenvalues --  -10.31012 -10.30887 -10.30860 -10.30279  -8.09586
 Alpha  occ. eigenvalues --   -8.09508  -8.09372  -6.04445  -6.04357  -6.04215
 Alpha  occ. eigenvalues --   -6.04072  -6.03984  -6.03830  -6.03621  -6.03569
 Alpha  occ. eigenvalues --   -6.03453  -1.17955  -1.02739  -0.99994  -0.95720
 Alpha  occ. eigenvalues --   -0.87757  -0.86281  -0.84414  -0.81424  -0.80393
 Alpha  occ. eigenvalues --   -0.72570  -0.68250  -0.67013  -0.64283  -0.63980
 Alpha  occ. eigenvalues --   -0.62660  -0.59124  -0.57146  -0.52538  -0.52509
 Alpha  occ. eigenvalues --   -0.52057  -0.51143  -0.49548  -0.48407  -0.47533
 Alpha  occ. eigenvalues --   -0.46287  -0.46242  -0.45543  -0.43854  -0.42538
 Alpha  occ. eigenvalues --   -0.42120  -0.37618  -0.34649  -0.32091  -0.30940
 Alpha  occ. eigenvalues --   -0.27486
 Alpha virt. eigenvalues --   -0.00361   0.04278   0.05452   0.05639   0.06080
 Alpha virt. eigenvalues --    0.06652   0.07040   0.07484   0.08576   0.08862
 Alpha virt. eigenvalues --    0.09112   0.09641   0.09975   0.10427   0.10553

 Mulliken charges:
               1
     1  C   -0.730566
     2  C    0.831610
     3  C    0.100170
     4  C    0.356681
     5  S   -0.539483
     6  H    0.184809
     7  C   -0.037382
     8  S   -0.599651
     9  C    0.363731
    10  C    0.270630
    11  C    0.081914
    12  H    0.151318
    13  S   -0.457185
    14  C   -0.150782
    15  C   -0.315187
    16  H    0.195128
    17  H    0.163269
    18  H    0.135948
    19  O   -0.270152
    20  H    0.265179
 Sum of Mulliken charges =  -0.00000

 Dipole moment (field-independent basis, Debye):
    X=             -1.2826    Y=              1.3975    Z=              0.1845  Tot=              1.9058
 Quadrupole moment (field-independent basis, Debye-Ang):
   XX=            -96.4649   YY=            -90.2884   ZZ=           -108.0850
   XY=              5.8212   XZ=              0.2827   YZ=              0.8018

 Normal termination of Gaussian 16 at Tue Oct 26 22:11:18 2021.
