 Gaussian 16, Revision C.01,
 Gaussian 16:  ES64L-G16RevC.01  3-Jul-2019

 --------------------------------------
 # opt=modredundant wb97xd/6-311+g(d,p)
 --------------------------------------

 --------------
 pg2T_TT_50.pdb
 --------------
 Symbolic Z-matrix:
 Charge =  0 Multiplicity = 1

 SCF Done:  E(RwB97XD) =  -1654.22538156     A.U. after   19 cycles
 SCF Done:  E(RwB97XD) =  -1654.29567457     A.U. after   15 cycles
 SCF Done:  E(RwB97XD) =  -1654.38443531     A.U. after   16 cycles
 SCF Done:  E(RwB97XD) =  -1654.40030534     A.U. after   15 cycles
 SCF Done:  E(RwB97XD) =  -1654.40936734     A.U. after   16 cycles
 SCF Done:  E(RwB97XD) =  -1654.41076023     A.U. after   15 cycles
 SCF Done:  E(RwB97XD) =  -1654.41183473     A.U. after   15 cycles
 SCF Done:  E(RwB97XD) =  -1654.41171908     A.U. after   15 cycles
 SCF Done:  E(RwB97XD) =  -1654.41219396     A.U. after   13 cycles
 SCF Done:  E(RwB97XD) =  -1654.41220534     A.U. after   13 cycles
 SCF Done:  E(RwB97XD) =  -1654.41221050     A.U. after   13 cycles
 SCF Done:  E(RwB97XD) =  -1654.41221646     A.U. after   13 cycles
 SCF Done:  E(RwB97XD) =  -1654.41221660     A.U. after   11 cycles
 Optimization completed.
    -- Stationary point found.

                         Standard orientation:
 ---------------------------------------------------------------------
 Center     Atomic      Atomic             Coordinates (Angstroms)
 Number     Number       Type             X           Y           Z
 ---------------------------------------------------------------------
      1          6           0        3.809052    0.362292    0.337119
      2          6           0        2.464303    0.801894    0.505463
      3          6           0        1.554973   -0.082264   -0.004637
      4          6           0        3.902840   -0.845832   -0.285192
      5         16           0        2.345708   -1.457389   -0.694808
      6          1           0        4.800902   -1.392408   -0.525001
      7          6           0        0.100234    0.012238    0.012456
      8         16           0       -0.679704    1.487264   -0.524699
      9          6           0       -2.243584    0.805454   -0.233102
     10          6           0       -2.136461   -0.493216    0.225680
     11          6           0       -0.798118   -0.952111    0.366671
     12          1           0       -0.504652   -1.927460    0.729749
     13         16           0       -3.700716   -1.174890    0.517551
     14          6           0       -4.466105    0.300911    0.015263
     15          6           0       -3.585375    1.267978   -0.354820
     16          1           0       -5.543983    0.364106    0.022225
     17          1           0       -3.879786    2.250126   -0.696568
     18          1           0        2.180003    1.720751    1.004496
     19          8           0        4.906682    1.045252    0.755513
     20          1           0        4.638900    1.879031    1.142881
 ---------------------------------------------------------------------

 The electronic state is 1-A.
 Alpha  occ. eigenvalues --  -89.05492 -89.05389 -89.05256 -19.28804 -10.35828
 Alpha  occ. eigenvalues --  -10.34171 -10.34000 -10.32799 -10.32735 -10.32648
 Alpha  occ. eigenvalues --  -10.30927 -10.30833 -10.30826 -10.30277  -8.09533
 Alpha  occ. eigenvalues --   -8.09434  -8.09313  -6.04388  -6.04282  -6.04151
 Alpha  occ. eigenvalues --   -6.04017  -6.03909  -6.03768  -6.03577  -6.03497
 Alpha  occ. eigenvalues --   -6.03403  -1.17884  -1.02627  -0.99913  -0.95650
 Alpha  occ. eigenvalues --   -0.87517  -0.86268  -0.84252  -0.81413  -0.80352
 Alpha  occ. eigenvalues --   -0.72420  -0.67888  -0.67034  -0.64588  -0.63658
 Alpha  occ. eigenvalues --   -0.62499  -0.58908  -0.57077  -0.52477  -0.52420
 Alpha  occ. eigenvalues --   -0.52034  -0.50933  -0.50202  -0.48152  -0.47835
 Alpha  occ. eigenvalues --   -0.46206  -0.45481  -0.44942  -0.43633  -0.42573
 Alpha  occ. eigenvalues --   -0.42417  -0.37352  -0.34063  -0.31706  -0.30965
 Alpha  occ. eigenvalues --   -0.28386
 Alpha virt. eigenvalues --    0.00707   0.04743   0.05047   0.05500   0.06058
 Alpha virt. eigenvalues --    0.06808   0.07317   0.07503   0.07605   0.08513
 Alpha virt. eigenvalues --    0.09126   0.09408   0.09793   0.09931   0.10153

 Mulliken charges:
               1
     1  C   -0.666933
     2  C    0.156231
     3  C    0.224768
     4  C    0.258436
     5  S   -0.262241
     6  H    0.187723
     7  C   -0.010789
     8  S   -0.550739
     9  C    0.317347
    10  C   -0.705101
    11  C    0.876516
    12  H    0.173320
    13  S   -0.432701
    14  C   -0.194755
    15  C    0.123638
    16  H    0.194391
    17  H    0.163180
    18  H    0.153993
    19  O   -0.270828
    20  H    0.264545
 Sum of Mulliken charges =  -0.00000

 Dipole moment (field-independent basis, Debye):
    X=             -1.1020    Y=              1.4005    Z=              0.6978  Tot=              1.9138
 Quadrupole moment (field-independent basis, Debye-Ang):
   XX=            -96.3709   YY=            -93.1677   ZZ=           -105.0656
   XY=              0.0428   XZ=              2.4321   YZ=              1.8845

 Normal termination of Gaussian 16 at Wed Oct 27 00:11:17 2021.
