 Gaussian 16, Revision C.01,
 Gaussian 16:  ES64L-G16RevC.01  3-Jul-2019

 --------------------------------------
 # opt=modredundant wb97xd/6-311+g(d,p)
 --------------------------------------

 ----------------
 pg2T_TT_-175.pdb
 ----------------
 Symbolic Z-matrix:
 Charge =  0 Multiplicity = 1

 SCF Done:  E(RwB97XD) =  -1654.22421161     A.U. after   19 cycles
 SCF Done:  E(RwB97XD) =  -1654.29436877     A.U. after   16 cycles
 SCF Done:  E(RwB97XD) =  -1654.38287104     A.U. after   17 cycles
 SCF Done:  E(RwB97XD) =  -1654.39852227     A.U. after   16 cycles
 SCF Done:  E(RwB97XD) =  -1654.40738357     A.U. after   15 cycles
 SCF Done:  E(RwB97XD) =  -1654.40878414     A.U. after   16 cycles
 SCF Done:  E(RwB97XD) =  -1654.40986018     A.U. after   14 cycles
 SCF Done:  E(RwB97XD) =  -1654.40983659     A.U. after   14 cycles
 SCF Done:  E(RwB97XD) =  -1654.41008174     A.U. after   13 cycles
 SCF Done:  E(RwB97XD) =  -1654.41011522     A.U. after   12 cycles
 SCF Done:  E(RwB97XD) =  -1654.41011552     A.U. after   12 cycles
 SCF Done:  E(RwB97XD) =  -1654.41012047     A.U. after   11 cycles
 SCF Done:  E(RwB97XD) =  -1654.41012063     A.U. after   10 cycles
 Optimization completed.
    -- Stationary point found.

                         Standard orientation:
 ---------------------------------------------------------------------
 Center     Atomic      Atomic             Coordinates (Angstroms)
 Number     Number       Type             X           Y           Z
 ---------------------------------------------------------------------
      1          6           0        3.747813    0.783374    0.021123
      2          6           0        2.362986    1.107396    0.068271
      3          6           0        1.556493    0.001468    0.018396
      4          6           0        3.982341   -0.555176   -0.065597
      5         16           0        2.506872   -1.442000   -0.098060
      6          1           0        4.935477   -1.056847   -0.110026
      7          6           0        0.100720   -0.026509    0.021566
      8         16           0       -0.776225   -1.544454    0.083543
      9          6           0       -2.292541   -0.713543    0.038174
     10          6           0       -2.103507    0.653214   -0.016671
     11          6           0       -0.740595    1.050311   -0.030187
     12          1           0       -0.397817    2.073839   -0.086497
     13         16           0       -3.622361    1.483065   -0.061809
     14          6           0       -4.478742   -0.027461   -0.004617
     15          6           0       -3.659532   -1.111300    0.046002
     16          1           0       -5.558387   -0.021444   -0.011969
     17          1           0       -4.013968   -2.131486    0.085909
     18          1           0        1.986393    2.119662    0.148621
     19          8           0        4.758350    1.690679    0.060889
     20          1           0        4.396306    2.574438    0.129304
 ---------------------------------------------------------------------

 The electronic state is 1-A.
 Alpha  occ. eigenvalues --  -89.05534 -89.05466 -89.05307 -19.28871 -10.35892
 Alpha  occ. eigenvalues --  -10.34446 -10.34263 -10.32887 -10.32823 -10.32688
 Alpha  occ. eigenvalues --  -10.31017 -10.30891 -10.30862 -10.30283  -8.09590
 Alpha  occ. eigenvalues --   -8.09511  -8.09380  -6.04450  -6.04360  -6.04224
 Alpha  occ. eigenvalues --   -6.04077  -6.03987  -6.03838  -6.03624  -6.03572
 Alpha  occ. eigenvalues --   -6.03460  -1.17956  -1.02744  -1.00001  -0.95724
 Alpha  occ. eigenvalues --   -0.87766  -0.86286  -0.84425  -0.81424  -0.80398
 Alpha  occ. eigenvalues --   -0.72578  -0.68263  -0.67023  -0.64298  -0.63993
 Alpha  occ. eigenvalues --   -0.62646  -0.59135  -0.57150  -0.52549  -0.52513
 Alpha  occ. eigenvalues --   -0.52058  -0.51160  -0.49523  -0.48405  -0.47492
 Alpha  occ. eigenvalues --   -0.46332  -0.46293  -0.45574  -0.43860  -0.42528
 Alpha  occ. eigenvalues --   -0.42096  -0.37645  -0.34684  -0.32120  -0.30919
 Alpha  occ. eigenvalues --   -0.27439
 Alpha virt. eigenvalues --   -0.00424   0.04242   0.05466   0.05640   0.06075
 Alpha virt. eigenvalues --    0.06629   0.07036   0.07468   0.08684   0.08826
 Alpha virt. eigenvalues --    0.09099   0.09638   0.10034   0.10475   0.10568

 Mulliken charges:
               1
     1  C   -0.752030
     2  C    0.916691
     3  C    0.093653
     4  C    0.342061
     5  S   -0.560063
     6  H    0.185061
     7  C   -0.132354
     8  S   -0.618154
     9  C    0.344931
    10  C    0.263971
    11  C    0.160357
    12  H    0.150123
    13  S   -0.458223
    14  C   -0.155964
    15  C   -0.267822
    16  H    0.195318
    17  H    0.163217
    18  H    0.134400
    19  O   -0.270751
    20  H    0.265578
 Sum of Mulliken charges =  -0.00000

 Dipole moment (field-independent basis, Debye):
    X=             -1.2871    Y=              1.4085    Z=              0.0915  Tot=              1.9102
 Quadrupole moment (field-independent basis, Debye-Ang):
   XX=            -96.4916   YY=            -90.0994   ZZ=           -108.2650
   XY=              5.8311   XZ=              0.1542   YZ=              0.4280

 Normal termination of Gaussian 16 at Tue Oct 26 22:10:38 2021.
