 Gaussian 16, Revision C.01,
 Gaussian 16:  ES64L-G16RevC.01  3-Jul-2019

 --------------------------------------
 # opt=modredundant wb97xd/6-311+g(d,p)
 --------------------------------------

 ---------------
 pg2T_TT_155.pdb
 ---------------
 Symbolic Z-matrix:
 Charge =  0 Multiplicity = 1

 SCF Done:  E(RwB97XD) =  -1654.22522683     A.U. after   19 cycles
 SCF Done:  E(RwB97XD) =  -1654.29540638     A.U. after   15 cycles
 SCF Done:  E(RwB97XD) =  -1654.38395778     A.U. after   16 cycles
 SCF Done:  E(RwB97XD) =  -1654.39968142     A.U. after   15 cycles
 SCF Done:  E(RwB97XD) =  -1654.40858310     A.U. after   15 cycles
 SCF Done:  E(RwB97XD) =  -1654.40996570     A.U. after   15 cycles
 SCF Done:  E(RwB97XD) =  -1654.41098546     A.U. after   14 cycles
 SCF Done:  E(RwB97XD) =  -1654.41097104     A.U. after   13 cycles
 SCF Done:  E(RwB97XD) =  -1654.41117130     A.U. after   14 cycles
 SCF Done:  E(RwB97XD) =  -1654.41121707     A.U. after   12 cycles
 SCF Done:  E(RwB97XD) =  -1654.41122011     A.U. after   12 cycles
 SCF Done:  E(RwB97XD) =  -1654.41122489     A.U. after   11 cycles
 SCF Done:  E(RwB97XD) =  -1654.41122516     A.U. after   10 cycles
 Optimization completed.
    -- Stationary point found.

                         Standard orientation:
 ---------------------------------------------------------------------
 Center     Atomic      Atomic             Coordinates (Angstroms)
 Number     Number       Type             X           Y           Z
 ---------------------------------------------------------------------
      1          6           0        3.747330    0.761966   -0.115811
      2          6           0        2.364937    1.065966   -0.270567
      3          6           0        1.556185   -0.009026   -0.019349
      4          6           0        3.973680   -0.531187    0.246431
      5         16           0        2.494367   -1.395433    0.423937
      6          1           0        4.924416   -1.011957    0.411795
      7          6           0        0.101311   -0.031505   -0.034489
      8         16           0       -0.775731   -1.519098   -0.337257
      9          6           0       -2.290621   -0.699879   -0.170544
     10          6           0       -2.099324    0.643182    0.089061
     11          6           0       -0.734905    1.028333    0.177825
     12          1           0       -0.382134    2.021963    0.416319
     13         16           0       -3.616562    1.459887    0.257257
     14          6           0       -4.475798   -0.022593   -0.028800
     15          6           0       -3.658782   -1.088445   -0.239943
     16          1           0       -5.555464   -0.014932   -0.023967
     17          1           0       -4.015378   -2.090140   -0.433514
     18          1           0        1.987170    2.030578   -0.587320
     19          8           0        4.762267    1.643428   -0.313358
     20          1           0        4.405986    2.490514   -0.582318
 ---------------------------------------------------------------------

 The electronic state is 1-A.
 Alpha  occ. eigenvalues --  -89.05513 -89.05447 -89.05278 -19.28863 -10.35876
 Alpha  occ. eigenvalues --  -10.34328 -10.34145 -10.32858 -10.32794 -10.32676
 Alpha  occ. eigenvalues --  -10.30992 -10.30867 -10.30849 -10.30275  -8.09563
 Alpha  occ. eigenvalues --   -8.09492  -8.09344  -6.04421  -6.04342  -6.04185
 Alpha  occ. eigenvalues --   -6.04048  -6.03968  -6.03801  -6.03602  -6.03554
 Alpha  occ. eigenvalues --   -6.03428  -1.17944  -1.02705  -0.99965  -0.95697
 Alpha  occ. eigenvalues --   -0.87713  -0.86252  -0.84360  -0.81426  -0.80374
 Alpha  occ. eigenvalues --   -0.72527  -0.68184  -0.66968  -0.64225  -0.63906
 Alpha  occ. eigenvalues --   -0.62737  -0.59069  -0.57132  -0.52505  -0.52465
 Alpha  occ. eigenvalues --   -0.52050  -0.51068  -0.49681  -0.48404  -0.47660
 Alpha  occ. eigenvalues --   -0.46217  -0.45957  -0.45347  -0.43814  -0.42588
 Alpha  occ. eigenvalues --   -0.42222  -0.37498  -0.34471  -0.31937  -0.31026
 Alpha  occ. eigenvalues --   -0.27741
 Alpha virt. eigenvalues --   -0.00026   0.04436   0.05342   0.05656   0.06095
 Alpha virt. eigenvalues --    0.06751   0.07043   0.07509   0.08176   0.08922
 Alpha virt. eigenvalues --    0.09118   0.09612   0.09780   0.10339   0.10436

 Mulliken charges:
               1
     1  C   -0.740451
     2  C    0.552747
     3  C    0.193818
     4  C    0.356051
     5  S   -0.458349
     6  H    0.185495
     7  C    0.215275
     8  S   -0.555354
     9  C    0.392428
    10  C    0.174324
    11  C   -0.008578
    12  H    0.156882
    13  S   -0.450137
    14  C   -0.139897
    15  C   -0.369486
    16  H    0.194833
    17  H    0.163447
    18  H    0.142185
    19  O   -0.269471
    20  H    0.264238
 Sum of Mulliken charges =  -0.00000

 Dipole moment (field-independent basis, Debye):
    X=             -1.2661    Y=              1.3519    Z=             -0.4198  Tot=              1.8992
 Quadrupole moment (field-independent basis, Debye-Ang):
   XX=            -96.4735   YY=            -91.2086   ZZ=           -107.1562
   XY=              5.7044   XZ=             -0.2788   YZ=             -1.4491

 Normal termination of Gaussian 16 at Wed Oct 27 01:18:26 2021.
