 Gaussian 16, Revision C.01,
 Gaussian 16:  ES64L-G16RevC.01  3-Jul-2019

 --------------------------------------
 # opt=modredundant wb97xd/6-311+g(d,p)
 --------------------------------------

 ---------------
 pg2T_TT_-20.pdb
 ---------------
 Symbolic Z-matrix:
 Charge =  0 Multiplicity = 1

 SCF Done:  E(RwB97XD) =  -1654.22695264     A.U. after   19 cycles
 SCF Done:  E(RwB97XD) =  -1654.29701088     A.U. after   15 cycles
 SCF Done:  E(RwB97XD) =  -1654.38531511     A.U. after   16 cycles
 SCF Done:  E(RwB97XD) =  -1654.40078750     A.U. after   15 cycles
 SCF Done:  E(RwB97XD) =  -1654.40966950     A.U. after   16 cycles
 SCF Done:  E(RwB97XD) =  -1654.41109245     A.U. after   15 cycles
 SCF Done:  E(RwB97XD) =  -1654.41207252     A.U. after   14 cycles
 SCF Done:  E(RwB97XD) =  -1654.41221226     A.U. after   13 cycles
 SCF Done:  E(RwB97XD) =  -1654.41222097     A.U. after   13 cycles
 SCF Done:  E(RwB97XD) =  -1654.41227949     A.U. after   13 cycles
 SCF Done:  E(RwB97XD) =  -1654.41228096     A.U. after   11 cycles
 SCF Done:  E(RwB97XD) =  -1654.41228137     A.U. after   11 cycles
 SCF Done:  E(RwB97XD) =  -1654.41228168     A.U. after   10 cycles
 Optimization completed.
    -- Stationary point found.

                         Standard orientation:
 ---------------------------------------------------------------------
 Center     Atomic      Atomic             Coordinates (Angstroms)
 Number     Number       Type             X           Y           Z
 ---------------------------------------------------------------------
      1          6           0       -3.811619    0.412585    0.154896
      2          6           0       -2.467836    0.880323    0.224066
      3          6           0       -1.550805   -0.111491    0.006205
      4          6           0       -3.901687   -0.918385   -0.115911
      5         16           0       -2.339819   -1.621114   -0.308979
      6          1           0       -4.796647   -1.511699   -0.212972
      7          6           0       -0.100655   -0.007349   -0.011732
      8         16           0        0.657812    1.554991   -0.257525
      9          6           0        2.232944    0.852287   -0.110610
     10          6           0        2.146634   -0.509634    0.099980
     11          6           0        0.816384   -1.004725    0.164433
     12          1           0        0.546330   -2.035197    0.351416
     13         16           0        3.722039   -1.211643    0.244228
     14          6           0        4.463623    0.341971    0.015328
     15          6           0        3.566439    1.348384   -0.161138
     16          1           0        5.540616    0.418044    0.024032
     17          1           0        3.844582    2.380846   -0.318242
     18          1           0       -2.196306    1.904169    0.452970
     19          8           0       -4.911807    1.186672    0.344263
     20          1           0       -4.645153    2.090913    0.511997
 ---------------------------------------------------------------------

 The electronic state is 1-A.
 Alpha  occ. eigenvalues --  -89.05564 -89.05456 -89.05252 -19.28836 -10.35870
 Alpha  occ. eigenvalues --  -10.34372 -10.34195 -10.32889 -10.32822 -10.32696
 Alpha  occ. eigenvalues --  -10.30987 -10.30901 -10.30864 -10.30298  -8.09616
 Alpha  occ. eigenvalues --   -8.09500  -8.09319  -6.04476  -6.04349  -6.04164
 Alpha  occ. eigenvalues --   -6.04105  -6.03975  -6.03780  -6.03651  -6.03563
 Alpha  occ. eigenvalues --   -6.03397  -1.17925  -1.02735  -0.99971  -0.95728
 Alpha  occ. eigenvalues --   -0.87635  -0.86423  -0.84350  -0.81440  -0.80396
 Alpha  occ. eigenvalues --   -0.72550  -0.68047  -0.67142  -0.64773  -0.63829
 Alpha  occ. eigenvalues --   -0.62239  -0.58997  -0.57115  -0.52567  -0.52504
 Alpha  occ. eigenvalues --   -0.52110  -0.51108  -0.49991  -0.48097  -0.47864
 Alpha  occ. eigenvalues --   -0.46386  -0.45683  -0.45571  -0.43572  -0.42590
 Alpha  occ. eigenvalues --   -0.42391  -0.37491  -0.34650  -0.31788  -0.31242
 Alpha  occ. eigenvalues --   -0.27615
 Alpha virt. eigenvalues --   -0.00191   0.04831   0.05400   0.05551   0.06045
 Alpha virt. eigenvalues --    0.06728   0.07517   0.07651   0.08139   0.08532
 Alpha virt. eigenvalues --    0.09015   0.09419   0.10010   0.10139   0.10159

 Mulliken charges:
               1
     1  C   -0.776214
     2  C    0.775722
     3  C    0.116128
     4  C    0.339554
     5  S   -0.521837
     6  H    0.186252
     7  C    0.086183
     8  S   -0.608453
     9  C    0.328099
    10  C    0.248555
    11  C    0.090716
    12  H    0.169717
    13  S   -0.460749
    14  C   -0.137495
    15  C   -0.335549
    16  H    0.194784
    17  H    0.162575
    18  H    0.149164
    19  O   -0.271686
    20  H    0.264535
 Sum of Mulliken charges =  -0.00000

 Dipole moment (field-independent basis, Debye):
    X=              1.1481    Y=              1.5292    Z=              0.3448  Tot=              1.9431
 Quadrupole moment (field-independent basis, Debye-Ang):
   XX=            -96.1829   YY=            -90.7631   ZZ=           -107.6869
   XY=             -0.2919   XZ=             -1.0393   YZ=              0.8831

 Normal termination of Gaussian 16 at Tue Oct 26 23:24:47 2021.
