 Gaussian 16, Revision C.01,
 Gaussian 16:  ES64L-G16RevC.01  3-Jul-2019

 --------------------------------------
 # opt=modredundant wb97xd/6-311+g(d,p)
 --------------------------------------

 --------------
 pg2T_TT_90.pdb
 --------------
 Symbolic Z-matrix:
 Charge =  0 Multiplicity = 1

 SCF Done:  E(RwB97XD) =  -1654.22314401     A.U. after   18 cycles
 SCF Done:  E(RwB97XD) =  -1654.29345862     A.U. after   15 cycles
 SCF Done:  E(RwB97XD) =  -1654.38216680     A.U. after   16 cycles
 SCF Done:  E(RwB97XD) =  -1654.39799010     A.U. after   15 cycles
 SCF Done:  E(RwB97XD) =  -1654.40702330     A.U. after   15 cycles
 SCF Done:  E(RwB97XD) =  -1654.40843267     A.U. after   15 cycles
 SCF Done:  E(RwB97XD) =  -1654.40951144     A.U. after   14 cycles
 SCF Done:  E(RwB97XD) =  -1654.40931665     A.U. after   14 cycles
 SCF Done:  E(RwB97XD) =  -1654.40980911     A.U. after   13 cycles
 SCF Done:  E(RwB97XD) =  -1654.40980966     A.U. after   13 cycles
 SCF Done:  E(RwB97XD) =  -1654.40983141     A.U. after   13 cycles
 SCF Done:  E(RwB97XD) =  -1654.40983576     A.U. after   12 cycles
 SCF Done:  E(RwB97XD) =  -1654.40983561     A.U. after   10 cycles
 SCF Done:  E(RwB97XD) =  -1654.40983534     A.U. after   10 cycles
 SCF Done:  E(RwB97XD) =  -1654.40983462     A.U. after   11 cycles
 SCF Done:  E(RwB97XD) =  -1654.40983333     A.U. after   11 cycles
 SCF Done:  E(RwB97XD) =  -1654.40983565     A.U. after   10 cycles
 SCF Done:  E(RwB97XD) =  -1654.40983527     A.U. after   11 cycles
 Optimization completed.
    -- Stationary point found.

                         Standard orientation:
 ---------------------------------------------------------------------
 Center     Atomic      Atomic             Coordinates (Angstroms)
 Number     Number       Type             X           Y           Z
 ---------------------------------------------------------------------
      1          6           0       -3.785871   -0.200766   -0.601378
      2          6           0       -2.420104   -0.161692   -1.007644
      3          6           0       -1.560093   -0.056619    0.047337
      4          6           0       -3.941793   -0.123148    0.749666
      5         16           0       -2.421321   -0.002158    1.547103
      6          1           0       -4.867081   -0.133806    1.303668
      7          6           0       -0.095488    0.003695    0.004313
      8         16           0        0.718216    1.551645   -0.119100
      9          6           0        2.264042    0.775950   -0.117726
     10          6           0        2.127779   -0.595769   -0.024381
     11          6           0        0.778692   -1.040770    0.048556
     12          1           0        0.457962   -2.070125    0.129419
     13         16           0        3.675550   -1.371859   -0.024883
     14          6           0        4.474081    0.165058   -0.151705
     15          6           0        3.616682    1.218754   -0.191980
     16          1           0        5.552792    0.196570   -0.188477
     17          1           0        3.933582    2.249161   -0.268705
     18          1           0       -2.083588   -0.209442   -2.036435
     19          8           0       -4.845574   -0.308637   -1.445969
     20          1           0       -4.535767   -0.313458   -2.351989
 ---------------------------------------------------------------------

 The electronic state is 1-A.
 Alpha  occ. eigenvalues --  -89.05372 -89.05340 -89.05131 -19.28770 -10.35742
 Alpha  occ. eigenvalues --  -10.33972 -10.33807 -10.32746 -10.32660 -10.32651
 Alpha  occ. eigenvalues --  -10.30975 -10.30822 -10.30797 -10.30328  -8.09417
 Alpha  occ. eigenvalues --   -8.09377  -8.09186  -6.04266  -6.04229  -6.04020
 Alpha  occ. eigenvalues --   -6.03892  -6.03857  -6.03637  -6.03480  -6.03428
 Alpha  occ. eigenvalues --   -6.03284  -1.17831  -1.02533  -0.99808  -0.95578
 Alpha  occ. eigenvalues --   -0.87440  -0.86080  -0.84106  -0.81396  -0.80344
 Alpha  occ. eigenvalues --   -0.72275  -0.67787  -0.66908  -0.64307  -0.63398
 Alpha  occ. eigenvalues --   -0.63039  -0.58868  -0.57050  -0.52379  -0.52302
 Alpha  occ. eigenvalues --   -0.51964  -0.50617  -0.50546  -0.48218  -0.47788
 Alpha  occ. eigenvalues --   -0.46025  -0.45396  -0.44278  -0.43782  -0.42465
 Alpha  occ. eigenvalues --   -0.42393  -0.37218  -0.33421  -0.31292  -0.30222
 Alpha  occ. eigenvalues --   -0.29984
 Alpha virt. eigenvalues --    0.02069   0.03348   0.05021   0.05507   0.06061
 Alpha virt. eigenvalues --    0.06891   0.07024   0.07398   0.07514   0.08462
 Alpha virt. eigenvalues --    0.08972   0.09284   0.09770   0.10112   0.10242

 Mulliken charges:
               1
     1  C   -0.613936
     2  C    0.133867
     3  C    0.094117
     4  C    0.271113
     5  S   -0.168904
     6  H    0.187066
     7  C   -0.176439
     8  S   -0.523074
     9  C    0.286183
    10  C   -0.521350
    11  C    0.713996
    12  H    0.167723
    13  S   -0.419975
    14  C   -0.202540
    15  C    0.274644
    16  H    0.194418
    17  H    0.163583
    18  H    0.149201
    19  O   -0.277465
    20  H    0.267772
 Sum of Mulliken charges =  -0.00000

 Dipole moment (field-independent basis, Debye):
    X=              1.1657    Y=             -0.0151    Z=             -1.5483  Tot=              1.9381
 Quadrupole moment (field-independent basis, Debye-Ang):
   XX=            -96.6700   YY=           -100.5941   ZZ=            -97.4908
   XY=              3.2292   XZ=              2.6752   YZ=              0.0145

 Normal termination of Gaussian 16 at Wed Oct 27 00:46:42 2021.
