 Gaussian 16, Revision C.01,
 Gaussian 16:  ES64L-G16RevC.01  3-Jul-2019

 --------------------------------------
 # opt=modredundant wb97xd/6-311+g(d,p)
 --------------------------------------

 ---------------
 pg2T_TT_-85.pdb
 ---------------
 Symbolic Z-matrix:
 Charge =  0 Multiplicity = 1

 SCF Done:  E(RwB97XD) =  -1654.22301677     A.U. after   18 cycles
 SCF Done:  E(RwB97XD) =  -1654.29336566     A.U. after   15 cycles
 SCF Done:  E(RwB97XD) =  -1654.38212090     A.U. after   15 cycles
 SCF Done:  E(RwB97XD) =  -1654.39812084     A.U. after   15 cycles
 SCF Done:  E(RwB97XD) =  -1654.40720275     A.U. after   15 cycles
 SCF Done:  E(RwB97XD) =  -1654.40860186     A.U. after   14 cycles
 SCF Done:  E(RwB97XD) =  -1654.40966751     A.U. after   14 cycles
 SCF Done:  E(RwB97XD) =  -1654.40953755     A.U. after   14 cycles
 SCF Done:  E(RwB97XD) =  -1654.40990279     A.U. after   13 cycles
 SCF Done:  E(RwB97XD) =  -1654.40990435     A.U. after   13 cycles
 SCF Done:  E(RwB97XD) =  -1654.40993444     A.U. after   13 cycles
 SCF Done:  E(RwB97XD) =  -1654.40993749     A.U. after   11 cycles
 SCF Done:  E(RwB97XD) =  -1654.40993742     A.U. after   10 cycles
 SCF Done:  E(RwB97XD) =  -1654.40993739     A.U. after   10 cycles
 Optimization completed.
    -- Stationary point found.

                         Standard orientation:
 ---------------------------------------------------------------------
 Center     Atomic      Atomic             Coordinates (Angstroms)
 Number     Number       Type             X           Y           Z
 ---------------------------------------------------------------------
      1          6           0       -3.794117    0.053085    0.606198
      2          6           0       -2.434087    0.265658    0.976146
      3          6           0       -1.560405   -0.063943   -0.019828
      4          6           0       -3.932160   -0.433360   -0.658773
      5         16           0       -2.401502   -0.638087   -1.418501
      6          1           0       -4.849971   -0.677903   -1.169641
      7          6           0       -0.096293    0.009750    0.010331
      8         16           0        0.714906    1.516668   -0.370208
      9          6           0        2.262348    0.781404   -0.133254
     10          6           0        2.128352   -0.550093    0.210474
     11          6           0        0.779975   -0.996016    0.289117
     12          1           0        0.461393   -1.998554    0.539019
     13         16           0        3.677544   -1.285002    0.450663
     14          6           0        4.473563    0.214165    0.083511
     15          6           0        3.614263    1.226418   -0.206271
     16          1           0        5.552344    0.256335    0.103863
     17          1           0        3.929402    2.228854   -0.458993
     18          1           0       -2.111455    0.642961    1.939124
     19          8           0       -4.864796    0.293294    1.408617
     20          1           0       -4.567133    0.662273    2.240523
 ---------------------------------------------------------------------

 The electronic state is 1-A.
 Alpha  occ. eigenvalues --  -89.05369 -89.05347 -89.05140 -19.28767 -10.35744
 Alpha  occ. eigenvalues --  -10.33977 -10.33812 -10.32745 -10.32660 -10.32649
 Alpha  occ. eigenvalues --  -10.30969 -10.30819 -10.30796 -10.30324  -8.09414
 Alpha  occ. eigenvalues --   -8.09384  -8.09195  -6.04263  -6.04236  -6.04029
 Alpha  occ. eigenvalues --   -6.03889  -6.03863  -6.03647  -6.03477  -6.03435
 Alpha  occ. eigenvalues --   -6.03293  -1.17829  -1.02535  -0.99813  -0.95578
 Alpha  occ. eigenvalues --   -0.87438  -0.86088  -0.84114  -0.81395  -0.80342
 Alpha  occ. eigenvalues --   -0.72278  -0.67775  -0.66921  -0.64343  -0.63427
 Alpha  occ. eigenvalues --   -0.62972  -0.58865  -0.57046  -0.52375  -0.52316
 Alpha  occ. eigenvalues --   -0.51970  -0.50631  -0.50538  -0.48210  -0.47789
 Alpha  occ. eigenvalues --   -0.46030  -0.45396  -0.44312  -0.43760  -0.42468
 Alpha  occ. eigenvalues --   -0.42388  -0.37226  -0.33428  -0.31357  -0.30200
 Alpha  occ. eigenvalues --   -0.29934
 Alpha virt. eigenvalues --    0.02009   0.03412   0.05028   0.05495   0.06056
 Alpha virt. eigenvalues --    0.06900   0.07027   0.07409   0.07509   0.08444
 Alpha virt. eigenvalues --    0.08990   0.09290   0.09753   0.10134   0.10190

 Mulliken charges:
               1
     1  C   -0.594422
     2  C    0.076835
     3  C    0.108630
     4  C    0.253153
     5  S   -0.155974
     6  H    0.187199
     7  C   -0.122249
     8  S   -0.515796
     9  C    0.295647
    10  C   -0.545023
    11  C    0.706974
    12  H    0.168487
    13  S   -0.419823
    14  C   -0.201449
    15  C    0.259455
    16  H    0.194401
    17  H    0.163543
    18  H    0.149986
    19  O   -0.277197
    20  H    0.267623
 Sum of Mulliken charges =  -0.00000

 Dipole moment (field-independent basis, Debye):
    X=              1.1471    Y=              0.6111    Z=              1.4182  Tot=              1.9237
 Quadrupole moment (field-independent basis, Debye-Ang):
   XX=            -96.5999   YY=            -99.6686   ZZ=            -98.4214
   XY=              1.8804   XZ=             -3.6056   YZ=              1.7570

 Normal termination of Gaussian 16 at Tue Oct 26 23:02:49 2021.
