 Gaussian 16, Revision C.01,
 Gaussian 16:  ES64L-G16RevC.01  3-Jul-2019

 --------------------------------------
 # opt=modredundant wb97xd/6-311+g(d,p)
 --------------------------------------

 ---------------
 pg2T_TT_140.pdb
 ---------------
 Symbolic Z-matrix:
 Charge =  0 Multiplicity = 1

 SCF Done:  E(RwB97XD) =  -1654.22524916     A.U. after   19 cycles
 SCF Done:  E(RwB97XD) =  -1654.29549894     A.U. after   16 cycles
 SCF Done:  E(RwB97XD) =  -1654.38415837     A.U. after   16 cycles
 SCF Done:  E(RwB97XD) =  -1654.40000760     A.U. after   16 cycles
 SCF Done:  E(RwB97XD) =  -1654.40895777     A.U. after   16 cycles
 SCF Done:  E(RwB97XD) =  -1654.41035647     A.U. after   16 cycles
 SCF Done:  E(RwB97XD) =  -1654.41142938     A.U. after   14 cycles
 SCF Done:  E(RwB97XD) =  -1654.41133180     A.U. after   14 cycles
 SCF Done:  E(RwB97XD) =  -1654.41157363     A.U. after   14 cycles
 SCF Done:  E(RwB97XD) =  -1654.41160906     A.U. after   12 cycles
 SCF Done:  E(RwB97XD) =  -1654.41161559     A.U. after   12 cycles
 SCF Done:  E(RwB97XD) =  -1654.41162086     A.U. after   11 cycles
 SCF Done:  E(RwB97XD) =  -1654.41162117     A.U. after   10 cycles
 Optimization completed.
    -- Stationary point found.

                         Standard orientation:
 ---------------------------------------------------------------------
 Center     Atomic      Atomic             Coordinates (Angstroms)
 Number     Number       Type             X           Y           Z
 ---------------------------------------------------------------------
      1          6           0        3.745743    0.736975   -0.193033
      2          6           0        2.361591    1.021708   -0.373521
      3          6           0        1.555754   -0.008756    0.024820
      4          6           0        3.973262   -0.500988    0.327075
      5         16           0        2.495083   -1.333495    0.625350
      6          1           0        4.925569   -0.957525    0.544565
      7          6           0        0.099921   -0.036772    0.005325
      8         16           0       -0.766579   -1.483538   -0.471928
      9          6           0       -2.285840   -0.684418   -0.253628
     10          6           0       -2.102357    0.624960    0.146545
     11          6           0       -0.739926    0.998110    0.302948
     12          1           0       -0.388272    1.961795    0.644132
     13         16           0       -3.623870    1.421078    0.366502
     14          6           0       -4.474771   -0.023612   -0.087843
     15          6           0       -3.652202   -1.062851   -0.389722
     16          1           0       -5.554331   -0.015640   -0.104957
     17          1           0       -4.003427   -2.039155   -0.692239
     18          1           0        1.976725    1.936157   -0.808481
     19          8           0        4.760077    1.583772   -0.510080
     20          1           0        4.401902    2.393332   -0.874989
 ---------------------------------------------------------------------

 The electronic state is 1-A.
 Alpha  occ. eigenvalues --  -89.05483 -89.05426 -89.05246 -19.28848 -10.35849
 Alpha  occ. eigenvalues --  -10.34221 -10.34049 -10.32821 -10.32759 -10.32663
 Alpha  occ. eigenvalues --  -10.30969 -10.30843 -10.30843 -10.30291  -8.09528
 Alpha  occ. eigenvalues --   -8.09470  -8.09308  -6.04384  -6.04320  -6.04147
 Alpha  occ. eigenvalues --   -6.04011  -6.03946  -6.03764  -6.03571  -6.03533
 Alpha  occ. eigenvalues --   -6.03396  -1.17923  -1.02660  -0.99927  -0.95668
 Alpha  occ. eigenvalues --   -0.87650  -0.86209  -0.84294  -0.81423  -0.80360
 Alpha  occ. eigenvalues --   -0.72468  -0.68097  -0.66925  -0.64184  -0.63797
 Alpha  occ. eigenvalues --   -0.62842  -0.59008  -0.57119  -0.52489  -0.52391
 Alpha  occ. eigenvalues --   -0.52029  -0.50988  -0.49861  -0.48375  -0.47729
 Alpha  occ. eigenvalues --   -0.46137  -0.45762  -0.45060  -0.43759  -0.42629
 Alpha  occ. eigenvalues --   -0.42311  -0.37378  -0.34237  -0.31740  -0.31076
 Alpha  occ. eigenvalues --   -0.28104
 Alpha virt. eigenvalues --    0.00419   0.04563   0.05152   0.05661   0.06106
 Alpha virt. eigenvalues --    0.06846   0.07022   0.07516   0.07790   0.08871
 Alpha virt. eigenvalues --    0.09130   0.09544   0.09688   0.10274   0.10327

 Mulliken charges:
               1
     1  C   -0.750592
     2  C    0.363441
     3  C    0.307987
     4  C    0.323982
     5  S   -0.391850
     6  H    0.186439
     7  C    0.333620
     8  S   -0.516325
     9  C    0.406748
    10  C    0.102011
    11  C   -0.070551
    12  H    0.161195
    13  S   -0.445271
    14  C   -0.136037
    15  C   -0.372053
    16  H    0.194691
    17  H    0.163617
    18  H    0.145721
    19  O   -0.270942
    20  H    0.264170
 Sum of Mulliken charges =  -0.00000

 Dipole moment (field-independent basis, Debye):
    X=             -1.2520    Y=              1.3013    Z=             -0.6261  Tot=              1.9113
 Quadrupole moment (field-independent basis, Debye-Ang):
   XX=            -96.6128   YY=            -92.4157   ZZ=           -105.8821
   XY=              5.4473   XZ=              0.0072   YZ=             -1.7133

 Normal termination of Gaussian 16 at Wed Oct 27 01:12:36 2021.
