 Gaussian 16, Revision C.01,
 Gaussian 16:  ES64L-G16RevC.01  3-Jul-2019

 --------------------------------------
 # opt=modredundant wb97xd/6-311+g(d,p)
 --------------------------------------

 ----------------
 pg2T_TT_-100.pdb
 ----------------
 Symbolic Z-matrix:
 Charge =  0 Multiplicity = 1

 SCF Done:  E(RwB97XD) =  -1654.22293793     A.U. after   18 cycles
 SCF Done:  E(RwB97XD) =  -1654.29329448     A.U. after   15 cycles
 SCF Done:  E(RwB97XD) =  -1654.38203560     A.U. after   15 cycles
 SCF Done:  E(RwB97XD) =  -1654.39802768     A.U. after   15 cycles
 SCF Done:  E(RwB97XD) =  -1654.40717169     A.U. after   15 cycles
 SCF Done:  E(RwB97XD) =  -1654.40860763     A.U. after   14 cycles
 SCF Done:  E(RwB97XD) =  -1654.40971193     A.U. after   14 cycles
 SCF Done:  E(RwB97XD) =  -1654.40961586     A.U. after   14 cycles
 SCF Done:  E(RwB97XD) =  -1654.40994699     A.U. after   13 cycles
 SCF Done:  E(RwB97XD) =  -1654.40995538     A.U. after   13 cycles
 SCF Done:  E(RwB97XD) =  -1654.40998354     A.U. after   13 cycles
 SCF Done:  E(RwB97XD) =  -1654.40998721     A.U. after   12 cycles
 SCF Done:  E(RwB97XD) =  -1654.40998727     A.U. after   10 cycles
 Optimization completed.
    -- Stationary point found.

                         Standard orientation:
 ---------------------------------------------------------------------
 Center     Atomic      Atomic             Coordinates (Angstroms)
 Number     Number       Type             X           Y           Z
 ---------------------------------------------------------------------
      1          6           0        3.767813    0.526387    0.434647
      2          6           0        2.391685    0.706856    0.759408
      3          6           0        1.558776    0.026945   -0.082065
      4          6           0        3.958701   -0.291307   -0.637858
      5         16           0        2.458911   -0.848403   -1.273057
      6          1           0        4.898169   -0.584478   -1.078979
      7          6           0        0.094746   -0.018559   -0.035411
      8         16           0       -0.725792   -1.393377    0.678578
      9          6           0       -2.267330   -0.663615    0.390905
     10          6           0       -2.124554    0.570691   -0.213203
     11          6           0       -0.773747    0.942591   -0.459219
     12          1           0       -0.447599    1.860888   -0.927478
     13         16           0       -3.668261    1.300238   -0.500215
     14          6           0       -4.473989   -0.069866    0.199516
     15          6           0       -3.621750   -1.037010    0.630156
     16          1           0       -5.552554   -0.076945    0.250475
     17          1           0       -3.943486   -1.960308    1.090653
     18          1           0        2.028180    1.308196    1.583819
     19          8           0        4.805736    1.093728    1.104512
     20          1           0        4.471565    1.608811    1.839252
 ---------------------------------------------------------------------

 The electronic state is 1-A.
 Alpha  occ. eigenvalues --  -89.05380 -89.05347 -89.05132 -19.28782 -10.35750
 Alpha  occ. eigenvalues --  -10.33986 -10.33823 -10.32751 -10.32667 -10.32653
 Alpha  occ. eigenvalues --  -10.30974 -10.30829 -10.30801 -10.30328  -8.09424
 Alpha  occ. eigenvalues --   -8.09384  -8.09188  -6.04273  -6.04237  -6.04022
 Alpha  occ. eigenvalues --   -6.03900  -6.03864  -6.03640  -6.03487  -6.03434
 Alpha  occ. eigenvalues --   -6.03285  -1.17842  -1.02540  -0.99815  -0.95584
 Alpha  occ. eigenvalues --   -0.87463  -0.86083  -0.84116  -0.81399  -0.80345
 Alpha  occ. eigenvalues --   -0.72289  -0.67833  -0.66888  -0.64243  -0.63391
 Alpha  occ. eigenvalues --   -0.63118  -0.58879  -0.57061  -0.52400  -0.52284
 Alpha  occ. eigenvalues --   -0.51963  -0.50709  -0.50422  -0.48239  -0.47784
 Alpha  occ. eigenvalues --   -0.46016  -0.45436  -0.44318  -0.43782  -0.42487
 Alpha  occ. eigenvalues --   -0.42403  -0.37213  -0.33499  -0.31219  -0.30645
 Alpha  occ. eigenvalues --   -0.29583
 Alpha virt. eigenvalues --    0.01877   0.03557   0.04993   0.05542   0.06080
 Alpha virt. eigenvalues --    0.06883   0.07005   0.07389   0.07532   0.08529
 Alpha virt. eigenvalues --    0.08962   0.09293   0.09831   0.10047   0.10306

 Mulliken charges:
               1
     1  C   -0.650208
     2  C    0.236526
     3  C    0.068615
     4  C    0.297583
     5  S   -0.205254
     6  H    0.187136
     7  C   -0.229930
     8  S   -0.533255
     9  C    0.263371
    10  C   -0.451181
    11  C    0.700387
    12  H    0.166469
    13  S   -0.421572
    14  C   -0.202194
    15  C    0.277540
    16  H    0.194478
    17  H    0.163597
    18  H    0.148238
    19  O   -0.277547
    20  H    0.267201
 Sum of Mulliken charges =  -0.00000

 Dipole moment (field-independent basis, Debye):
    X=             -1.2006    Y=              0.8690    Z=              1.2812  Tot=              1.9591
 Quadrupole moment (field-independent basis, Debye-Ang):
   XX=            -96.8013   YY=            -98.2424   ZZ=            -99.8370
   XY=              4.4293   XZ=              0.6240   YZ=              2.0838

 Normal termination of Gaussian 16 at Tue Oct 26 22:55:56 2021.
