 Gaussian 16, Revision C.01,
 Gaussian 16:  ES64L-G16RevC.01  3-Jul-2019

 --------------------------------------
 # opt=modredundant wb97xd/6-311+g(d,p)
 --------------------------------------

 ---------------
 pg2T_TT_-45.pdb
 ---------------
 Symbolic Z-matrix:
 Charge =  0 Multiplicity = 1

 SCF Done:  E(RwB97XD) =  -1654.22630656     A.U. after   19 cycles
 SCF Done:  E(RwB97XD) =  -1654.29650009     A.U. after   15 cycles
 SCF Done:  E(RwB97XD) =  -1654.38503917     A.U. after   16 cycles
 SCF Done:  E(RwB97XD) =  -1654.40081177     A.U. after   15 cycles
 SCF Done:  E(RwB97XD) =  -1654.40975229     A.U. after   16 cycles
 SCF Done:  E(RwB97XD) =  -1654.41117946     A.U. after   15 cycles
 SCF Done:  E(RwB97XD) =  -1654.41222236     A.U. after   14 cycles
 SCF Done:  E(RwB97XD) =  -1654.41219804     A.U. after   13 cycles
 SCF Done:  E(RwB97XD) =  -1654.41232962     A.U. after   13 cycles
 SCF Done:  E(RwB97XD) =  -1654.41237842     A.U. after   12 cycles
 SCF Done:  E(RwB97XD) =  -1654.41238182     A.U. after   13 cycles
 SCF Done:  E(RwB97XD) =  -1654.41238822     A.U. after   11 cycles
 SCF Done:  E(RwB97XD) =  -1654.41238845     A.U. after   10 cycles
 Optimization completed.
    -- Stationary point found.

                         Standard orientation:
 ---------------------------------------------------------------------
 Center     Atomic      Atomic             Coordinates (Angstroms)
 Number     Number       Type             X           Y           Z
 ---------------------------------------------------------------------
      1          6           0       -3.808449    0.375083    0.308696
      2          6           0       -2.463550    0.821070    0.457917
      3          6           0       -1.553911   -0.089292   -0.004025
      4          6           0       -3.902707   -0.861792   -0.253983
      5         16           0       -2.345322   -1.494442   -0.630385
      6          1           0       -4.800739   -1.418916   -0.468135
      7          6           0       -0.100279    0.006401    0.006409
      8         16           0        0.674464    1.498951   -0.487987
      9          6           0        2.240868    0.814563   -0.216172
     10          6           0        2.138443   -0.496869    0.205606
     11          6           0        0.801891   -0.963786    0.335282
     12          1           0        0.512959   -1.949092    0.674403
     13         16           0        3.705161   -1.180913    0.477740
     14          6           0        4.465153    0.311032    0.016666
     15          6           0        3.580811    1.284984   -0.325968
     16          1           0        5.542797    0.377800    0.024997
     17          1           0        3.871519    2.277399   -0.640081
     18          1           0       -2.180229    1.762937    0.912553
     19          8           0       -4.905930    1.079491    0.690069
     20          1           0       -4.637347    1.928055    1.043260
 ---------------------------------------------------------------------

 The electronic state is 1-A.
 Alpha  occ. eigenvalues --  -89.05510 -89.05400 -89.05262 -19.28810 -10.35838
 Alpha  occ. eigenvalues --  -10.34206 -10.34034 -10.32813 -10.32750 -10.32655
 Alpha  occ. eigenvalues --  -10.30931 -10.30845 -10.30830 -10.30276  -8.09552
 Alpha  occ. eigenvalues --   -8.09444  -8.09320  -6.04408  -6.04293  -6.04159
 Alpha  occ. eigenvalues --   -6.04037  -6.03919  -6.03776  -6.03595  -6.03507
 Alpha  occ. eigenvalues --   -6.03409  -1.17892  -1.02648  -0.99926  -0.95666
 Alpha  occ. eigenvalues --   -0.87537  -0.86298  -0.84272  -0.81420  -0.80358
 Alpha  occ. eigenvalues --   -0.72445  -0.67916  -0.67053  -0.64621  -0.63689
 Alpha  occ. eigenvalues --   -0.62445  -0.58923  -0.57085  -0.52493  -0.52436
 Alpha  occ. eigenvalues --   -0.52047  -0.50966  -0.50168  -0.48138  -0.47849
 Alpha  occ. eigenvalues --   -0.46235  -0.45504  -0.45053  -0.43633  -0.42581
 Alpha  occ. eigenvalues --   -0.42422  -0.37377  -0.34171  -0.31722  -0.31038
 Alpha  occ. eigenvalues --   -0.28225
 Alpha virt. eigenvalues --    0.00534   0.04835   0.05115   0.05512   0.06074
 Alpha virt. eigenvalues --    0.06794   0.07398   0.07514   0.07641   0.08526
 Alpha virt. eigenvalues --    0.09119   0.09447   0.09795   0.09979   0.10152

 Mulliken charges:
               1
     1  C   -0.735941
     2  C    0.235387
     3  C    0.365488
     4  C    0.314736
     5  S   -0.359512
     6  H    0.187343
     7  C    0.469773
     8  S   -0.484091
     9  C    0.422546
    10  C    0.030675
    11  C   -0.183363
    12  H    0.174607
    13  S   -0.447290
    14  C   -0.144530
    15  C   -0.350136
    16  H    0.194474
    17  H    0.163137
    18  H    0.153649
    19  O   -0.271224
    20  H    0.264271
 Sum of Mulliken charges =  -0.00000

 Dipole moment (field-independent basis, Debye):
    X=              1.1108    Y=              1.4300    Z=              0.6473  Tot=              1.9230
 Quadrupole moment (field-independent basis, Debye-Ang):
   XX=            -96.3718   YY=            -92.6547   ZZ=           -105.6048
   XY=             -0.0578   XZ=             -2.2161   YZ=              1.7425

 Normal termination of Gaussian 16 at Tue Oct 26 23:22:26 2021.
