 Gaussian 16, Revision C.01,
 Gaussian 16:  ES64L-G16RevC.01  3-Jul-2019

 --------------------------------------
 # opt=modredundant wb97xd/6-311+g(d,p)
 --------------------------------------

 --------------
 pg2T_TT_35.pdb
 --------------
 Symbolic Z-matrix:
 Charge =  0 Multiplicity = 1

 SCF Done:  E(RwB97XD) =  -1654.22587344     A.U. after   19 cycles
 SCF Done:  E(RwB97XD) =  -1654.29617945     A.U. after   15 cycles
 SCF Done:  E(RwB97XD) =  -1654.38495662     A.U. after   16 cycles
 SCF Done:  E(RwB97XD) =  -1654.40080147     A.U. after   16 cycles
 SCF Done:  E(RwB97XD) =  -1654.40987881     A.U. after   17 cycles
 SCF Done:  E(RwB97XD) =  -1654.41125422     A.U. after   15 cycles
 SCF Done:  E(RwB97XD) =  -1654.41225029     A.U. after   14 cycles
 SCF Done:  E(RwB97XD) =  -1654.41212795     A.U. after   14 cycles
 SCF Done:  E(RwB97XD) =  -1654.41256005     A.U. after   13 cycles
 SCF Done:  E(RwB97XD) =  -1654.41257120     A.U. after   13 cycles
 SCF Done:  E(RwB97XD) =  -1654.41257709     A.U. after   12 cycles
 SCF Done:  E(RwB97XD) =  -1654.41258285     A.U. after   12 cycles
 SCF Done:  E(RwB97XD) =  -1654.41258293     A.U. after   10 cycles
 Optimization completed.
    -- Stationary point found.

                         Standard orientation:
 ---------------------------------------------------------------------
 Center     Atomic      Atomic             Coordinates (Angstroms)
 Number     Number       Type             X           Y           Z
 ---------------------------------------------------------------------
      1          6           0        3.808255    0.395193    0.250465
      2          6           0        2.463229    0.850622    0.365539
      3          6           0        1.552092   -0.101416   -0.000766
      4          6           0        3.902760   -0.887936   -0.195714
      5         16           0        2.344460   -1.555587   -0.504413
      6          1           0        4.800345   -1.461986   -0.361186
      7          6           0        0.100313   -0.002810   -0.004745
      8         16           0       -0.665685    1.522030   -0.406282
      9          6           0       -2.236436    0.831499   -0.177763
     10          6           0       -2.142210   -0.503285    0.164683
     11          6           0       -0.808828   -0.984364    0.269114
     12          1           0       -0.528208   -1.988860    0.554960
     13         16           0       -3.713256   -1.193447    0.391676
     14          6           0       -4.463835    0.327534    0.018725
     15          6           0       -3.573104    1.315217   -0.263225
     16          1           0       -5.541089    0.399851    0.029037
     17          1           0       -3.857451    2.326279   -0.518071
     18          1           0        2.182806    1.830794    0.732907
     19          8           0        4.905683    1.134413    0.558583
     20          1           0        4.636415    2.009149    0.840127
 ---------------------------------------------------------------------

 The electronic state is 1-A.
 Alpha  occ. eigenvalues --  -89.05542 -89.05423 -89.05261 -19.28822 -10.35854
 Alpha  occ. eigenvalues --  -10.34274 -10.34102 -10.32845 -10.32781 -10.32670
 Alpha  occ. eigenvalues --  -10.30948 -10.30868 -10.30841 -10.30279  -8.09588
 Alpha  occ. eigenvalues --   -8.09467  -8.09322  -6.04445  -6.04316  -6.04164
 Alpha  occ. eigenvalues --   -6.04074  -6.03942  -6.03780  -6.03628  -6.03530
 Alpha  occ. eigenvalues --   -6.03407  -1.17908  -1.02687  -0.99945  -0.95695
 Alpha  occ. eigenvalues --   -0.87579  -0.86354  -0.84305  -0.81431  -0.80372
 Alpha  occ. eigenvalues --   -0.72492  -0.67970  -0.67090  -0.64685  -0.63747
 Alpha  occ. eigenvalues --   -0.62351  -0.58953  -0.57099  -0.52525  -0.52466
 Alpha  occ. eigenvalues --   -0.52072  -0.51027  -0.50094  -0.48112  -0.47871
 Alpha  occ. eigenvalues --   -0.46301  -0.45542  -0.45286  -0.43617  -0.42589
 Alpha  occ. eigenvalues --   -0.42420  -0.37427  -0.34377  -0.31744  -0.31154
 Alpha  occ. eigenvalues --   -0.27942
 Alpha virt. eigenvalues --    0.00211   0.04868   0.05256   0.05529   0.06067
 Alpha virt. eigenvalues --    0.06765   0.07505   0.07564   0.07778   0.08541
 Alpha virt. eigenvalues --    0.09079   0.09455   0.09846   0.10041   0.10153

 Mulliken charges:
               1
     1  C   -0.778843
     2  C    0.455851
     3  C    0.271748
     4  C    0.346227
     5  S   -0.430597
     6  H    0.186795
     7  C    0.324677
     8  S   -0.543140
     9  C    0.422463
    10  C    0.089926
    11  C   -0.082093
    12  H    0.172906
    13  S   -0.453086
    14  C   -0.140104
    15  C   -0.345961
    16  H    0.194602
    17  H    0.162929
    18  H    0.152418
    19  O   -0.270889
    20  H    0.264174
 Sum of Mulliken charges =  -0.00000

 Dipole moment (field-independent basis, Debye):
    X=             -1.1281    Y=              1.4808    Z=              0.5389  Tot=              1.9380
 Quadrupole moment (field-independent basis, Debye-Ang):
   XX=            -96.3172   YY=            -91.7649   ZZ=           -106.5655
   XY=              0.1264   XZ=              1.7580   YZ=              1.4298

 Normal termination of Gaussian 16 at Wed Oct 27 00:05:18 2021.
