 Gaussian 16, Revision C.01,
 Gaussian 16:  ES64L-G16RevC.01  3-Jul-2019

 --------------------------------------
 # opt=modredundant wb97xd/6-311+g(d,p)
 --------------------------------------

 --------------
 pg2T_TT_70.pdb
 --------------
 Symbolic Z-matrix:
 Charge =  0 Multiplicity = 1

 SCF Done:  E(RwB97XD) =  -1654.22391564     A.U. after   19 cycles
 SCF Done:  E(RwB97XD) =  -1654.29424846     A.U. after   15 cycles
 SCF Done:  E(RwB97XD) =  -1654.38301092     A.U. after   16 cycles
 SCF Done:  E(RwB97XD) =  -1654.39882742     A.U. after   15 cycles
 SCF Done:  E(RwB97XD) =  -1654.40790913     A.U. after   15 cycles
 SCF Done:  E(RwB97XD) =  -1654.40932199     A.U. after   15 cycles
 SCF Done:  E(RwB97XD) =  -1654.41040957     A.U. after   14 cycles
 SCF Done:  E(RwB97XD) =  -1654.41024776     A.U. after   14 cycles
 SCF Done:  E(RwB97XD) =  -1654.41076815     A.U. after   13 cycles
 SCF Done:  E(RwB97XD) =  -1654.41077509     A.U. after   12 cycles
 SCF Done:  E(RwB97XD) =  -1654.41078666     A.U. after   13 cycles
 SCF Done:  E(RwB97XD) =  -1654.41079296     A.U. after   12 cycles
 Optimization completed.
    -- Stationary point found.

                         Standard orientation:
 ---------------------------------------------------------------------
 Center     Atomic      Atomic             Coordinates (Angstroms)
 Number     Number       Type             X           Y           Z
 ---------------------------------------------------------------------
      1          6           0        3.808901    0.280252    0.465206
      2          6           0        2.461383    0.664495    0.724824
      3          6           0        1.559256   -0.060607   -0.000301
      4          6           0        3.909920   -0.732023   -0.440837
      5         16           0        2.357965   -1.224873   -0.999402
      6          1           0        4.811786   -1.200252   -0.802013
      7          6           0        0.098981    0.028387    0.029564
      8         16           0       -0.701248    1.442575   -0.628246
      9          6           0       -2.254855    0.766680   -0.278984
     10          6           0       -2.130356   -0.485483    0.291755
     11          6           0       -0.785229   -0.913990    0.464556
     12          1           0       -0.475235   -1.856515    0.894321
     13         16           0       -3.685090   -1.160461    0.644475
     14          6           0       -4.470475    0.255925    0.017618
     15          6           0       -3.603524    1.198750   -0.437099
     16          1           0       -5.549126    0.305162    0.021504
     17          1           0       -3.911562    2.143343   -0.862475
     18          1           0        2.168054    1.436114    1.426902
     19          8           0        4.902000    0.836188    1.051141
     20          1           0        4.630038    1.552474    1.625577
 ---------------------------------------------------------------------

 The electronic state is 1-A.
 Alpha  occ. eigenvalues --  -89.05399 -89.05367 -89.05196 -19.28777 -10.35774
 Alpha  occ. eigenvalues --  -10.34037 -10.33869 -10.32754 -10.32682 -10.32641
 Alpha  occ. eigenvalues --  -10.30944 -10.30816 -10.30803 -10.30301  -8.09436
 Alpha  occ. eigenvalues --   -8.09412  -8.09250  -6.04290  -6.04261  -6.04085
 Alpha  occ. eigenvalues --   -6.03917  -6.03887  -6.03702  -6.03486  -6.03475
 Alpha  occ. eigenvalues --   -6.03346  -1.17845  -1.02560  -0.99853  -0.95598
 Alpha  occ. eigenvalues --   -0.87454  -0.86148  -0.84165  -0.81397  -0.80340
 Alpha  occ. eigenvalues --   -0.72322  -0.67792  -0.66966  -0.64452  -0.63529
 Alpha  occ. eigenvalues --   -0.62754  -0.58867  -0.57050  -0.52387  -0.52378
 Alpha  occ. eigenvalues --   -0.51993  -0.50779  -0.50381  -0.48192  -0.47796
 Alpha  occ. eigenvalues --   -0.46088  -0.45411  -0.44541  -0.43673  -0.42513
 Alpha  occ. eigenvalues --   -0.42390  -0.37266  -0.33626  -0.31565  -0.30596
 Alpha  occ. eigenvalues --   -0.29195
 Alpha virt. eigenvalues --    0.01476   0.04005   0.05031   0.05481   0.06054
 Alpha virt. eigenvalues --    0.06893   0.07072   0.07454   0.07526   0.08452
 Alpha virt. eigenvalues --    0.09064   0.09331   0.09773   0.09999   0.10160

 Mulliken charges:
               1
     1  C   -0.545908
     2  C   -0.010039
     3  C    0.124055
     4  C    0.196318
     5  S   -0.144946
     6  H    0.187983
     7  C    0.028518
     8  S   -0.490472
     9  C    0.309052
    10  C   -0.583498
    11  C    0.695088
    12  H    0.171401
    13  S   -0.423018
    14  C   -0.195722
    15  C    0.179456
    16  H    0.194378
    17  H    0.163379
    18  H    0.153006
    19  O   -0.275205
    20  H    0.266177
 Sum of Mulliken charges =  -0.00000

 Dipole moment (field-independent basis, Debye):
    X=             -1.1016    Y=              1.1858    Z=              0.9837  Tot=              1.8940
 Quadrupole moment (field-independent basis, Debye-Ang):
   XX=            -96.4263   YY=            -96.0297   ZZ=           -102.1075
   XY=             -0.2889   XZ=              3.4246   YZ=              2.3861

 Normal termination of Gaussian 16 at Wed Oct 27 00:36:44 2021.
