 Gaussian 16, Revision C.01,
 Gaussian 16:  ES64L-G16RevC.01  3-Jul-2019

 --------------------------------------
 # opt=modredundant wb97xd/6-311+g(d,p)
 --------------------------------------

 ----------------
 pg2T_TT_-150.pdb
 ----------------
 Symbolic Z-matrix:
 Charge =  0 Multiplicity = 1

 SCF Done:  E(RwB97XD) =  -1654.22445805     A.U. after   19 cycles
 SCF Done:  E(RwB97XD) =  -1654.29474868     A.U. after   15 cycles
 SCF Done:  E(RwB97XD) =  -1654.38346255     A.U. after   16 cycles
 SCF Done:  E(RwB97XD) =  -1654.39942681     A.U. after   15 cycles
 SCF Done:  E(RwB97XD) =  -1654.40863424     A.U. after   15 cycles
 SCF Done:  E(RwB97XD) =  -1654.41010062     A.U. after   15 cycles
 SCF Done:  E(RwB97XD) =  -1654.41116755     A.U. after   14 cycles
 SCF Done:  E(RwB97XD) =  -1654.41109446     A.U. after   15 cycles
 SCF Done:  E(RwB97XD) =  -1654.41140901     A.U. after   13 cycles
 SCF Done:  E(RwB97XD) =  -1654.41142490     A.U. after   13 cycles
 SCF Done:  E(RwB97XD) =  -1654.41143662     A.U. after   12 cycles
 SCF Done:  E(RwB97XD) =  -1654.41144131     A.U. after   11 cycles
 SCF Done:  E(RwB97XD) =  -1654.41144135     A.U. after   10 cycles
 Optimization completed.
    -- Stationary point found.

                         Standard orientation:
 ---------------------------------------------------------------------
 Center     Atomic      Atomic             Coordinates (Angstroms)
 Number     Number       Type             X           Y           Z
 ---------------------------------------------------------------------
      1          6           0        3.746799    0.754838    0.140831
      2          6           0        2.364038    1.052110    0.307372
      3          6           0        1.556034   -0.010222    0.006558
      4          6           0        3.973070   -0.521844   -0.275932
      5         16           0        2.493888   -1.377313   -0.493243
      6          1           0        4.924169   -0.995066   -0.460144
      7          6           0        0.101029   -0.033577    0.023255
      8         16           0       -0.773792   -1.508863    0.385447
      9          6           0       -2.289481   -0.695145    0.199148
     10          6           0       -2.099589    0.637976   -0.108647
     11          6           0       -0.735409    1.019035   -0.219860
     12          1           0       -0.381770    2.002834   -0.495119
     13         16           0       -3.617604    1.449071   -0.295734
     14          6           0       -4.475417   -0.022132    0.047010
     15          6           0       -3.657439   -1.080344    0.290220
     16          1           0       -5.555098   -0.014179    0.048371
     17          1           0       -4.013118   -2.074562    0.520558
     18          1           0        1.984159    2.000639    0.666955
     19          8           0        4.761828    1.626121    0.379039
     20          1           0        4.405357    2.460893    0.683813
 ---------------------------------------------------------------------

 The electronic state is 1-A.
 Alpha  occ. eigenvalues --  -89.05505 -89.05441 -89.05269 -19.28859 -10.35868
 Alpha  occ. eigenvalues --  -10.34291 -10.34112 -10.32847 -10.32783 -10.32671
 Alpha  occ. eigenvalues --  -10.30983 -10.30859 -10.30846 -10.30277  -8.09553
 Alpha  occ. eigenvalues --   -8.09486  -8.09333  -6.04410  -6.04335  -6.04174
 Alpha  occ. eigenvalues --   -6.04038  -6.03961  -6.03790  -6.03594  -6.03548
 Alpha  occ. eigenvalues --   -6.03418  -1.17939  -1.02691  -0.99952  -0.95688
 Alpha  occ. eigenvalues --   -0.87693  -0.86238  -0.84339  -0.81426  -0.80368
 Alpha  occ. eigenvalues --   -0.72509  -0.68157  -0.66953  -0.64208  -0.63873
 Alpha  occ. eigenvalues --   -0.62770  -0.59049  -0.57127  -0.52498  -0.52442
 Alpha  occ. eigenvalues --   -0.52044  -0.51040  -0.49740  -0.48397  -0.47689
 Alpha  occ. eigenvalues --   -0.46190  -0.45880  -0.45256  -0.43798  -0.42606
 Alpha  occ. eigenvalues --   -0.42254  -0.37456  -0.34397  -0.31875  -0.31049
 Alpha  occ. eigenvalues --   -0.27852
 Alpha virt. eigenvalues --    0.00114   0.04488   0.05288   0.05660   0.06099
 Alpha virt. eigenvalues --    0.06785   0.07038   0.07513   0.08039   0.08917
 Alpha virt. eigenvalues --    0.09118   0.09596   0.09734   0.10319   0.10394

 Mulliken charges:
               1
     1  C   -0.747043
     2  C    0.477203
     3  C    0.238549
     4  C    0.346222
     5  S   -0.434930
     6  H    0.185823
     7  C    0.268430
     8  S   -0.542145
     9  C    0.400381
    10  C    0.141444
    11  C   -0.029655
    12  H    0.158676
    13  S   -0.448351
    14  C   -0.137876
    15  C   -0.373185
    16  H    0.194782
    17  H    0.163508
    18  H    0.143809
    19  O   -0.269760
    20  H    0.264119
 Sum of Mulliken charges =  -0.00000

 Dipole moment (field-independent basis, Debye):
    X=             -1.2612    Y=              1.3343    Z=              0.4932  Tot=              1.9011
 Quadrupole moment (field-independent basis, Debye-Ang):
   XX=            -96.5075   YY=            -91.5900   ZZ=           -106.7600
   XY=              5.6265   XZ=              0.2110   YZ=              1.5681

 Normal termination of Gaussian 16 at Tue Oct 26 22:15:18 2021.
