 Gaussian 16, Revision C.01,
 Gaussian 16:  ES64L-G16RevC.01  3-Jul-2019

 --------------------------------------
 # opt=modredundant wb97xd/6-311+g(d,p)
 --------------------------------------

 ---------------
 pg2T_TT_-80.pdb
 ---------------
 Symbolic Z-matrix:
 Charge =  0 Multiplicity = 1

 SCF Done:  E(RwB97XD) =  -1654.22330613     A.U. after   18 cycles
 SCF Done:  E(RwB97XD) =  -1654.29364261     A.U. after   15 cycles
 SCF Done:  E(RwB97XD) =  -1654.38234980     A.U. after   15 cycles
 SCF Done:  E(RwB97XD) =  -1654.39834344     A.U. after   15 cycles
 SCF Done:  E(RwB97XD) =  -1654.40742330     A.U. after   15 cycles
 SCF Done:  E(RwB97XD) =  -1654.40882405     A.U. after   15 cycles
 SCF Done:  E(RwB97XD) =  -1654.40987540     A.U. after   14 cycles
 SCF Done:  E(RwB97XD) =  -1654.40974515     A.U. after   14 cycles
 SCF Done:  E(RwB97XD) =  -1654.41010403     A.U. after   13 cycles
 SCF Done:  E(RwB97XD) =  -1654.41010761     A.U. after   13 cycles
 SCF Done:  E(RwB97XD) =  -1654.41013716     A.U. after   13 cycles
 SCF Done:  E(RwB97XD) =  -1654.41014077     A.U. after   11 cycles
 SCF Done:  E(RwB97XD) =  -1654.41014075     A.U. after   10 cycles
 SCF Done:  E(RwB97XD) =  -1654.41014092     A.U. after    9 cycles
 Optimization completed.
    -- Stationary point found.

                         Standard orientation:
 ---------------------------------------------------------------------
 Center     Atomic      Atomic             Coordinates (Angstroms)
 Number     Number       Type             X           Y           Z
 ---------------------------------------------------------------------
      1          6           0       -3.801348    0.182396    0.553969
      2          6           0       -2.446730    0.487497    0.875612
      3          6           0       -1.560392   -0.061104   -0.006240
      4          6           0       -3.922766   -0.594074   -0.558796
      5         16           0       -2.382654   -0.960659   -1.234317
      6          1           0       -4.833599   -0.960739   -1.005014
      7          6           0       -0.097299    0.019746    0.021468
      8         16           0        0.710790    1.458487   -0.570549
      9          6           0        2.260076    0.763726   -0.241091
     10          6           0        2.128920   -0.508650    0.281286
     11          6           0        0.781347   -0.939734    0.427743
     12          1           0        0.465184   -1.898502    0.814872
     13         16           0        3.679855   -1.202752    0.613842
     14          6           0        4.472734    0.233293    0.043719
     15          6           0        3.611142    1.196088   -0.377944
     16          1           0        5.551535    0.278484    0.053867
     17          1           0        3.924271    2.155033   -0.765800
     18          1           0       -2.137138    1.082449    1.726501
     19          8           0       -4.882013    0.598038    1.266116
     20          1           0       -4.596119    1.162643    1.984664
 ---------------------------------------------------------------------

 The electronic state is 1-A.
 Alpha  occ. eigenvalues --  -89.05367 -89.05359 -89.05156 -19.28769 -10.35752
 Alpha  occ. eigenvalues --  -10.33991 -10.33826 -10.32746 -10.32666 -10.32646
 Alpha  occ. eigenvalues --  -10.30963 -10.30818 -10.30797 -10.30318  -8.09411
 Alpha  occ. eigenvalues --   -8.09396  -8.09209  -6.04260  -6.04249  -6.04044
 Alpha  occ. eigenvalues --   -6.03887  -6.03876  -6.03661  -6.03474  -6.03447
 Alpha  occ. eigenvalues --   -6.03307  -1.17834  -1.02539  -0.99820  -0.95581
 Alpha  occ. eigenvalues --   -0.87438  -0.86102  -0.84127  -0.81395  -0.80340
 Alpha  occ. eigenvalues --   -0.72288  -0.67772  -0.66936  -0.64381  -0.63462
 Alpha  occ. eigenvalues --   -0.62899  -0.58862  -0.57045  -0.52369  -0.52339
 Alpha  occ. eigenvalues --   -0.51977  -0.50684  -0.50484  -0.48204  -0.47790
 Alpha  occ. eigenvalues --   -0.46048  -0.45391  -0.44377  -0.43724  -0.42479
 Alpha  occ. eigenvalues --   -0.42386  -0.37236  -0.33470  -0.31432  -0.30347
 Alpha  occ. eigenvalues --   -0.29684
 Alpha virt. eigenvalues --    0.01860   0.03576   0.05032   0.05487   0.06053
 Alpha virt. eigenvalues --    0.06907   0.07031   0.07423   0.07509   0.08438
 Alpha virt. eigenvalues --    0.09014   0.09301   0.09749   0.10125   0.10151

 Mulliken charges:
               1
     1  C   -0.573845
     2  C    0.028630
     3  C    0.115786
     4  C    0.232635
     5  S   -0.146810
     6  H    0.187454
     7  C   -0.064476
     8  S   -0.506604
     9  C    0.303269
    10  C   -0.560405
    11  C    0.698666
    12  H    0.169379
    13  S   -0.420383
    14  C   -0.199628
    15  C    0.236938
    16  H    0.194392
    17  H    0.163483
    18  H    0.150995
    19  O   -0.276719
    20  H    0.267245
 Sum of Mulliken charges =  -0.00000

 Dipole moment (field-independent basis, Debye):
    X=              1.1269    Y=              0.9342    Z=              1.2251  Tot=              1.9088
 Quadrupole moment (field-independent basis, Debye-Ang):
   XX=            -96.5172   YY=            -98.1802   ZZ=            -99.9276
   XY=              0.9732   XZ=             -3.7393   YZ=              2.3334

 Normal termination of Gaussian 16 at Tue Oct 26 22:59:22 2021.
