 Gaussian 16, Revision C.01,
 Gaussian 16:  ES64L-G16RevC.01  3-Jul-2019

 --------------------------------------
 # opt=modredundant wb97xd/6-311+g(d,p)
 --------------------------------------

 ----------------
 pg2T_TT_-105.pdb
 ----------------
 Symbolic Z-matrix:
 Charge =  0 Multiplicity = 1

 SCF Done:  E(RwB97XD) =  -1654.22286714     A.U. after   18 cycles
 SCF Done:  E(RwB97XD) =  -1654.29328543     A.U. after   15 cycles
 SCF Done:  E(RwB97XD) =  -1654.38212024     A.U. after   15 cycles
 SCF Done:  E(RwB97XD) =  -1654.39815212     A.U. after   15 cycles
 SCF Done:  E(RwB97XD) =  -1654.40734155     A.U. after   15 cycles
 SCF Done:  E(RwB97XD) =  -1654.40879067     A.U. after   14 cycles
 SCF Done:  E(RwB97XD) =  -1654.40990884     A.U. after   14 cycles
 SCF Done:  E(RwB97XD) =  -1654.40982107     A.U. after   14 cycles
 SCF Done:  E(RwB97XD) =  -1654.41014484     A.U. after   13 cycles
 SCF Done:  E(RwB97XD) =  -1654.41015568     A.U. after   13 cycles
 SCF Done:  E(RwB97XD) =  -1654.41018179     A.U. after   13 cycles
 SCF Done:  E(RwB97XD) =  -1654.41018569     A.U. after   12 cycles
 SCF Done:  E(RwB97XD) =  -1654.41018576     A.U. after   10 cycles
 Optimization completed.
    -- Stationary point found.

                         Standard orientation:
 ---------------------------------------------------------------------
 Center     Atomic      Atomic             Coordinates (Angstroms)
 Number     Number       Type             X           Y           Z
 ---------------------------------------------------------------------
      1          6           0        3.760919    0.584005    0.388318
      2          6           0        2.381354    0.797057    0.676790
      3          6           0        1.558080    0.019951   -0.086770
      4          6           0        3.964120   -0.355665   -0.576597
      5         16           0        2.471671   -0.988596   -1.155974
      6          1           0        4.908436   -0.697231   -0.969877
      7          6           0        0.094939   -0.025484   -0.044641
      8         16           0       -0.729841   -1.378266    0.705591
      9          6           0       -2.268981   -0.649909    0.401274
     10          6           0       -2.122188    0.569653   -0.231079
     11          6           0       -0.770337    0.930035   -0.488025
     12          1           0       -0.441289    1.834684   -0.980177
     13         16           0       -3.663599    1.297029   -0.535393
     14          6           0       -4.473767   -0.054363    0.194984
     15          6           0       -3.624551   -1.013960    0.647920
     16          1           0       -5.552346   -0.056869    0.245960
     17          1           0       -3.949191   -1.925531    1.129269
     18          1           0        2.008558    1.487627    1.423449
     19          8           0        4.791028    1.229566    0.996491
     20          1           0        4.448388    1.830185    1.658809
 ---------------------------------------------------------------------

 The electronic state is 1-A.
 Alpha  occ. eigenvalues --  -89.05384 -89.05359 -89.05141 -19.28789 -10.35760
 Alpha  occ. eigenvalues --  -10.34004 -10.33842 -10.32755 -10.32675 -10.32653
 Alpha  occ. eigenvalues --  -10.30970 -10.30832 -10.30803 -10.30329  -8.09429
 Alpha  occ. eigenvalues --   -8.09396  -8.09198  -6.04278  -6.04250  -6.04032
 Alpha  occ. eigenvalues --   -6.03904  -6.03877  -6.03650  -6.03492  -6.03446
 Alpha  occ. eigenvalues --   -6.03294  -1.17851  -1.02549  -0.99825  -0.95590
 Alpha  occ. eigenvalues --   -0.87481  -0.86092  -0.84131  -0.81400  -0.80346
 Alpha  occ. eigenvalues --   -0.72305  -0.67863  -0.66883  -0.64219  -0.63425
 Alpha  occ. eigenvalues --   -0.63111  -0.58889  -0.57070  -0.52412  -0.52284
 Alpha  occ. eigenvalues --   -0.51968  -0.50752  -0.50352  -0.48254  -0.47781
 Alpha  occ. eigenvalues --   -0.46019  -0.45462  -0.44382  -0.43765  -0.42512
 Alpha  occ. eigenvalues --   -0.42403  -0.37217  -0.33573  -0.31222  -0.30810
 Alpha  occ. eigenvalues --   -0.29367
 Alpha virt. eigenvalues --    0.01699   0.03751   0.04973   0.05563   0.06088
 Alpha virt. eigenvalues --    0.06888   0.06991   0.07393   0.07542   0.08569
 Alpha virt. eigenvalues --    0.08976   0.09309   0.09849   0.10025   0.10316

 Mulliken charges:
               1
     1  C   -0.665384
     2  C    0.266964
     3  C    0.070543
     4  C    0.303098
     5  S   -0.225092
     6  H    0.187205
     7  C   -0.225933
     8  S   -0.540857
     9  C    0.254732
    10  C   -0.416424
    11  C    0.687255
    12  H    0.166008
    13  S   -0.422853
    14  C   -0.200657
    15  C    0.265893
    16  H    0.194508
    17  H    0.163567
    18  H    0.147924
    19  O   -0.277183
    20  H    0.266687
 Sum of Mulliken charges =  -0.00000

 Dipole moment (field-independent basis, Debye):
    X=             -1.2121    Y=              1.0057    Z=              1.1675  Tot=              1.9605
 Quadrupole moment (field-independent basis, Debye-Ang):
   XX=            -96.8335   YY=            -97.1416   ZZ=           -100.9458
   XY=              4.6010   XZ=              0.2437   YZ=              2.1763

 Normal termination of Gaussian 16 at Tue Oct 26 22:54:12 2021.
