 Gaussian 16, Revision C.01,
 Gaussian 16:  ES64L-G16RevC.01  3-Jul-2019

 --------------------------------------
 # opt=modredundant wb97xd/6-311+g(d,p)
 --------------------------------------

 --------------
 pg2T_TT_55.pdb
 --------------
 Symbolic Z-matrix:
 Charge =  0 Multiplicity = 1

 SCF Done:  E(RwB97XD) =  -1654.22494917     A.U. after   19 cycles
 SCF Done:  E(RwB97XD) =  -1654.29528314     A.U. after   15 cycles
 SCF Done:  E(RwB97XD) =  -1654.38409660     A.U. after   16 cycles
 SCF Done:  E(RwB97XD) =  -1654.39996297     A.U. after   15 cycles
 SCF Done:  E(RwB97XD) =  -1654.40904684     A.U. after   16 cycles
 SCF Done:  E(RwB97XD) =  -1654.41044562     A.U. after   15 cycles
 SCF Done:  E(RwB97XD) =  -1654.41152879     A.U. after   15 cycles
 SCF Done:  E(RwB97XD) =  -1654.41139845     A.U. after   14 cycles
 SCF Done:  E(RwB97XD) =  -1654.41189202     A.U. after   13 cycles
 SCF Done:  E(RwB97XD) =  -1654.41190314     A.U. after   13 cycles
 SCF Done:  E(RwB97XD) =  -1654.41190858     A.U. after   13 cycles
 SCF Done:  E(RwB97XD) =  -1654.41191489     A.U. after   12 cycles
 SCF Done:  E(RwB97XD) =  -1654.41191503     A.U. after   10 cycles
 Optimization completed.
    -- Stationary point found.

                         Standard orientation:
 ---------------------------------------------------------------------
 Center     Atomic      Atomic             Coordinates (Angstroms)
 Number     Number       Type             X           Y           Z
 ---------------------------------------------------------------------
      1          6           0        3.809714    0.347073    0.366506
      2          6           0        2.465050    0.779275    0.554037
      3          6           0        1.556156   -0.074545   -0.005403
      4          6           0        3.903228   -0.826988   -0.318156
      5         16           0        2.346413   -1.414375   -0.761862
      6          1           0        4.801372   -1.361139   -0.584344
      7          6           0        0.100174    0.018650    0.017605
      8         16           0       -0.685651    1.475637   -0.558853
      9          6           0       -2.246619    0.795742   -0.248832
     10          6           0       -2.134351   -0.489846    0.244470
     11          6           0       -0.794028   -0.939953    0.395896
     12          1           0       -0.495759   -1.905525    0.780496
     13         16           0       -3.695840   -1.169501    0.555554
     14          6           0       -4.467112    0.289663    0.015152
     15          6           0       -3.590409    1.249933   -0.381053
     16          1           0       -5.545225    0.348945    0.021332
     17          1           0       -3.888834    2.221612   -0.748292
     18          1           0        2.179808    1.671800    1.098238
     19          8           0        4.907384    1.005388    0.822826
     20          1           0        4.639998    1.818998    1.251195
 ---------------------------------------------------------------------

 The electronic state is 1-A.
 Alpha  occ. eigenvalues --  -89.05471 -89.05381 -89.05248 -19.28797 -10.35816
 Alpha  occ. eigenvalues --  -10.34136 -10.33966 -10.32785 -10.32720 -10.32644
 Alpha  occ. eigenvalues --  -10.30927 -10.30823 -10.30823 -10.30281  -8.09510
 Alpha  occ. eigenvalues --   -8.09425  -8.09303  -6.04364  -6.04274  -6.04140
 Alpha  occ. eigenvalues --   -6.03993  -6.03900  -6.03758  -6.03555  -6.03488
 Alpha  occ. eigenvalues --   -6.03395  -1.17875  -1.02608  -0.99899  -0.95635
 Alpha  occ. eigenvalues --   -0.87498  -0.86237  -0.84233  -0.81408  -0.80347
 Alpha  occ. eigenvalues --   -0.72395  -0.67862  -0.67016  -0.64555  -0.63628
 Alpha  occ. eigenvalues --   -0.62556  -0.58895  -0.57069  -0.52457  -0.52406
 Alpha  occ. eigenvalues --   -0.52023  -0.50897  -0.50244  -0.48164  -0.47823
 Alpha  occ. eigenvalues --   -0.46171  -0.45464  -0.44837  -0.43640  -0.42562
 Alpha  occ. eigenvalues --   -0.42411  -0.37328  -0.33954  -0.31684  -0.30886
 Alpha  occ. eigenvalues --   -0.28561
 Alpha virt. eigenvalues --    0.00886   0.04610   0.05027   0.05492   0.06057
 Alpha virt. eigenvalues --    0.06828   0.07240   0.07493   0.07577   0.08499
 Alpha virt. eigenvalues --    0.09125   0.09385   0.09813   0.09900   0.10155

 Mulliken charges:
               1
     1  C   -0.620197
     2  C    0.083906
     3  C    0.202479
     4  C    0.225922
     5  S   -0.218493
     6  H    0.187994
     7  C    0.040280
     8  S   -0.522643
     9  C    0.310603
    10  C   -0.667285
    11  C    0.799828
    12  H    0.173388
    13  S   -0.429867
    14  C   -0.194394
    15  C    0.123622
    16  H    0.194366
    17  H    0.163236
    18  H    0.154133
    19  O   -0.271683
    20  H    0.264804
 Sum of Mulliken charges =  -0.00000

 Dipole moment (field-independent basis, Debye):
    X=             -1.0968    Y=              1.3609    Z=              0.7596  Tot=              1.9057
 Quadrupole moment (field-independent basis, Debye-Ang):
   XX=            -96.3823   YY=            -93.7544   ZZ=           -104.4515
   XY=             -0.0010   XZ=              2.6819   YZ=              2.0358

 Normal termination of Gaussian 16 at Wed Oct 27 00:18:52 2021.
