 Gaussian 16, Revision C.01,
 Gaussian 16:  ES64L-G16RevC.01  3-Jul-2019

 --------------------------------------
 # opt=modredundant wb97xd/6-311+g(d,p)
 --------------------------------------

 ----------------
 pg2T_TT_-160.pdb
 ----------------
 Symbolic Z-matrix:
 Charge =  0 Multiplicity = 1

 SCF Done:  E(RwB97XD) =  -1654.22442567     A.U. after   19 cycles
 SCF Done:  E(RwB97XD) =  -1654.29462619     A.U. after   15 cycles
 SCF Done:  E(RwB97XD) =  -1654.38319413     A.U. after   16 cycles
 SCF Done:  E(RwB97XD) =  -1654.39904417     A.U. after   15 cycles
 SCF Done:  E(RwB97XD) =  -1654.40815559     A.U. after   15 cycles
 SCF Done:  E(RwB97XD) =  -1654.40958167     A.U. after   15 cycles
 SCF Done:  E(RwB97XD) =  -1654.41066272     A.U. after   14 cycles
 SCF Done:  E(RwB97XD) =  -1654.41059180     A.U. after   14 cycles
 SCF Done:  E(RwB97XD) =  -1654.41092047     A.U. after   13 cycles
 SCF Done:  E(RwB97XD) =  -1654.41093578     A.U. after   13 cycles
 SCF Done:  E(RwB97XD) =  -1654.41094365     A.U. after   12 cycles
 SCF Done:  E(RwB97XD) =  -1654.41094830     A.U. after   11 cycles
 SCF Done:  E(RwB97XD) =  -1654.41094834     A.U. after   10 cycles
 Optimization completed.
    -- Stationary point found.

                         Standard orientation:
 ---------------------------------------------------------------------
 Center     Atomic      Atomic             Coordinates (Angstroms)
 Number     Number       Type             X           Y           Z
 ---------------------------------------------------------------------
      1          6           0        3.747467    0.768959    0.090706
      2          6           0        2.364939    1.078888    0.229411
      3          6           0        1.556297   -0.007060    0.027897
      4          6           0        3.975225   -0.539241   -0.211564
      5         16           0        2.496579   -1.411339   -0.350679
      6          1           0        4.926168   -1.026804   -0.354023
      7          6           0        0.101323   -0.029987    0.040811
      8         16           0       -0.776788   -1.528025    0.284089
      9          6           0       -2.291449   -0.704292    0.140254
     10          6           0       -2.099744    0.647154   -0.070414
     11          6           0       -0.735426    1.035923   -0.138293
     12          1           0       -0.384417    2.038669   -0.337863
     13         16           0       -3.616769    1.468857   -0.214888
     14          6           0       -4.476331   -0.023470    0.013662
     15          6           0       -3.659529   -1.095756    0.190427
     16          1           0       -5.555963   -0.016187    0.004129
     17          1           0       -4.016286   -2.103912    0.346495
     18          1           0        1.988487    2.058224    0.498627
     19          8           0        4.761583    1.659163    0.249136
     20          1           0        4.404371    2.518111    0.475808
 ---------------------------------------------------------------------

 The electronic state is 1-A.
 Alpha  occ. eigenvalues --  -89.05521 -89.05454 -89.05286 -19.28867 -10.35882
 Alpha  occ. eigenvalues --  -10.34362 -10.34179 -10.32868 -10.32804 -10.32680
 Alpha  occ. eigenvalues --  -10.30999 -10.30875 -10.30852 -10.30274  -8.09572
 Alpha  occ. eigenvalues --   -8.09498  -8.09353  -6.04430  -6.04348  -6.04195
 Alpha  occ. eigenvalues --   -6.04058  -6.03974  -6.03811  -6.03610  -6.03560
 Alpha  occ. eigenvalues --   -6.03436  -1.17950  -1.02718  -0.99975  -0.95706
 Alpha  occ. eigenvalues --   -0.87730  -0.86263  -0.84379  -0.81426  -0.80380
 Alpha  occ. eigenvalues --   -0.72544  -0.68209  -0.66984  -0.64244  -0.63935
 Alpha  occ. eigenvalues --   -0.62707  -0.59090  -0.57137  -0.52515  -0.52484
 Alpha  occ. eigenvalues --   -0.52054  -0.51094  -0.49628  -0.48408  -0.47623
 Alpha  occ. eigenvalues --   -0.46244  -0.46049  -0.45423  -0.43829  -0.42571
 Alpha  occ. eigenvalues --   -0.42187  -0.37541  -0.34539  -0.31995  -0.30998
 Alpha  occ. eigenvalues --   -0.27641
 Alpha virt. eigenvalues --   -0.00156   0.04382   0.05388   0.05648   0.06091
 Alpha virt. eigenvalues --    0.06716   0.07045   0.07503   0.08316   0.08912
 Alpha virt. eigenvalues --    0.09119   0.09625   0.09838   0.10359   0.10479

 Mulliken charges:
               1
     1  C   -0.732171
     2  C    0.636670
     3  C    0.152659
     4  C    0.362203
     5  S   -0.483553
     6  H    0.185181
     7  C    0.149905
     8  S   -0.569110
     9  C    0.383393
    10  C    0.212094
    11  C    0.012311
    12  H    0.154979
    13  S   -0.452336
    14  C   -0.142575
    15  C   -0.363254
    16  H    0.194894
    17  H    0.163389
    18  H    0.140241
    19  O   -0.269371
    20  H    0.264452
 Sum of Mulliken charges =  -0.00000

 Dipole moment (field-independent basis, Debye):
    X=             -1.2720    Y=              1.3693    Z=              0.3407  Tot=              1.8997
 Quadrupole moment (field-independent basis, Debye-Ang):
   XX=            -96.4571   YY=            -90.8528   ZZ=           -107.5197
   XY=              5.7648   XZ=              0.3015   YZ=              1.2764

 Normal termination of Gaussian 16 at Tue Oct 26 22:13:27 2021.
