 Gaussian 16, Revision C.01,
 Gaussian 16:  ES64L-G16RevC.01  3-Jul-2019

 --------------------------------------
 # opt=modredundant wb97xd/6-311+g(d,p)
 --------------------------------------

 --------------
 pg2T_TT_75.pdb
 --------------
 Symbolic Z-matrix:
 Charge =  0 Multiplicity = 1

 SCF Done:  E(RwB97XD) =  -1654.22358618     A.U. after   18 cycles
 SCF Done:  E(RwB97XD) =  -1654.29391616     A.U. after   15 cycles
 SCF Done:  E(RwB97XD) =  -1654.38267738     A.U. after   16 cycles
 SCF Done:  E(RwB97XD) =  -1654.39849088     A.U. after   15 cycles
 SCF Done:  E(RwB97XD) =  -1654.40756062     A.U. after   15 cycles
 SCF Done:  E(RwB97XD) =  -1654.40897922     A.U. after   15 cycles
 SCF Done:  E(RwB97XD) =  -1654.41006882     A.U. after   14 cycles
 SCF Done:  E(RwB97XD) =  -1654.40989171     A.U. after   14 cycles
 SCF Done:  E(RwB97XD) =  -1654.41041402     A.U. after   13 cycles
 SCF Done:  E(RwB97XD) =  -1654.41042077     A.U. after   13 cycles
 SCF Done:  E(RwB97XD) =  -1654.41043298     A.U. after   13 cycles
 SCF Done:  E(RwB97XD) =  -1654.41043943     A.U. after   12 cycles
 SCF Done:  E(RwB97XD) =  -1654.41043954     A.U. after   10 cycles
 SCF Done:  E(RwB97XD) =  -1654.41043958     A.U. after    9 cycles
 Optimization completed.
    -- Stationary point found.

                         Standard orientation:
 ---------------------------------------------------------------------
 Center     Atomic      Atomic             Coordinates (Angstroms)
 Number     Number       Type             X           Y           Z
 ---------------------------------------------------------------------
      1          6           0        3.806533    0.243385    0.505003
      2          6           0        2.456425    0.598104    0.792338
      3          6           0        1.560022   -0.058528   -0.001471
      4          6           0        3.914783   -0.678567   -0.492079
      5         16           0        2.367265   -1.122356   -1.101167
      6          1           0        4.819948   -1.108402   -0.890864
      7          6           0        0.098279    0.027142    0.027944
      8         16           0       -0.706568    1.441702   -0.623599
      9          6           0       -2.257700    0.761456   -0.272590
     10          6           0       -2.129312   -0.491177    0.296176
     11          6           0       -0.782716   -0.917154    0.464389
     12          1           0       -0.469179   -1.860657    0.889365
     13         16           0       -3.681854   -1.171097    0.649505
     14          6           0       -4.471650    0.244322    0.026060
     15          6           0       -3.607839    1.190218   -0.428163
     16          1           0       -5.550419    0.290920    0.031662
     17          1           0       -3.918871    2.134909   -0.851114
     18          1           0        2.157186    1.301869    1.559843
     19          8           0        4.895109    0.744167    1.146693
     20          1           0        4.618007    1.400839    1.786117
 ---------------------------------------------------------------------

 The electronic state is 1-A.
 Alpha  occ. eigenvalues --  -89.05378 -89.05366 -89.05175 -19.28773 -10.35762
 Alpha  occ. eigenvalues --  -10.34011 -10.33846 -10.32749 -10.32673 -10.32643
 Alpha  occ. eigenvalues --  -10.30953 -10.30816 -10.30799 -10.30310  -8.09414
 Alpha  occ. eigenvalues --   -8.09411  -8.09229  -6.04267  -6.04260  -6.04064
 Alpha  occ. eigenvalues --   -6.03895  -6.03886  -6.03681  -6.03474  -6.03465
 Alpha  occ. eigenvalues --   -6.03326  -1.17839  -1.02548  -0.99835  -0.95588
 Alpha  occ. eigenvalues --   -0.87444  -0.86122  -0.84146  -0.81395  -0.80339
 Alpha  occ. eigenvalues --   -0.72303  -0.67778  -0.66951  -0.64417  -0.63497
 Alpha  occ. eigenvalues --   -0.62825  -0.58863  -0.57046  -0.52372  -0.52361
 Alpha  occ. eigenvalues --   -0.51986  -0.50730  -0.50433  -0.48197  -0.47792
 Alpha  occ. eigenvalues --   -0.46063  -0.45403  -0.44453  -0.43699  -0.42494
 Alpha  occ. eigenvalues --   -0.42387  -0.37249  -0.33539  -0.31504  -0.30480
 Alpha  occ. eigenvalues --   -0.29431
 Alpha virt. eigenvalues --    0.01671   0.03787   0.05033   0.05483   0.06053
 Alpha virt. eigenvalues --    0.06905   0.07044   0.07439   0.07515   0.08442
 Alpha virt. eigenvalues --    0.09039   0.09316   0.09757   0.10061   0.10156

 Mulliken charges:
               1
     1  C   -0.555332
     2  C   -0.001169
     3  C    0.118359
     4  C    0.211792
     5  S   -0.142315
     6  H    0.187737
     7  C   -0.012171
     8  S   -0.496522
     9  C    0.307407
    10  C   -0.571685
    11  C    0.693327
    12  H    0.170373
    13  S   -0.421521
    14  C   -0.197450
    15  C    0.208651
    16  H    0.194380
    17  H    0.163429
    18  H    0.152059
    19  O   -0.276063
    20  H    0.266714
 Sum of Mulliken charges =  -0.00000

 Dipole moment (field-independent basis, Debye):
    X=             -1.1112    Y=              1.0851    Z=              1.0915  Tot=              1.8983
 Quadrupole moment (field-independent basis, Debye-Ang):
   XX=            -96.4591   YY=            -97.0099   ZZ=           -101.1095
   XY=             -0.5463   XZ=              3.6441   YZ=              2.4270

 Normal termination of Gaussian 16 at Wed Oct 27 00:37:01 2021.
