 Gaussian 16, Revision C.01,
 Gaussian 16:  ES64L-G16RevC.01  3-Jul-2019

 --------------------------------------
 # opt=modredundant wb97xd/6-311+g(d,p)
 --------------------------------------

 --------------
 pg2T_TT_85.pdb
 --------------
 Symbolic Z-matrix:
 Charge =  0 Multiplicity = 1

 SCF Done:  E(RwB97XD) =  -1654.22316989     A.U. after   18 cycles
 SCF Done:  E(RwB97XD) =  -1654.29349466     A.U. after   15 cycles
 SCF Done:  E(RwB97XD) =  -1654.38223082     A.U. after   16 cycles
 SCF Done:  E(RwB97XD) =  -1654.39806036     A.U. after   15 cycles
 SCF Done:  E(RwB97XD) =  -1654.40710660     A.U. after   15 cycles
 SCF Done:  E(RwB97XD) =  -1654.40852792     A.U. after   14 cycles
 SCF Done:  E(RwB97XD) =  -1654.40960132     A.U. after   14 cycles
 SCF Done:  E(RwB97XD) =  -1654.40940929     A.U. after   14 cycles
 SCF Done:  E(RwB97XD) =  -1654.40991013     A.U. after   13 cycles
 SCF Done:  E(RwB97XD) =  -1654.40991398     A.U. after   13 cycles
 SCF Done:  E(RwB97XD) =  -1654.40993202     A.U. after   13 cycles
 SCF Done:  E(RwB97XD) =  -1654.40993779     A.U. after   12 cycles
 SCF Done:  E(RwB97XD) =  -1654.40993790     A.U. after   10 cycles
 SCF Done:  E(RwB97XD) =  -1654.40993813     A.U. after   10 cycles
 Optimization completed.
    -- Stationary point found.

                         Standard orientation:
 ---------------------------------------------------------------------
 Center     Atomic      Atomic             Coordinates (Angstroms)
 Number     Number       Type             X           Y           Z
 ---------------------------------------------------------------------
      1          6           0       -3.794225    0.054134   -0.605783
      2          6           0       -2.434261    0.267441   -0.975560
      3          6           0       -1.560416   -0.063834    0.019730
      4          6           0       -3.932058   -0.434302    0.658447
      5         16           0       -2.401276   -0.640306    1.417571
      6          1           0       -4.849772   -0.679843    1.169012
      7          6           0       -0.096310    0.009920   -0.010616
      8         16           0        0.714930    1.516361    0.371728
      9          6           0        2.262350    0.781343    0.133866
     10          6           0        2.128324   -0.549746   -0.211422
     11          6           0        0.779924   -0.995453   -0.290922
     12          1           0        0.461316   -1.997643   -0.542182
     13         16           0        3.677532   -1.284664   -0.451504
     14          6           0        4.473555    0.214277   -0.083444
     15          6           0        3.614281    1.226174    0.207669
     16          1           0        5.552330    0.256511   -0.103949
     17          1           0        3.929433    2.228391    0.461241
     18          1           0       -2.111778    0.646078   -1.938052
     19          8           0       -4.865008    0.295031   -1.407865
     20          1           0       -4.567415    0.664290   -2.239665
 ---------------------------------------------------------------------

 The electronic state is 1-A.
 Alpha  occ. eigenvalues --  -89.05369 -89.05347 -89.05141 -19.28767 -10.35745
 Alpha  occ. eigenvalues --  -10.33977 -10.33812 -10.32745 -10.32660 -10.32649
 Alpha  occ. eigenvalues --  -10.30969 -10.30819 -10.30796 -10.30324  -8.09414
 Alpha  occ. eigenvalues --   -8.09384  -8.09195  -6.04263  -6.04236  -6.04030
 Alpha  occ. eigenvalues --   -6.03889  -6.03863  -6.03647  -6.03477  -6.03435
 Alpha  occ. eigenvalues --   -6.03293  -1.17830  -1.02535  -0.99813  -0.95578
 Alpha  occ. eigenvalues --   -0.87438  -0.86088  -0.84114  -0.81395  -0.80341
 Alpha  occ. eigenvalues --   -0.72278  -0.67775  -0.66921  -0.64343  -0.63427
 Alpha  occ. eigenvalues --   -0.62972  -0.58864  -0.57046  -0.52376  -0.52316
 Alpha  occ. eigenvalues --   -0.51970  -0.50630  -0.50538  -0.48210  -0.47789
 Alpha  occ. eigenvalues --   -0.46029  -0.45397  -0.44311  -0.43761  -0.42468
 Alpha  occ. eigenvalues --   -0.42387  -0.37226  -0.33428  -0.31357  -0.30200
 Alpha  occ. eigenvalues --   -0.29934
 Alpha virt. eigenvalues --    0.02008   0.03413   0.05028   0.05495   0.06055
 Alpha virt. eigenvalues --    0.06901   0.07027   0.07409   0.07508   0.08445
 Alpha virt. eigenvalues --    0.08990   0.09289   0.09753   0.10134   0.10190

 Mulliken charges:
               1
     1  C   -0.594499
     2  C    0.076358
     3  C    0.108945
     4  C    0.253226
     5  S   -0.156007
     6  H    0.187201
     7  C   -0.122100
     8  S   -0.515713
     9  C    0.295570
    10  C   -0.544819
    11  C    0.706801
    12  H    0.168485
    13  S   -0.419833
    14  C   -0.201425
    15  C    0.259455
    16  H    0.194400
    17  H    0.163543
    18  H    0.149985
    19  O   -0.277191
    20  H    0.267620
 Sum of Mulliken charges =  -0.00000

 Dipole moment (field-independent basis, Debye):
    X=              1.1469    Y=              0.6113    Z=             -1.4182  Tot=              1.9236
 Quadrupole moment (field-independent basis, Debye-Ang):
   XX=            -96.6001   YY=            -99.6645   ZZ=            -98.4245
   XY=              1.8833   XZ=              3.6113   YZ=             -1.7581

 Normal termination of Gaussian 16 at Wed Oct 27 00:36:02 2021.
