 Gaussian 16, Revision C.01,
 Gaussian 16:  ES64L-G16RevC.01  3-Jul-2019

 --------------------------------------
 # opt=modredundant wb97xd/6-311+g(d,p)
 --------------------------------------

 ---------------
 pg2T_TT_120.pdb
 ---------------
 Symbolic Z-matrix:
 Charge =  0 Multiplicity = 1

 SCF Done:  E(RwB97XD) =  -1654.22417251     A.U. after   18 cycles
 SCF Done:  E(RwB97XD) =  -1654.29449734     A.U. after   16 cycles
 SCF Done:  E(RwB97XD) =  -1654.38326438     A.U. after   16 cycles
 SCF Done:  E(RwB97XD) =  -1654.39921987     A.U. after   16 cycles
 SCF Done:  E(RwB97XD) =  -1654.40828254     A.U. after   16 cycles
 SCF Done:  E(RwB97XD) =  -1654.40970257     A.U. after   15 cycles
 SCF Done:  E(RwB97XD) =  -1654.41077075     A.U. after   14 cycles
 SCF Done:  E(RwB97XD) =  -1654.41066037     A.U. after   15 cycles
 SCF Done:  E(RwB97XD) =  -1654.41098143     A.U. after   13 cycles
 SCF Done:  E(RwB97XD) =  -1654.41099491     A.U. after   13 cycles
 SCF Done:  E(RwB97XD) =  -1654.41101302     A.U. after   13 cycles
 SCF Done:  E(RwB97XD) =  -1654.41101706     A.U. after   12 cycles
 SCF Done:  E(RwB97XD) =  -1654.41101713     A.U. after   10 cycles
 Optimization completed.
    -- Stationary point found.

                         Standard orientation:
 ---------------------------------------------------------------------
 Center     Atomic      Atomic             Coordinates (Angstroms)
 Number     Number       Type             X           Y           Z
 ---------------------------------------------------------------------
      1          6           0        3.748979    0.676291   -0.296785
      2          6           0        2.364454    0.933035   -0.517380
      3          6           0        1.556441    0.005053    0.076331
      4          6           0        3.971963   -0.444229    0.444483
      5         16           0        2.491347   -1.196900    0.899452
      6          1           0        4.923592   -0.855158    0.741875
      7          6           0        0.096804   -0.036020    0.046766
      8         16           0       -0.745167   -1.415625   -0.631847
      9          6           0       -2.275669   -0.657964   -0.354415
     10          6           0       -2.113196    0.591730    0.211619
     11          6           0       -0.756966    0.950959    0.444073
     12          1           0       -0.417531    1.872473    0.896215
     13         16           0       -3.646101    1.345950    0.492219
     14          6           0       -4.473701   -0.034967   -0.159613
     15          6           0       -3.635875   -1.023656   -0.569379
     16          1           0       -5.552645   -0.030993   -0.201456
     17          1           0       -3.971882   -1.956269   -0.999947
     18          1           0        1.978033    1.755961   -1.106268
     19          8           0        4.766213    1.443080   -0.770535
     20          1           0        4.410075    2.173129   -1.277504
 ---------------------------------------------------------------------

 The electronic state is 1-A.
 Alpha  occ. eigenvalues --  -89.05414 -89.05398 -89.05184 -19.28815 -10.35797
 Alpha  occ. eigenvalues --  -10.34088 -10.33926 -10.32775 -10.32708 -10.32652
 Alpha  occ. eigenvalues --  -10.30961 -10.30839 -10.30816 -10.30320  -8.09453
 Alpha  occ. eigenvalues --   -8.09443  -8.09243  -6.04307  -6.04292  -6.04079
 Alpha  occ. eigenvalues --   -6.03935  -6.03918  -6.03697  -6.03505  -6.03500
 Alpha  occ. eigenvalues --   -6.03336  -1.17883  -1.02590  -0.99868  -0.95619
 Alpha  occ. eigenvalues --   -0.87549  -0.86139  -0.84195  -0.81408  -0.80351
 Alpha  occ. eigenvalues --   -0.72372  -0.67963  -0.66886  -0.64179  -0.63593
 Alpha  occ. eigenvalues --   -0.63006  -0.58931  -0.57096  -0.52453  -0.52311
 Alpha  occ. eigenvalues --   -0.51992  -0.50868  -0.50132  -0.48309  -0.47768
 Alpha  occ. eigenvalues --   -0.46049  -0.45572  -0.44653  -0.43722  -0.42594
 Alpha  occ. eigenvalues --   -0.42381  -0.37258  -0.33858  -0.31414  -0.31042
 Alpha  occ. eigenvalues --   -0.28754
 Alpha virt. eigenvalues --    0.01121   0.04321   0.04917   0.05621   0.06102
 Alpha virt. eigenvalues --    0.06915   0.06965   0.07447   0.07560   0.08701
 Alpha virt. eigenvalues --    0.09063   0.09384   0.09766   0.10097   0.10308

 Mulliken charges:
               1
     1  C   -0.712011
     2  C    0.311303
     3  C    0.135310
     4  C    0.299482
     5  S   -0.284512
     6  H    0.187240
     7  C   -0.160198
     8  S   -0.568974
     9  C    0.249761
    10  C   -0.379776
    11  C    0.686599
    12  H    0.164443
    13  S   -0.428669
    14  C   -0.192910
    15  C    0.198465
    16  H    0.194577
    17  H    0.163509
    18  H    0.145856
    19  O   -0.274789
    20  H    0.265293
 Sum of Mulliken charges =  -0.00000

 Dipole moment (field-independent basis, Debye):
    X=             -1.2329    Y=              1.1967    Z=             -0.9075  Tot=              1.9431
 Quadrupole moment (field-independent basis, Debye-Ang):
   XX=            -96.8168   YY=            -94.6392   ZZ=           -103.5162
   XY=              5.0073   XZ=              0.1684   YZ=             -2.0191

 Normal termination of Gaussian 16 at Wed Oct 27 01:04:05 2021.
