 Gaussian 16, Revision C.01,
 Gaussian 16:  ES64L-G16RevC.01  3-Jul-2019

 --------------------------------------
 # opt=modredundant wb97xd/6-311+g(d,p)
 --------------------------------------

 ---------------
 pg2T_TT_-40.pdb
 ---------------
 Symbolic Z-matrix:
 Charge =  0 Multiplicity = 1

 SCF Done:  E(RwB97XD) =  -1654.22667529     A.U. after   19 cycles
 SCF Done:  E(RwB97XD) =  -1654.29681345     A.U. after   15 cycles
 SCF Done:  E(RwB97XD) =  -1654.38528313     A.U. after   16 cycles
 SCF Done:  E(RwB97XD) =  -1654.40098555     A.U. after   15 cycles
 SCF Done:  E(RwB97XD) =  -1654.40989258     A.U. after   16 cycles
 SCF Done:  E(RwB97XD) =  -1654.41132652     A.U. after   15 cycles
 SCF Done:  E(RwB97XD) =  -1654.41237046     A.U. after   14 cycles
 SCF Done:  E(RwB97XD) =  -1654.41238746     A.U. after   13 cycles
 SCF Done:  E(RwB97XD) =  -1654.41246138     A.U. after   13 cycles
 SCF Done:  E(RwB97XD) =  -1654.41252252     A.U. after   12 cycles
 SCF Done:  E(RwB97XD) =  -1654.41252364     A.U. after   12 cycles
 SCF Done:  E(RwB97XD) =  -1654.41252918     A.U. after   11 cycles
 SCF Done:  E(RwB97XD) =  -1654.41252942     A.U. after   10 cycles
 Optimization completed.
    -- Stationary point found.

                         Standard orientation:
 ---------------------------------------------------------------------
 Center     Atomic      Atomic             Coordinates (Angstroms)
 Number     Number       Type             X           Y           Z
 ---------------------------------------------------------------------
      1          6           0       -3.808126    0.385974    0.280078
      2          6           0       -2.463094    0.837014    0.411680
      3          6           0       -1.552934   -0.095805   -0.002655
      4          6           0       -3.902748   -0.875563   -0.224420
      5         16           0       -2.345010   -1.526806   -0.567575
      6          1           0       -4.800659   -1.441629   -0.414067
      7          6           0       -0.100295    0.001271    0.000576
      8         16           0        0.669745    1.510492   -0.448742
      9          6           0        2.238472    0.823260   -0.197723
     10          6           0        2.140366   -0.500206    0.185458
     11          6           0        0.805489   -0.974617    0.302824
     12          1           0        0.520836   -1.969653    0.616290
     13         16           0        3.709356   -1.187087    0.436060
     14          6           0        4.464397    0.319865    0.017768
     15          6           0        3.576707    1.300712   -0.295559
     16          1           0        5.541832    0.389690    0.027209
     17          1           0        3.864067    2.302765   -0.580811
     18          1           0       -2.180955    1.799040    0.822859
     19          8           0       -4.905459    1.108974    0.625113
     20          1           0       -4.636290    1.970996    0.943566
 ---------------------------------------------------------------------

 The electronic state is 1-A.
 Alpha  occ. eigenvalues --  -89.05527 -89.05411 -89.05263 -19.28816 -10.35847
 Alpha  occ. eigenvalues --  -10.34240 -10.34068 -10.32829 -10.32766 -10.32662
 Alpha  occ. eigenvalues --  -10.30938 -10.30856 -10.30835 -10.30276  -8.09571
 Alpha  occ. eigenvalues --   -8.09455  -8.09323  -6.04428  -6.04304  -6.04163
 Alpha  occ. eigenvalues --   -6.04057  -6.03930  -6.03780  -6.03613  -6.03519
 Alpha  occ. eigenvalues --   -6.03409  -1.17900  -1.02668  -0.99937  -0.95680
 Alpha  occ. eigenvalues --   -0.87558  -0.86327  -0.84289  -0.81425  -0.80365
 Alpha  occ. eigenvalues --   -0.72469  -0.67943  -0.67072  -0.64653  -0.63718
 Alpha  occ. eigenvalues --   -0.62396  -0.58938  -0.57092  -0.52509  -0.52451
 Alpha  occ. eigenvalues --   -0.52060  -0.50996  -0.50132  -0.48124  -0.47861
 Alpha  occ. eigenvalues --   -0.46266  -0.45525  -0.45167  -0.43627  -0.42586
 Alpha  occ. eigenvalues --   -0.42423  -0.37402  -0.34275  -0.31734  -0.31101
 Alpha  occ. eigenvalues --   -0.28078
 Alpha virt. eigenvalues --    0.00369   0.04865   0.05184   0.05521   0.06071
 Alpha virt. eigenvalues --    0.06779   0.07470   0.07529   0.07694   0.08535
 Alpha virt. eigenvalues --    0.09100   0.09457   0.09808   0.10012   0.10152

 Mulliken charges:
               1
     1  C   -0.761717
     2  C    0.340864
     3  C    0.324064
     4  C    0.333161
     5  S   -0.395464
     6  H    0.187066
     7  C    0.404792
     8  S   -0.515424
     9  C    0.427452
    10  C    0.054649
    11  C   -0.136536
    12  H    0.173907
    13  S   -0.450263
    14  C   -0.142323
    15  C   -0.348191
    16  H    0.194534
    17  H    0.163039
    18  H    0.153151
    19  O   -0.270942
    20  H    0.264181
 Sum of Mulliken charges =  -0.00000

 Dipole moment (field-independent basis, Debye):
    X=              1.1194    Y=              1.4566    Z=              0.5954  Tot=              1.9311
 Quadrupole moment (field-independent basis, Debye-Ang):
   XX=            -96.3504   YY=            -92.1916   ZZ=           -106.1009
   XY=             -0.0854   XZ=             -1.9954   YZ=              1.5937

 Normal termination of Gaussian 16 at Tue Oct 26 23:12:46 2021.
