 Gaussian 16, Revision C.01,
 Gaussian 16:  ES64L-G16RevC.01  3-Jul-2019

 --------------------------------------
 # opt=modredundant wb97xd/6-311+g(d,p)
 --------------------------------------

 ---------------
 pg2T_TT_-30.pdb
 ---------------
 Symbolic Z-matrix:
 Charge =  0 Multiplicity = 1

 SCF Done:  E(RwB97XD) =  -1654.22707090     A.U. after   19 cycles
 SCF Done:  E(RwB97XD) =  -1654.29713860     A.U. after   15 cycles
 SCF Done:  E(RwB97XD) =  -1654.38549524     A.U. after   16 cycles
 SCF Done:  E(RwB97XD) =  -1654.40104851     A.U. after   15 cycles
 SCF Done:  E(RwB97XD) =  -1654.40992369     A.U. after   16 cycles
 SCF Done:  E(RwB97XD) =  -1654.41135775     A.U. after   15 cycles
 SCF Done:  E(RwB97XD) =  -1654.41240168     A.U. after   14 cycles
 SCF Done:  E(RwB97XD) =  -1654.41245260     A.U. after   13 cycles
 SCF Done:  E(RwB97XD) =  -1654.41249052     A.U. after   13 cycles
 SCF Done:  E(RwB97XD) =  -1654.41254953     A.U. after   13 cycles
 SCF Done:  E(RwB97XD) =  -1654.41255069     A.U. after   11 cycles
 SCF Done:  E(RwB97XD) =  -1654.41255110     A.U. after   11 cycles
 SCF Done:  E(RwB97XD) =  -1654.41255164     A.U. after   10 cycles
 Optimization completed.
    -- Stationary point found.

                         Standard orientation:
 ---------------------------------------------------------------------
 Center     Atomic      Atomic             Coordinates (Angstroms)
 Number     Number       Type             X           Y           Z
 ---------------------------------------------------------------------
      1          6           0       -3.808943    0.402443    0.220141
      2          6           0       -2.464150    0.861977    0.319937
      3          6           0       -1.551441   -0.106137    0.002148
      4          6           0       -3.902577   -0.898963   -0.169153
      5         16           0       -2.343345   -1.580590   -0.441316
      6          1           0       -4.799565   -1.479928   -0.311993
      7          6           0       -0.100359   -0.005806   -0.008009
      8         16           0        0.662140    1.533268   -0.360172
      9          6           0        2.234750    0.839068   -0.156862
     10          6           0        2.144001   -0.505817    0.143889
     11          6           0        0.811951   -0.992648    0.235860
     12          1           0        0.535426   -2.006300    0.491997
     13         16           0        3.716927   -1.199526    0.345271
     14          6           0        4.463534    0.333907    0.018083
     15          6           0        3.570067    1.328001   -0.231028
     16          1           0        5.540655    0.408169    0.028054
     17          1           0        3.851733    2.347034   -0.455237
     18          1           0       -2.186419    1.858321    0.643137
     19          8           0       -4.907004    1.155538    0.490017
     20          1           0       -4.638323    2.041834    0.733349
 ---------------------------------------------------------------------

 The electronic state is 1-A.
 Alpha  occ. eigenvalues --  -89.05552 -89.05435 -89.05259 -19.28827 -10.35860
 Alpha  occ. eigenvalues --  -10.34308 -10.34135 -10.32860 -10.32796 -10.32679
 Alpha  occ. eigenvalues --  -10.30961 -10.30879 -10.30848 -10.30283  -8.09600
 Alpha  occ. eigenvalues --   -8.09479  -8.09322  -6.04458  -6.04328  -6.04164
 Alpha  occ. eigenvalues --   -6.04087  -6.03954  -6.03781  -6.03638  -6.03542
 Alpha  occ. eigenvalues --   -6.03404  -1.17912  -1.02704  -0.99954  -0.95707
 Alpha  occ. eigenvalues --   -0.87599  -0.86379  -0.84321  -0.81434  -0.80380
 Alpha  occ. eigenvalues --   -0.72513  -0.67996  -0.67108  -0.64716  -0.63776
 Alpha  occ. eigenvalues --   -0.62308  -0.58968  -0.57106  -0.52540  -0.52479
 Alpha  occ. eigenvalues --   -0.52084  -0.51056  -0.50057  -0.48102  -0.47876
 Alpha  occ. eigenvalues --   -0.46336  -0.45558  -0.45408  -0.43602  -0.42592
 Alpha  occ. eigenvalues --   -0.42413  -0.37450  -0.34473  -0.31756  -0.31195
 Alpha  occ. eigenvalues --   -0.27821
 Alpha virt. eigenvalues --    0.00066   0.04860   0.05316   0.05537   0.06061
 Alpha virt. eigenvalues --    0.06752   0.07515   0.07601   0.07887   0.08542
 Alpha virt. eigenvalues --    0.09058   0.09444   0.09902   0.10068   0.10154

 Mulliken charges:
               1
     1  C   -0.785520
     2  C    0.569956
     3  C    0.215245
     4  C    0.352075
     5  S   -0.463280
     6  H    0.186551
     7  C    0.240563
     8  S   -0.567339
     9  C    0.405112
    10  C    0.135247
    11  C   -0.024553
    12  H    0.171751
    13  S   -0.455794
    14  C   -0.138280
    15  C   -0.343848
    16  H    0.194661
    17  H    0.162814
    18  H    0.151464
    19  O   -0.271064
    20  H    0.264239
 Sum of Mulliken charges =  -0.00000

 Dipole moment (field-independent basis, Debye):
    X=              1.1356    Y=              1.5011    Z=              0.4763  Tot=              1.9415
 Quadrupole moment (field-independent basis, Debye-Ang):
   XX=            -96.2759   YY=            -91.3839   ZZ=           -106.9854
   XY=             -0.1803   XZ=             -1.5153   YZ=              1.2520

 Normal termination of Gaussian 16 at Tue Oct 26 23:29:10 2021.
