 Gaussian 16, Revision C.01,
 Gaussian 16:  ES64L-G16RevC.01  3-Jul-2019

 --------------------------------------
 # opt=modredundant wb97xd/6-311+g(d,p)
 --------------------------------------

 --------------
 pg2T_TT_10.pdb
 --------------
 Symbolic Z-matrix:
 Charge =  0 Multiplicity = 1

 SCF Done:  E(RwB97XD) =  -1654.22600317     A.U. after   19 cycles
 SCF Done:  E(RwB97XD) =  -1654.29617232     A.U. after   15 cycles
 SCF Done:  E(RwB97XD) =  -1654.38468915     A.U. after   16 cycles
 SCF Done:  E(RwB97XD) =  -1654.40027877     A.U. after   15 cycles
 SCF Done:  E(RwB97XD) =  -1654.40922456     A.U. after   15 cycles
 SCF Done:  E(RwB97XD) =  -1654.41064194     A.U. after   14 cycles
 SCF Done:  E(RwB97XD) =  -1654.41169063     A.U. after   14 cycles
 SCF Done:  E(RwB97XD) =  -1654.41174420     A.U. after   14 cycles
 SCF Done:  E(RwB97XD) =  -1654.41184131     A.U. after   14 cycles
 SCF Done:  E(RwB97XD) =  -1654.41190983     A.U. after   12 cycles
 SCF Done:  E(RwB97XD) =  -1654.41190994     A.U. after   12 cycles
 SCF Done:  E(RwB97XD) =  -1654.41191307     A.U. after   11 cycles
 SCF Done:  E(RwB97XD) =  -1654.41191329     A.U. after   10 cycles
 Optimization completed.
    -- Stationary point found.

                         Standard orientation:
 ---------------------------------------------------------------------
 Center     Atomic      Atomic             Coordinates (Angstroms)
 Number     Number       Type             X           Y           Z
 ---------------------------------------------------------------------
      1          6           0       -3.815025    0.417873   -0.081357
      2          6           0       -2.472470    0.892568   -0.118456
      3          6           0       -1.550853   -0.112643   -0.006204
      4          6           0       -3.900766   -0.932883    0.060318
      5         16           0       -2.335916   -1.648591    0.162628
      6          1           0       -4.793451   -1.535356    0.109892
      7          6           0       -0.101008   -0.005104    0.009109
      8         16           0        0.656339    1.572597    0.137559
      9          6           0        2.232759    0.861746    0.058164
     10          6           0        2.148180   -0.511786   -0.052085
     11          6           0        0.818725   -1.011236   -0.086191
     12          1           0        0.552781   -2.054692   -0.188139
     13         16           0        3.724884   -1.221585   -0.128932
     14          6           0        4.464303    0.345256   -0.009549
     15          6           0        3.565395    1.361358    0.083902
     16          1           0        5.541310    0.421348   -0.015131
     17          1           0        3.841984    2.402867    0.166060
     18          1           0       -2.207219    1.936275   -0.240354
     19          8           0       -4.917749    1.204813   -0.181591
     20          1           0       -4.653760    2.121421   -0.265607
 ---------------------------------------------------------------------

 The electronic state is 1-A.
 Alpha  occ. eigenvalues --  -89.05566 -89.05473 -89.05246 -19.28844 -10.35878
 Alpha  occ. eigenvalues --  -10.34423 -10.34244 -10.32912 -10.32841 -10.32708
 Alpha  occ. eigenvalues --  -10.31013 -10.30917 -10.30882 -10.30320  -8.09622
 Alpha  occ. eigenvalues --   -8.09517  -8.09316  -6.04483  -6.04366  -6.04163
 Alpha  occ. eigenvalues --   -6.04112  -6.03992  -6.03778  -6.03654  -6.03580
 Alpha  occ. eigenvalues --   -6.03390  -1.17934  -1.02756  -0.99982  -0.95742
 Alpha  occ. eigenvalues --   -0.87662  -0.86455  -0.84373  -0.81443  -0.80412
 Alpha  occ. eigenvalues --   -0.72577  -0.68090  -0.67169  -0.64819  -0.63873
 Alpha  occ. eigenvalues --   -0.62191  -0.59022  -0.57122  -0.52590  -0.52522
 Alpha  occ. eigenvalues --   -0.52130  -0.51148  -0.49942  -0.48110  -0.47826
 Alpha  occ. eigenvalues --   -0.46396  -0.45922  -0.45601  -0.43540  -0.42584
 Alpha  occ. eigenvalues --   -0.42368  -0.37521  -0.34788  -0.31825  -0.31250
 Alpha  occ. eigenvalues --   -0.27473
 Alpha virt. eigenvalues --   -0.00378   0.04800   0.05436   0.05560   0.06021
 Alpha virt. eigenvalues --    0.06705   0.07503   0.07676   0.08363   0.08510
 Alpha virt. eigenvalues --    0.08974   0.09395   0.10041   0.10150   0.10273

 Mulliken charges:
               1
     1  C   -0.747569
     2  C    0.904835
     3  C    0.081033
     4  C    0.288531
     5  S   -0.563704
     6  H    0.186601
     7  C   -0.016139
     8  S   -0.640081
     9  C    0.200756
    10  C    0.369992
    11  C    0.187745
    12  H    0.168846
    13  S   -0.467104
    14  C   -0.149568
    15  C   -0.300968
    16  H    0.194985
    17  H    0.162307
    18  H    0.147091
    19  O   -0.272602
    20  H    0.265014
 Sum of Mulliken charges =  -0.00000

 Dipole moment (field-independent basis, Debye):
    X=              1.1563    Y=              1.5454    Z=             -0.1827  Tot=              1.9388
 Quadrupole moment (field-independent basis, Debye-Ang):
   XX=            -96.1071   YY=            -90.3383   ZZ=           -108.1818
   XY=             -0.4020   XZ=              0.5121   YZ=             -0.4533

 Normal termination of Gaussian 16 at Tue Oct 26 23:46:10 2021.
