 Gaussian 16, Revision C.01,
 Gaussian 16:  ES64L-G16RevC.01  3-Jul-2019

 --------------------------------------
 # opt=modredundant wb97xd/6-311+g(d,p)
 --------------------------------------

 ---------------
 pg2T_TT_165.pdb
 ---------------
 Symbolic Z-matrix:
 Charge =  0 Multiplicity = 1

 SCF Done:  E(RwB97XD) =  -1654.22491495     A.U. after   19 cycles
 SCF Done:  E(RwB97XD) =  -1654.29504484     A.U. after   16 cycles
 SCF Done:  E(RwB97XD) =  -1654.38351736     A.U. after   17 cycles
 SCF Done:  E(RwB97XD) =  -1654.39916403     A.U. after   16 cycles
 SCF Done:  E(RwB97XD) =  -1654.40799789     A.U. after   15 cycles
 SCF Done:  E(RwB97XD) =  -1654.40931535     A.U. after   15 cycles
 SCF Done:  E(RwB97XD) =  -1654.41036939     A.U. after   14 cycles
 SCF Done:  E(RwB97XD) =  -1654.41033305     A.U. after   14 cycles
 SCF Done:  E(RwB97XD) =  -1654.41059596     A.U. after   14 cycles
 SCF Done:  E(RwB97XD) =  -1654.41062876     A.U. after   12 cycles
 SCF Done:  E(RwB97XD) =  -1654.41063162     A.U. after   12 cycles
 SCF Done:  E(RwB97XD) =  -1654.41063760     A.U. after   11 cycles
 SCF Done:  E(RwB97XD) =  -1654.41063779     A.U. after   10 cycles
 Optimization completed.
    -- Stationary point found.

                         Standard orientation:
 ---------------------------------------------------------------------
 Center     Atomic      Atomic             Coordinates (Angstroms)
 Number     Number       Type             X           Y           Z
 ---------------------------------------------------------------------
      1          6           0        3.747487    0.774922   -0.066839
      2          6           0        2.364426    1.090338   -0.183491
      3          6           0        1.556394   -0.004621   -0.032470
      4          6           0        3.977351   -0.545930    0.171905
      5         16           0        2.499774   -1.424620    0.273361
      6          1           0        4.928832   -1.039269    0.288216
      7          6           0        0.101198   -0.028777   -0.042714
      8         16           0       -0.777186   -1.535428   -0.225564
      9          6           0       -2.292048   -0.708158   -0.108541
     10          6           0       -2.100655    0.650151    0.051490
     11          6           0       -0.736678    1.042258    0.098508
     12          1           0       -0.388109    2.053504    0.254498
     13         16           0       -3.617885    1.475695    0.169886
     14          6           0       -4.477003   -0.024483   -0.002273
     15          6           0       -3.659868   -1.102125   -0.140934
     16          1           0       -5.556610   -0.017460    0.009399
     17          1           0       -4.016267   -2.115559   -0.258988
     18          1           0        1.988366    2.083156   -0.398461
     19          8           0        4.760379    1.672789   -0.184679
     20          1           0        4.401868    2.541496   -0.368015
 ---------------------------------------------------------------------

 The electronic state is 1-A.
 Alpha  occ. eigenvalues --  -89.05527 -89.05459 -89.05294 -19.28869 -10.35887
 Alpha  occ. eigenvalues --  -10.34395 -10.34212 -10.32876 -10.32813 -10.32684
 Alpha  occ. eigenvalues --  -10.31006 -10.30882 -10.30856 -10.30276  -8.09580
 Alpha  occ. eigenvalues --   -8.09503  -8.09363  -6.04439  -6.04353  -6.04206
 Alpha  occ. eigenvalues --   -6.04066  -6.03979  -6.03821  -6.03617  -6.03565
 Alpha  occ. eigenvalues --   -6.03445  -1.17953  -1.02730  -0.99985  -0.95714
 Alpha  occ. eigenvalues --   -0.87745  -0.86273  -0.84397  -0.81425  -0.80387
 Alpha  occ. eigenvalues --   -0.72558  -0.68232  -0.66999  -0.64264  -0.63960
 Alpha  occ. eigenvalues --   -0.62681  -0.59108  -0.57142  -0.52524  -0.52501
 Alpha  occ. eigenvalues --   -0.52056  -0.51120  -0.49583  -0.48408  -0.47580
 Alpha  occ. eigenvalues --   -0.46267  -0.46145  -0.45492  -0.43842  -0.42552
 Alpha  occ. eigenvalues --   -0.42153  -0.37582  -0.34600  -0.32048  -0.30969
 Alpha  occ. eigenvalues --   -0.27555
 Alpha virt. eigenvalues --   -0.00268   0.04327   0.05424   0.05643   0.06086
 Alpha virt. eigenvalues --    0.06682   0.07044   0.07495   0.08450   0.08892
 Alpha virt. eigenvalues --    0.09120   0.09636   0.09904   0.10388   0.10521

 Mulliken charges:
               1
     1  C   -0.725954
     2  C    0.731402
     3  C    0.118869
     4  C    0.363532
     5  S   -0.511228
     6  H    0.184916
     7  C    0.064138
     8  S   -0.583877
     9  C    0.374248
    10  C    0.249358
    11  C    0.037655
    12  H    0.153026
    13  S   -0.454867
    14  C   -0.146039
    15  C   -0.346691
    16  H    0.194983
    17  H    0.163335
    18  H    0.138048
    19  O   -0.269635
    20  H    0.264779
 Sum of Mulliken charges =  -0.00000

 Dipole moment (field-independent basis, Debye):
    X=             -1.2775    Y=              1.3841    Z=             -0.2643  Tot=              1.9020
 Quadrupole moment (field-independent basis, Debye-Ang):
   XX=            -96.4526   YY=            -90.5480   ZZ=           -107.8292
   XY=              5.8002   XZ=             -0.3158   YZ=             -1.0759

 Normal termination of Gaussian 16 at Wed Oct 27 01:27:27 2021.
