 Gaussian 16, Revision C.01,
 Gaussian 16:  ES64L-G16RevC.01  3-Jul-2019

 --------------------------------------
 # opt=modredundant wb97xd/6-311+g(d,p)
 --------------------------------------

 --------------
 pg2T_TT_40.pdb
 --------------
 Symbolic Z-matrix:
 Charge =  0 Multiplicity = 1

 SCF Done:  E(RwB97XD) =  -1654.22561303     A.U. after   19 cycles
 SCF Done:  E(RwB97XD) =  -1654.29596837     A.U. after   15 cycles
 SCF Done:  E(RwB97XD) =  -1654.38481957     A.U. after   16 cycles
 SCF Done:  E(RwB97XD) =  -1654.40069816     A.U. after   15 cycles
 SCF Done:  E(RwB97XD) =  -1654.40978938     A.U. after   17 cycles
 SCF Done:  E(RwB97XD) =  -1654.41116713     A.U. after   15 cycles
 SCF Done:  E(RwB97XD) =  -1654.41217508     A.U. after   14 cycles
 SCF Done:  E(RwB97XD) =  -1654.41205550     A.U. after   14 cycles
 SCF Done:  E(RwB97XD) =  -1654.41250693     A.U. after   13 cycles
 SCF Done:  E(RwB97XD) =  -1654.41251729     A.U. after   13 cycles
 SCF Done:  E(RwB97XD) =  -1654.41252338     A.U. after   12 cycles
 SCF Done:  E(RwB97XD) =  -1654.41252971     A.U. after   12 cycles
 SCF Done:  E(RwB97XD) =  -1654.41252979     A.U. after   10 cycles
 Optimization completed.
    -- Stationary point found.

                         Standard orientation:
 ---------------------------------------------------------------------
 Center     Atomic      Atomic             Coordinates (Angstroms)
 Number     Number       Type             X           Y           Z
 ---------------------------------------------------------------------
      1          6           0        3.808110    0.386064    0.279912
      2          6           0        2.463071    0.837064    0.411545
      3          6           0        1.552931   -0.095750   -0.002767
      4          6           0        3.902753   -0.875646   -0.224091
      5         16           0        2.345029   -1.526870   -0.567386
      6          1           0        4.800654   -1.441822   -0.413453
      7          6           0        0.100291    0.001329    0.000271
      8         16           0       -0.669810    1.510537   -0.448804
      9          6           0       -2.238492    0.823293   -0.197597
     10          6           0       -2.140332   -0.500256    0.185357
     11          6           0       -0.805437   -0.974658    0.302439
     12          1           0       -0.520657   -1.969656    0.615910
     13         16           0       -3.709286   -1.187157    0.435981
     14          6           0       -4.464391    0.319825    0.017909
     15          6           0       -3.576722    1.300771   -0.295173
     16          1           0       -5.541825    0.389604    0.027497
     17          1           0       -3.864107    2.302885   -0.580193
     18          1           0        2.180866    1.799163    0.822659
     19          8           0        4.905404    1.109041    0.625088
     20          1           0        4.636211    1.971113    0.943381
 ---------------------------------------------------------------------

 The electronic state is 1-A.
 Alpha  occ. eigenvalues --  -89.05528 -89.05411 -89.05263 -19.28816 -10.35846
 Alpha  occ. eigenvalues --  -10.34240 -10.34067 -10.32829 -10.32766 -10.32662
 Alpha  occ. eigenvalues --  -10.30938 -10.30856 -10.30835 -10.30277  -8.09572
 Alpha  occ. eigenvalues --   -8.09456  -8.09322  -6.04429  -6.04304  -6.04163
 Alpha  occ. eigenvalues --   -6.04058  -6.03930  -6.03779  -6.03613  -6.03519
 Alpha  occ. eigenvalues --   -6.03409  -1.17900  -1.02668  -0.99937  -0.95681
 Alpha  occ. eigenvalues --   -0.87558  -0.86327  -0.84289  -0.81426  -0.80365
 Alpha  occ. eigenvalues --   -0.72469  -0.67943  -0.67072  -0.64653  -0.63718
 Alpha  occ. eigenvalues --   -0.62396  -0.58938  -0.57092  -0.52509  -0.52452
 Alpha  occ. eigenvalues --   -0.52059  -0.50997  -0.50132  -0.48124  -0.47862
 Alpha  occ. eigenvalues --   -0.46266  -0.45525  -0.45167  -0.43627  -0.42586
 Alpha  occ. eigenvalues --   -0.42423  -0.37402  -0.34276  -0.31734  -0.31101
 Alpha  occ. eigenvalues --   -0.28077
 Alpha virt. eigenvalues --    0.00369   0.04865   0.05184   0.05521   0.06071
 Alpha virt. eigenvalues --    0.06779   0.07470   0.07529   0.07694   0.08535
 Alpha virt. eigenvalues --    0.09100   0.09457   0.09808   0.10012   0.10152

 Mulliken charges:
               1
     1  C   -0.761821
     2  C    0.341078
     3  C    0.324108
     4  C    0.333254
     5  S   -0.395555
     6  H    0.187064
     7  C    0.404604
     8  S   -0.515448
     9  C    0.427401
    10  C    0.054547
    11  C   -0.136413
    12  H    0.173917
    13  S   -0.450244
    14  C   -0.142285
    15  C   -0.348187
    16  H    0.194538
    17  H    0.163039
    18  H    0.153159
    19  O   -0.270936
    20  H    0.264181
 Sum of Mulliken charges =  -0.00000

 Dipole moment (field-independent basis, Debye):
    X=             -1.1197    Y=              1.4569    Z=              0.5956  Tot=              1.9315
 Quadrupole moment (field-independent basis, Debye-Ang):
   XX=            -96.3504   YY=            -92.1903   ZZ=           -106.1027
   XY=              0.0847   XZ=              1.9937   YZ=              1.5933

 Normal termination of Gaussian 16 at Wed Oct 27 00:14:14 2021.
