 Gaussian 16, Revision C.01,
 Gaussian 16:  ES64L-G16RevC.01  3-Jul-2019

 --------------------------------------
 # opt=modredundant wb97xd/6-311+g(d,p)
 --------------------------------------

 --------------
 pg2T_TT_-5.pdb
 --------------
 Symbolic Z-matrix:
 Charge =  0 Multiplicity = 1

 SCF Done:  E(RwB97XD) =  -1654.22639632     A.U. after   19 cycles
 SCF Done:  E(RwB97XD) =  -1654.29648451     A.U. after   15 cycles
 SCF Done:  E(RwB97XD) =  -1654.38483010     A.U. after   16 cycles
 SCF Done:  E(RwB97XD) =  -1654.40027108     A.U. after   15 cycles
 SCF Done:  E(RwB97XD) =  -1654.40917946     A.U. after   16 cycles
 SCF Done:  E(RwB97XD) =  -1654.41052645     A.U. after   14 cycles
 SCF Done:  E(RwB97XD) =  -1654.41155447     A.U. after   14 cycles
 SCF Done:  E(RwB97XD) =  -1654.41170095     A.U. after   13 cycles
 SCF Done:  E(RwB97XD) =  -1654.41170072     A.U. after   13 cycles
 SCF Done:  E(RwB97XD) =  -1654.41176721     A.U. after   13 cycles
 SCF Done:  E(RwB97XD) =  -1654.41177449     A.U. after   11 cycles
 SCF Done:  E(RwB97XD) =  -1654.41177621     A.U. after   11 cycles
 SCF Done:  E(RwB97XD) =  -1654.41177665     A.U. after   10 cycles
 Optimization completed.
    -- Stationary point found.

                         Standard orientation:
 ---------------------------------------------------------------------
 Center     Atomic      Atomic             Coordinates (Angstroms)
 Number     Number       Type             X           Y           Z
 ---------------------------------------------------------------------
      1          6           0       -3.816388    0.418859    0.041365
      2          6           0       -2.474369    0.896064    0.060861
      3          6           0       -1.551023   -0.112304    0.004340
      4          6           0       -3.900363   -0.937370   -0.031044
      5         16           0       -2.334274   -1.656233   -0.082632
      6          1           0       -4.792150   -1.542640   -0.056572
      7          6           0       -0.101155   -0.003622   -0.004468
      8         16           0        0.656262    1.578220   -0.069843
      9          6           0        2.232973    0.864489   -0.029642
     10          6           0        2.148516   -0.512224    0.026281
     11          6           0        0.819175   -1.012592    0.043933
     12          1           0        0.554404   -2.060035    0.096179
     13         16           0        3.725456   -1.224746    0.065534
     14          6           0        4.464634    0.345594    0.004576
     15          6           0        3.565485    1.364702   -0.042839
     16          1           0        5.541677    0.421311    0.007012
     17          1           0        3.841903    2.408643   -0.084841
     18          1           0       -2.211485    1.945624    0.122889
     19          8           0       -4.920149    1.209106    0.091457
     20          1           0       -4.657175    2.128815    0.134548
 ---------------------------------------------------------------------

 The electronic state is 1-A.
 Alpha  occ. eigenvalues --  -89.05567 -89.05478 -89.05245 -19.28845 -10.35881
 Alpha  occ. eigenvalues --  -10.34440 -10.34260 -10.32919 -10.32847 -10.32712
 Alpha  occ. eigenvalues --  -10.31022 -10.30921 -10.30889 -10.30329  -8.09623
 Alpha  occ. eigenvalues --   -8.09521  -8.09316  -6.04485  -6.04370  -6.04163
 Alpha  occ. eigenvalues --   -6.04114  -6.03996  -6.03778  -6.03654  -6.03584
 Alpha  occ. eigenvalues --   -6.03389  -1.17937  -1.02761  -0.99985  -0.95746
 Alpha  occ. eigenvalues --   -0.87670  -0.86464  -0.84381  -0.81444  -0.80417
 Alpha  occ. eigenvalues --   -0.72585  -0.68103  -0.67177  -0.64833  -0.63887
 Alpha  occ. eigenvalues --   -0.62178  -0.59030  -0.57124  -0.52597  -0.52527
 Alpha  occ. eigenvalues --   -0.52136  -0.51159  -0.49928  -0.48117  -0.47809
 Alpha  occ. eigenvalues --   -0.46374  -0.46023  -0.45610  -0.43530  -0.42581
 Alpha  occ. eigenvalues --   -0.42361  -0.37529  -0.34830  -0.31838  -0.31248
 Alpha  occ. eigenvalues --   -0.27433
 Alpha virt. eigenvalues --   -0.00432   0.04788   0.05441   0.05564   0.06006
 Alpha virt. eigenvalues --    0.06696   0.07490   0.07680   0.08434   0.08503
 Alpha virt. eigenvalues --    0.08958   0.09383   0.10039   0.10151   0.10337

 Mulliken charges:
               1
     1  C   -0.732031
     2  C    0.917155
     3  C    0.098256
     4  C    0.252258
     5  S   -0.571714
     6  H    0.187146
     7  C   -0.034129
     8  S   -0.646261
     9  C    0.134168
    10  C    0.421449
    11  C    0.211862
    12  H    0.168816
    13  S   -0.471901
    14  C   -0.164478
    15  C   -0.266747
    16  H    0.195144
    17  H    0.162211
    18  H    0.146443
    19  O   -0.272911
    20  H    0.265263
 Sum of Mulliken charges =  -0.00000

 Dipole moment (field-independent basis, Debye):
    X=              1.1586    Y=              1.5490    Z=              0.0935  Tot=              1.9366
 Quadrupole moment (field-independent basis, Debye-Ang):
   XX=            -96.0935   YY=            -90.2193   ZZ=           -108.3192
   XY=             -0.4371   XZ=             -0.2662   YZ=              0.2319

 Normal termination of Gaussian 16 at Tue Oct 26 23:28:47 2021.
