 Gaussian 16, Revision C.01,
 Gaussian 16:  ES64L-G16RevC.01  3-Jul-2019

 --------------------------------------
 # opt=modredundant wb97xd/6-311+g(d,p)
 --------------------------------------

 ---------------
 pg2T_TT_-50.pdb
 ---------------
 Symbolic Z-matrix:
 Charge =  0 Multiplicity = 1

 SCF Done:  E(RwB97XD) =  -1654.22592170     A.U. after   19 cycles
 SCF Done:  E(RwB97XD) =  -1654.29612920     A.U. after   15 cycles
 SCF Done:  E(RwB97XD) =  -1654.38470478     A.U. after   16 cycles
 SCF Done:  E(RwB97XD) =  -1654.40055589     A.U. after   15 cycles
 SCF Done:  E(RwB97XD) =  -1654.40952785     A.U. after   16 cycles
 SCF Done:  E(RwB97XD) =  -1654.41094647     A.U. after   14 cycles
 SCF Done:  E(RwB97XD) =  -1654.41198573     A.U. after   14 cycles
 SCF Done:  E(RwB97XD) =  -1654.41196671     A.U. after   14 cycles
 SCF Done:  E(RwB97XD) =  -1654.41216675     A.U. after   14 cycles
 SCF Done:  E(RwB97XD) =  -1654.41220157     A.U. after   13 cycles
 SCF Done:  E(RwB97XD) =  -1654.41220982     A.U. after   13 cycles
 SCF Done:  E(RwB97XD) =  -1654.41221578     A.U. after   13 cycles
 SCF Done:  E(RwB97XD) =  -1654.41221599     A.U. after   11 cycles
 Optimization completed.
    -- Stationary point found.

                         Standard orientation:
 ---------------------------------------------------------------------
 Center     Atomic      Atomic             Coordinates (Angstroms)
 Number     Number       Type             X           Y           Z
 ---------------------------------------------------------------------
      1          6           0       -3.809125    0.362133    0.337168
      2          6           0       -2.464417    0.801860    0.505563
      3          6           0       -1.554977   -0.082292   -0.004430
      4          6           0       -3.902776   -0.845812   -0.285564
      5         16           0       -2.345569   -1.457358   -0.694882
      6          1           0       -4.800809   -1.392320   -0.525646
      7          6           0       -0.100239    0.012265    0.012881
      8         16           0        0.679633    1.487304   -0.524446
      9          6           0        2.243559    0.805429   -0.233221
     10          6           0        2.136496   -0.493149    0.225785
     11          6           0        0.798167   -0.951988    0.367166
     12          1           0        0.504813   -1.927391    0.730192
     13         16           0        3.700791   -1.174869    0.517438
     14          6           0        4.466108    0.300980    0.015181
     15          6           0        3.585358    1.267878   -0.355294
     16          1           0        5.543985    0.364232    0.022089
     17          1           0        3.879738    2.249944   -0.697297
     18          1           0       -2.180260    1.720676    1.004554
     19          8           0       -4.906868    1.045146    0.755213
     20          1           0       -4.639139    1.878636    1.143211
 ---------------------------------------------------------------------

 The electronic state is 1-A.
 Alpha  occ. eigenvalues --  -89.05492 -89.05389 -89.05257 -19.28804 -10.35828
 Alpha  occ. eigenvalues --  -10.34171 -10.34000 -10.32798 -10.32734 -10.32648
 Alpha  occ. eigenvalues --  -10.30927 -10.30833 -10.30827 -10.30277  -8.09532
 Alpha  occ. eigenvalues --   -8.09434  -8.09313  -6.04388  -6.04282  -6.04151
 Alpha  occ. eigenvalues --   -6.04016  -6.03909  -6.03769  -6.03577  -6.03497
 Alpha  occ. eigenvalues --   -6.03404  -1.17884  -1.02627  -0.99912  -0.95649
 Alpha  occ. eigenvalues --   -0.87516  -0.86267  -0.84253  -0.81413  -0.80352
 Alpha  occ. eigenvalues --   -0.72420  -0.67888  -0.67034  -0.64588  -0.63659
 Alpha  occ. eigenvalues --   -0.62498  -0.58908  -0.57077  -0.52476  -0.52420
 Alpha  occ. eigenvalues --   -0.52035  -0.50933  -0.50203  -0.48152  -0.47835
 Alpha  occ. eigenvalues --   -0.46205  -0.45482  -0.44943  -0.43634  -0.42573
 Alpha  occ. eigenvalues --   -0.42417  -0.37351  -0.34063  -0.31706  -0.30965
 Alpha  occ. eigenvalues --   -0.28386
 Alpha virt. eigenvalues --    0.00707   0.04742   0.05047   0.05500   0.06057
 Alpha virt. eigenvalues --    0.06808   0.07316   0.07503   0.07605   0.08513
 Alpha virt. eigenvalues --    0.09126   0.09408   0.09793   0.09930   0.10154

 Mulliken charges:
               1
     1  C   -0.666740
     2  C    0.156107
     3  C    0.224395
     4  C    0.258257
     5  S   -0.262135
     6  H    0.187723
     7  C   -0.010511
     8  S   -0.550802
     9  C    0.317572
    10  C   -0.704105
    11  C    0.875665
    12  H    0.173308
    13  S   -0.432747
    14  C   -0.194727
    15  C    0.123471
    16  H    0.194388
    17  H    0.163179
    18  H    0.153978
    19  O   -0.270818
    20  H    0.264542
 Sum of Mulliken charges =  -0.00000

 Dipole moment (field-independent basis, Debye):
    X=              1.1017    Y=              1.3999    Z=              0.6983  Tot=              1.9134
 Quadrupole moment (field-independent basis, Debye-Ang):
   XX=            -96.3712   YY=            -93.1705   ZZ=           -105.0619
   XY=             -0.0423   XZ=             -2.4382   YZ=              1.8860

 Normal termination of Gaussian 16 at Tue Oct 26 23:24:36 2021.
