 Gaussian 16, Revision C.01,
 Gaussian 16:  ES64L-G16RevC.01  3-Jul-2019

 --------------------------------------
 # opt=modredundant wb97xd/6-311+g(d,p)
 --------------------------------------

 --------------
 pg2T_TT_95.pdb
 --------------
 Symbolic Z-matrix:
 Charge =  0 Multiplicity = 1

 SCF Done:  E(RwB97XD) =  -1654.22301241     A.U. after   18 cycles
 SCF Done:  E(RwB97XD) =  -1654.29335684     A.U. after   16 cycles
 SCF Done:  E(RwB97XD) =  -1654.38213261     A.U. after   16 cycles
 SCF Done:  E(RwB97XD) =  -1654.39801701     A.U. after   15 cycles
 SCF Done:  E(RwB97XD) =  -1654.40707254     A.U. after   15 cycles
 SCF Done:  E(RwB97XD) =  -1654.40849288     A.U. after   15 cycles
 SCF Done:  E(RwB97XD) =  -1654.40955889     A.U. after   14 cycles
 SCF Done:  E(RwB97XD) =  -1654.40936169     A.U. after   14 cycles
 SCF Done:  E(RwB97XD) =  -1654.40983051     A.U. after   13 cycles
 SCF Done:  E(RwB97XD) =  -1654.40983515     A.U. after   13 cycles
 SCF Done:  E(RwB97XD) =  -1654.40985551     A.U. after   13 cycles
 SCF Done:  E(RwB97XD) =  -1654.40986045     A.U. after   12 cycles
 SCF Done:  E(RwB97XD) =  -1654.40986067     A.U. after   10 cycles
 SCF Done:  E(RwB97XD) =  -1654.40986088     A.U. after   10 cycles
 Optimization completed.
    -- Stationary point found.

                         Standard orientation:
 ---------------------------------------------------------------------
 Center     Atomic      Atomic             Coordinates (Angstroms)
 Number     Number       Type             X           Y           Z
 ---------------------------------------------------------------------
      1          6           0       -3.776673   -0.422389   -0.506270
      2          6           0       -2.405474   -0.536112   -0.878517
      3          6           0       -1.559495   -0.038714    0.070537
      4          6           0       -3.950821    0.162836    0.711372
      5         16           0       -2.441095    0.579978    1.424954
      6          1           0       -4.883582    0.361404    1.215057
      7          6           0       -0.094951    0.009719    0.020929
      8         16           0        0.722280    1.454952   -0.542154
      9          6           0        2.265853    0.705144   -0.326808
     10          6           0        2.126290   -0.584552    0.148718
     11          6           0        0.776345   -0.985098    0.350177
     12          1           0        0.452755   -1.948219    0.719801
     13         16           0        3.671929   -1.334389    0.363640
     14          6           0        4.474168    0.102194   -0.191817
     15          6           0        3.619396    1.105087   -0.524536
     16          1           0        5.552812    0.118144   -0.239041
     17          1           0        3.938795    2.071233   -0.888670
     18          1           0       -2.054838   -0.965174   -1.809506
     19          8           0       -4.825110   -0.844757   -1.261480
     20          1           0       -4.502719   -1.196662   -2.091566
 ---------------------------------------------------------------------

 The electronic state is 1-A.
 Alpha  occ. eigenvalues --  -89.05376 -89.05340 -89.05128 -19.28775 -10.35743
 Alpha  occ. eigenvalues --  -10.33975 -10.33811 -10.32748 -10.32661 -10.32653
 Alpha  occ. eigenvalues --  -10.30975 -10.30824 -10.30799 -10.30329  -8.09421
 Alpha  occ. eigenvalues --   -8.09377  -8.09184  -6.04269  -6.04230  -6.04018
 Alpha  occ. eigenvalues --   -6.03896  -6.03857  -6.03636  -6.03483  -6.03428
 Alpha  occ. eigenvalues --   -6.03282  -1.17835  -1.02535  -0.99810  -0.95580
 Alpha  occ. eigenvalues --   -0.87451  -0.86078  -0.84109  -0.81397  -0.80344
 Alpha  occ. eigenvalues --   -0.72279  -0.67806  -0.66896  -0.64273  -0.63382
 Alpha  occ. eigenvalues --   -0.63093  -0.58872  -0.57055  -0.52388  -0.52291
 Alpha  occ. eigenvalues --   -0.51962  -0.50660  -0.50490  -0.48228  -0.47787
 Alpha  occ. eigenvalues --   -0.46019  -0.45412  -0.44279  -0.43792  -0.42471
 Alpha  occ. eigenvalues --   -0.42399  -0.37215  -0.33446  -0.31242  -0.30443
 Alpha  occ. eigenvalues --   -0.29795
 Alpha virt. eigenvalues --    0.02016   0.03406   0.05009   0.05523   0.06070
 Alpha virt. eigenvalues --    0.06884   0.07017   0.07391   0.07522   0.08492
 Alpha virt. eigenvalues --    0.08962   0.09286   0.09799   0.10081   0.10281

 Mulliken charges:
               1
     1  C   -0.632840
     2  C    0.191018
     3  C    0.078625
     4  C    0.286241
     5  S   -0.185750
     6  H    0.187056
     7  C   -0.214412
     8  S   -0.527680
     9  C    0.274441
    10  C   -0.488697
    11  C    0.710880
    12  H    0.167043
    13  S   -0.420560
    14  C   -0.202730
    15  C    0.280727
    16  H    0.194439
    17  H    0.163602
    18  H    0.148616
    19  O   -0.277627
    20  H    0.267607
 Sum of Mulliken charges =  -0.00000

 Dipole moment (field-independent basis, Debye):
    X=              1.1842    Y=             -0.5988    Z=             -1.4300  Tot=              1.9509
 Quadrupole moment (field-independent basis, Debye-Ang):
   XX=            -96.7401   YY=            -99.5708   ZZ=            -98.5092
   XY=              4.1139   XZ=              1.3733   YZ=              1.6233

 Normal termination of Gaussian 16 at Wed Oct 27 00:53:06 2021.
