 Gaussian 16, Revision C.01,
 Gaussian 16:  ES64L-G16RevC.01  3-Jul-2019

 --------------------------------------
 # opt=modredundant wb97xd/6-311+g(d,p)
 --------------------------------------

 ----------------
 pg2T_TT_-120.pdb
 ----------------
 Symbolic Z-matrix:
 Charge =  0 Multiplicity = 1

 SCF Done:  E(RwB97XD) =  -1654.22374481     A.U. after   18 cycles
 SCF Done:  E(RwB97XD) =  -1654.29410225     A.U. after   15 cycles
 SCF Done:  E(RwB97XD) =  -1654.38288381     A.U. after   16 cycles
 SCF Done:  E(RwB97XD) =  -1654.39890334     A.U. after   15 cycles
 SCF Done:  E(RwB97XD) =  -1654.40813635     A.U. after   15 cycles
 SCF Done:  E(RwB97XD) =  -1654.40961705     A.U. after   15 cycles
 SCF Done:  E(RwB97XD) =  -1654.41074905     A.U. after   14 cycles
 SCF Done:  E(RwB97XD) =  -1654.41070165     A.U. after   15 cycles
 SCF Done:  E(RwB97XD) =  -1654.41096174     A.U. after   13 cycles
 SCF Done:  E(RwB97XD) =  -1654.41099891     A.U. after   13 cycles
 SCF Done:  E(RwB97XD) =  -1654.41101136     A.U. after   13 cycles
 SCF Done:  E(RwB97XD) =  -1654.41101665     A.U. after   12 cycles
 SCF Done:  E(RwB97XD) =  -1654.41101695     A.U. after   10 cycles
 Optimization completed.
    -- Stationary point found.

                         Standard orientation:
 ---------------------------------------------------------------------
 Center     Atomic      Atomic             Coordinates (Angstroms)
 Number     Number       Type             X           Y           Z
 ---------------------------------------------------------------------
      1          6           0        3.748969    0.676550    0.296292
      2          6           0        2.364477    0.932976    0.517397
      3          6           0        1.556447    0.005047   -0.076348
      4          6           0        3.971956   -0.444221   -0.444591
      5         16           0        2.491311   -1.196933   -0.899419
      6          1           0        4.923561   -0.855295   -0.741849
      7          6           0        0.096811   -0.035960   -0.046561
      8         16           0       -0.745179   -1.415512    0.632099
      9          6           0       -2.275691   -0.658075    0.354141
     10          6           0       -2.113200    0.591674   -0.211774
     11          6           0       -0.756952    0.950986   -0.443992
     12          1           0       -0.417491    1.872341   -0.896440
     13         16           0       -3.646086    1.345997   -0.492140
     14          6           0       -4.473702   -0.034899    0.159724
     15          6           0       -3.635898   -1.023823    0.568967
     16          1           0       -5.552644   -0.030898    0.201607
     17          1           0       -3.971933   -1.956630    0.999103
     18          1           0        1.978057    1.755706    1.106697
     19          8           0        4.766278    1.442965    0.770575
     20          1           0        4.410181    2.172678    1.278108
 ---------------------------------------------------------------------

 The electronic state is 1-A.
 Alpha  occ. eigenvalues --  -89.05414 -89.05398 -89.05184 -19.28815 -10.35797
 Alpha  occ. eigenvalues --  -10.34088 -10.33926 -10.32775 -10.32708 -10.32652
 Alpha  occ. eigenvalues --  -10.30961 -10.30840 -10.30816 -10.30321  -8.09453
 Alpha  occ. eigenvalues --   -8.09443  -8.09243  -6.04307  -6.04292  -6.04079
 Alpha  occ. eigenvalues --   -6.03935  -6.03918  -6.03697  -6.03506  -6.03500
 Alpha  occ. eigenvalues --   -6.03336  -1.17881  -1.02590  -0.99869  -0.95619
 Alpha  occ. eigenvalues --   -0.87549  -0.86139  -0.84195  -0.81408  -0.80351
 Alpha  occ. eigenvalues --   -0.72372  -0.67963  -0.66886  -0.64179  -0.63592
 Alpha  occ. eigenvalues --   -0.63006  -0.58931  -0.57096  -0.52452  -0.52311
 Alpha  occ. eigenvalues --   -0.51991  -0.50867  -0.50133  -0.48308  -0.47769
 Alpha  occ. eigenvalues --   -0.46049  -0.45572  -0.44651  -0.43723  -0.42593
 Alpha  occ. eigenvalues --   -0.42382  -0.37258  -0.33857  -0.31414  -0.31043
 Alpha  occ. eigenvalues --   -0.28754
 Alpha virt. eigenvalues --    0.01121   0.04322   0.04918   0.05621   0.06102
 Alpha virt. eigenvalues --    0.06915   0.06965   0.07447   0.07560   0.08701
 Alpha virt. eigenvalues --    0.09063   0.09384   0.09766   0.10098   0.10308

 Mulliken charges:
               1
     1  C   -0.711757
     2  C    0.311011
     3  C    0.135398
     4  C    0.299333
     5  S   -0.284466
     6  H    0.187249
     7  C   -0.160072
     8  S   -0.568914
     9  C    0.249757
    10  C   -0.380106
    11  C    0.686687
    12  H    0.164464
    13  S   -0.428641
    14  C   -0.192986
    15  C    0.198603
    16  H    0.194578
    17  H    0.163510
    18  H    0.145869
    19  O   -0.274808
    20  H    0.265291
 Sum of Mulliken charges =  -0.00000

 Dipole moment (field-independent basis, Debye):
    X=             -1.2330    Y=              1.1954    Z=              0.9083  Tot=              1.9428
 Quadrupole moment (field-independent basis, Debye-Ang):
   XX=            -96.8170   YY=            -94.6426   ZZ=           -103.5134
   XY=              5.0040   XZ=             -0.1623   YZ=              2.0210

 Normal termination of Gaussian 16 at Tue Oct 26 22:49:18 2021.
