 Gaussian 16, Revision C.01,
 Gaussian 16:  ES64L-G16RevC.01  3-Jul-2019

 --------------------------------------
 # opt=modredundant wb97xd/6-311+g(d,p)
 --------------------------------------

 --------------
 pg2T_TT_20.pdb
 --------------
 Symbolic Z-matrix:
 Charge =  0 Multiplicity = 1

 SCF Done:  E(RwB97XD) =  -1654.22609827     A.U. after   19 cycles
 SCF Done:  E(RwB97XD) =  -1654.29629445     A.U. after   15 cycles
 SCF Done:  E(RwB97XD) =  -1654.38488697     A.U. after   16 cycles
 SCF Done:  E(RwB97XD) =  -1654.40059594     A.U. after   15 cycles
 SCF Done:  E(RwB97XD) =  -1654.40963577     A.U. after   17 cycles
 SCF Done:  E(RwB97XD) =  -1654.41098975     A.U. after   14 cycles
 SCF Done:  E(RwB97XD) =  -1654.41201325     A.U. after   14 cycles
 SCF Done:  E(RwB97XD) =  -1654.41195149     A.U. after   14 cycles
 SCF Done:  E(RwB97XD) =  -1654.41224685     A.U. after   14 cycles
 SCF Done:  E(RwB97XD) =  -1654.41227480     A.U. after   12 cycles
 SCF Done:  E(RwB97XD) =  -1654.41227397     A.U. after   12 cycles
 SCF Done:  E(RwB97XD) =  -1654.41227964     A.U. after   12 cycles
 SCF Done:  E(RwB97XD) =  -1654.41228083     A.U. after   11 cycles
 Optimization completed.
    -- Stationary point found.

                         Standard orientation:
 ---------------------------------------------------------------------
 Center     Atomic      Atomic             Coordinates (Angstroms)
 Number     Number       Type             X           Y           Z
 ---------------------------------------------------------------------
      1          6           0       -3.811653    0.412625   -0.154491
      2          6           0       -2.467883    0.880379   -0.223871
      3          6           0       -1.550801   -0.111423   -0.006157
      4          6           0       -3.901660   -0.918461    0.115772
      5         16           0       -2.339751   -1.621203    0.308577
      6          1           0       -4.796593   -1.511858    0.212566
      7          6           0       -0.100652   -0.007255    0.011894
      8         16           0        0.657854    1.555061    0.257412
      9          6           0        2.232951    0.852341    0.110344
     10          6           0        2.146610   -0.509635   -0.099998
     11          6           0        0.816348   -1.004686   -0.164289
     12          1           0        0.546189   -2.035119   -0.351332
     13         16           0        3.722007   -1.211725   -0.243846
     14          6           0        4.463618    0.341941   -0.015403
     15          6           0        3.566446    1.348424    0.160769
     16          1           0        5.540611    0.417986   -0.024276
     17          1           0        3.844608    2.380934    0.317535
     18          1           0       -2.196348    1.904272   -0.452717
     19          8           0       -4.911870    1.186660   -0.343952
     20          1           0       -4.645196    2.090883   -0.511885
 ---------------------------------------------------------------------

 The electronic state is 1-A.
 Alpha  occ. eigenvalues --  -89.05564 -89.05456 -89.05252 -19.28836 -10.35871
 Alpha  occ. eigenvalues --  -10.34371 -10.34195 -10.32889 -10.32822 -10.32696
 Alpha  occ. eigenvalues --  -10.30987 -10.30901 -10.30864 -10.30299  -8.09616
 Alpha  occ. eigenvalues --   -8.09500  -8.09319  -6.04476  -6.04349  -6.04164
 Alpha  occ. eigenvalues --   -6.04105  -6.03975  -6.03780  -6.03651  -6.03563
 Alpha  occ. eigenvalues --   -6.03397  -1.17924  -1.02735  -0.99970  -0.95728
 Alpha  occ. eigenvalues --   -0.87636  -0.86422  -0.84350  -0.81440  -0.80396
 Alpha  occ. eigenvalues --   -0.72549  -0.68047  -0.67142  -0.64773  -0.63829
 Alpha  occ. eigenvalues --   -0.62239  -0.58997  -0.57115  -0.52568  -0.52504
 Alpha  occ. eigenvalues --   -0.52110  -0.51107  -0.49991  -0.48097  -0.47864
 Alpha  occ. eigenvalues --   -0.46385  -0.45683  -0.45571  -0.43572  -0.42590
 Alpha  occ. eigenvalues --   -0.42391  -0.37492  -0.34650  -0.31788  -0.31242
 Alpha  occ. eigenvalues --   -0.27615
 Alpha virt. eigenvalues --   -0.00192   0.04831   0.05400   0.05550   0.06045
 Alpha virt. eigenvalues --    0.06728   0.07518   0.07651   0.08140   0.08531
 Alpha virt. eigenvalues --    0.09014   0.09420   0.10010   0.10139   0.10159

 Mulliken charges:
               1
     1  C   -0.776202
     2  C    0.776145
     3  C    0.115876
     4  C    0.339503
     5  S   -0.521952
     6  H    0.186252
     7  C    0.086166
     8  S   -0.608500
     9  C    0.327883
    10  C    0.248526
    11  C    0.091042
    12  H    0.169720
    13  S   -0.460716
    14  C   -0.137423
    15  C   -0.335719
    16  H    0.194786
    17  H    0.162576
    18  H    0.149169
    19  O   -0.271666
    20  H    0.264533
 Sum of Mulliken charges =  -0.00000

 Dipole moment (field-independent basis, Debye):
    X=              1.1483    Y=              1.5293    Z=             -0.3457  Tot=              1.9434
 Quadrupole moment (field-independent basis, Debye-Ang):
   XX=            -96.1836   YY=            -90.7626   ZZ=           -107.6877
   XY=             -0.2913   XZ=              1.0410   YZ=             -0.8839

 Normal termination of Gaussian 16 at Tue Oct 26 23:56:53 2021.
