 Gaussian 16, Revision C.01,
 Gaussian 16:  ES64L-G16RevC.01  3-Jul-2019

 --------------------------------------
 # opt=modredundant wb97xd/6-311+g(d,p)
 --------------------------------------

 ----------------
 pg2T_TT_-135.pdb
 ----------------
 Symbolic Z-matrix:
 Charge =  0 Multiplicity = 1

 SCF Done:  E(RwB97XD) =  -1654.22428014     A.U. after   19 cycles
 SCF Done:  E(RwB97XD) =  -1654.29464235     A.U. after   15 cycles
 SCF Done:  E(RwB97XD) =  -1654.38345380     A.U. after   16 cycles
 SCF Done:  E(RwB97XD) =  -1654.39947509     A.U. after   15 cycles
 SCF Done:  E(RwB97XD) =  -1654.40874039     A.U. after   15 cycles
 SCF Done:  E(RwB97XD) =  -1654.41022356     A.U. after   15 cycles
 SCF Done:  E(RwB97XD) =  -1654.41134951     A.U. after   14 cycles
 SCF Done:  E(RwB97XD) =  -1654.41129446     A.U. after   15 cycles
 SCF Done:  E(RwB97XD) =  -1654.41156355     A.U. after   14 cycles
 SCF Done:  E(RwB97XD) =  -1654.41160032     A.U. after   13 cycles
 SCF Done:  E(RwB97XD) =  -1654.41160727     A.U. after   13 cycles
 SCF Done:  E(RwB97XD) =  -1654.41161307     A.U. after   12 cycles
 SCF Done:  E(RwB97XD) =  -1654.41161341     A.U. after   10 cycles
 Optimization completed.
    -- Stationary point found.

                         Standard orientation:
 ---------------------------------------------------------------------
 Center     Atomic      Atomic             Coordinates (Angstroms)
 Number     Number       Type             X           Y           Z
 ---------------------------------------------------------------------
      1          6           0        3.745410    0.726132    0.218627
      2          6           0        2.360563    1.004882    0.404787
      3          6           0        1.555703   -0.005889   -0.041907
      4          6           0        3.973635   -0.489742   -0.350900
      5         16           0        2.495887   -1.307357   -0.689770
      6          1           0        4.926521   -0.937390   -0.583938
      7          6           0        0.099171   -0.037467   -0.020620
      8         16           0       -0.761375   -1.468397    0.512230
      9          6           0       -2.283314   -0.678366    0.279852
     10          6           0       -2.104732    0.617311   -0.164739
     11          6           0       -0.743771    0.986801   -0.343440
     12          1           0       -0.394739    1.940088   -0.715179
     13         16           0       -3.628899    1.404285   -0.398796
     14          6           0       -4.474423   -0.025887    0.108192
     15          6           0       -3.648283   -1.053695    0.437963
     16          1           0       -5.553856   -0.018739    0.132763
     17          1           0       -3.996046   -2.020005    0.774643
     18          1           0        1.973559    1.900608    0.875326
     19          8           0        4.759346    1.557650    0.575259
     20          1           0        4.400234    2.353268    0.968807
 ---------------------------------------------------------------------

 The electronic state is 1-A.
 Alpha  occ. eigenvalues --  -89.05471 -89.05417 -89.05233 -19.28840 -10.35838
 Alpha  occ. eigenvalues --  -10.34187 -10.34019 -10.32809 -10.32746 -10.32658
 Alpha  occ. eigenvalues --  -10.30964 -10.30843 -10.30835 -10.30299  -8.09513
 Alpha  occ. eigenvalues --   -8.09462  -8.09293  -6.04369  -6.04311  -6.04132
 Alpha  occ. eigenvalues --   -6.03996  -6.03938  -6.03749  -6.03557  -6.03525
 Alpha  occ. eigenvalues --   -6.03383  -1.17913  -1.02642  -0.99913  -0.95655
 Alpha  occ. eigenvalues --   -0.87625  -0.86192  -0.84270  -0.81419  -0.80357
 Alpha  occ. eigenvalues --   -0.72445  -0.68065  -0.66912  -0.64177  -0.63751
 Alpha  occ. eigenvalues --   -0.62880  -0.58987  -0.57114  -0.52484  -0.52365
 Alpha  occ. eigenvalues --   -0.52020  -0.50960  -0.49923  -0.48361  -0.47743
 Alpha  occ. eigenvalues --   -0.46111  -0.45713  -0.44958  -0.43741  -0.42632
 Alpha  occ. eigenvalues --   -0.42332  -0.37342  -0.34150  -0.31666  -0.31079
 Alpha  occ. eigenvalues --   -0.28245
 Alpha virt. eigenvalues --    0.00581   0.04529   0.05051   0.05652   0.06099
 Alpha virt. eigenvalues --    0.06867   0.07002   0.07515   0.07689   0.08834
 Alpha virt. eigenvalues --    0.09104   0.09498   0.09691   0.10225   0.10310

 Mulliken charges:
               1
     1  C   -0.749666
     2  C    0.372725
     3  C    0.171947
     4  C    0.313121
     5  S   -0.344278
     6  H    0.186741
     7  C   -0.161984
     8  S   -0.606370
     9  C    0.314890
    10  C   -0.509834
    11  C    0.857260
    12  H    0.161389
    13  S   -0.434654
    14  C   -0.182879
    15  C    0.116583
    16  H    0.194629
    17  H    0.163558
    18  H    0.144046
    19  O   -0.271591
    20  H    0.264365
 Sum of Mulliken charges =  -0.00000

 Dipole moment (field-independent basis, Debye):
    X=             -1.2473    Y=              1.2826    Z=              0.6907  Tot=              1.9178
 Quadrupole moment (field-independent basis, Debye-Ang):
   XX=            -96.6759   YY=            -92.8670   ZZ=           -105.3936
   XY=              5.3454   XZ=             -0.1114   YZ=              1.7679

 Normal termination of Gaussian 16 at Tue Oct 26 22:22:22 2021.
