 Gaussian 16, Revision C.01,
 Gaussian 16:  ES64L-G16RevC.01  3-Jul-2019

 --------------------------------------
 # opt=modredundant wb97xd/6-311+g(d,p)
 --------------------------------------

 --------------
 pg2T_TT_25.pdb
 --------------
 Symbolic Z-matrix:
 Charge =  0 Multiplicity = 1

 SCF Done:  E(RwB97XD) =  -1654.22595286     A.U. after   19 cycles
 SCF Done:  E(RwB97XD) =  -1654.29621507     A.U. after   15 cycles
 SCF Done:  E(RwB97XD) =  -1654.38491625     A.U. after   16 cycles
 SCF Done:  E(RwB97XD) =  -1654.40070855     A.U. after   15 cycles
 SCF Done:  E(RwB97XD) =  -1654.40978244     A.U. after   17 cycles
 SCF Done:  E(RwB97XD) =  -1654.41118349     A.U. after   15 cycles
 SCF Done:  E(RwB97XD) =  -1654.41216842     A.U. after   14 cycles
 SCF Done:  E(RwB97XD) =  -1654.41208558     A.U. after   14 cycles
 SCF Done:  E(RwB97XD) =  -1654.41241808     A.U. after   13 cycles
 SCF Done:  E(RwB97XD) =  -1654.41243506     A.U. after   12 cycles
 SCF Done:  E(RwB97XD) =  -1654.41243903     A.U. after   12 cycles
 SCF Done:  E(RwB97XD) =  -1654.41244359     A.U. after   12 cycles
 SCF Done:  E(RwB97XD) =  -1654.41244369     A.U. after   10 cycles
 Optimization completed.
    -- Stationary point found.

                         Standard orientation:
 ---------------------------------------------------------------------
 Center     Atomic      Atomic             Coordinates (Angstroms)
 Number     Number       Type             X           Y           Z
 ---------------------------------------------------------------------
      1          6           0       -3.810152    0.408290   -0.187903
      2          6           0       -2.465791    0.871872   -0.273083
      3          6           0       -1.551008   -0.109472   -0.004796
      4          6           0       -3.902172   -0.909193    0.142633
      5         16           0       -2.341712   -1.602400    0.376483
      6          1           0       -4.798216   -1.496719    0.262502
      7          6           0       -0.100458   -0.007216    0.010471
      8         16           0        0.659517    1.544314    0.310785
      9          6           0        2.233571    0.846101    0.134208
     10          6           0        2.145476   -0.507902   -0.122720
     11          6           0        0.814469   -0.999378   -0.201289
     12          1           0        0.541393   -2.021627   -0.425099
     13         16           0        3.719870   -1.205687   -0.296044
     14          6           0        4.463464    0.338672   -0.016822
     15          6           0        3.567818    1.339114    0.196995
     16          1           0        5.540498    0.414126   -0.026346
     17          1           0        3.847399    2.365371    0.388474
     18          1           0       -2.191058    1.882680   -0.550604
     19          8           0       -4.909115    1.172842   -0.418603
     20          1           0       -4.641195    2.068473   -0.625865
 ---------------------------------------------------------------------

 The electronic state is 1-A.
 Alpha  occ. eigenvalues --  -89.05559 -89.05446 -89.05255 -19.28832 -10.35865
 Alpha  occ. eigenvalues --  -10.34340 -10.34166 -10.32875 -10.32810 -10.32688
 Alpha  occ. eigenvalues --  -10.30974 -10.30891 -10.30855 -10.30289  -8.09610
 Alpha  occ. eigenvalues --   -8.09490  -8.09320  -6.04469  -6.04339  -6.04164
 Alpha  occ. eigenvalues --   -6.04098  -6.03965  -6.03780  -6.03646  -6.03553
 Alpha  occ. eigenvalues --   -6.03400  -1.17921  -1.02721  -0.99961  -0.95718
 Alpha  occ. eigenvalues --   -0.87618  -0.86401  -0.84335  -0.81438  -0.80388
 Alpha  occ. eigenvalues --   -0.72532  -0.68022  -0.67126  -0.64745  -0.63803
 Alpha  occ. eigenvalues --   -0.62272  -0.58983  -0.57111  -0.52554  -0.52492
 Alpha  occ. eigenvalues --   -0.52098  -0.51082  -0.50023  -0.48096  -0.47874
 Alpha  occ. eigenvalues --   -0.46363  -0.45589  -0.45520  -0.43589  -0.42592
 Alpha  occ. eigenvalues --   -0.42403  -0.37472  -0.34563  -0.31770  -0.31225
 Alpha  occ. eigenvalues --   -0.27711
 Alpha virt. eigenvalues --   -0.00070   0.04847   0.05365   0.05544   0.06054
 Alpha virt. eigenvalues --    0.06740   0.07519   0.07630   0.08013   0.08538
 Alpha virt. eigenvalues --    0.09036   0.09432   0.09963   0.10099   0.10155

 Mulliken charges:
               1
     1  C   -0.784001
     2  C    0.677854
     3  C    0.161354
     4  C    0.350155
     5  S   -0.493574
     6  H    0.186352
     7  C    0.160007
     8  S   -0.588789
     9  C    0.373870
    10  C    0.188250
    11  C    0.033669
    12  H    0.170648
    13  S   -0.458241
    14  C   -0.137047
    15  C   -0.341416
    16  H    0.194723
    17  H    0.162699
    18  H    0.150371
    19  O   -0.271237
    20  H    0.264354
 Sum of Mulliken charges =  -0.00000

 Dipole moment (field-independent basis, Debye):
    X=              1.1426    Y=              1.5167    Z=             -0.4155  Tot=              1.9438
 Quadrupole moment (field-independent basis, Debye-Ang):
   XX=            -96.2313   YY=            -91.0534   ZZ=           -107.3551
   XY=             -0.2323   XZ=              1.2917   YZ=             -1.0766

 Normal termination of Gaussian 16 at Wed Oct 27 00:03:20 2021.
