 Gaussian 16, Revision C.01,
 Gaussian 16:  ES64L-G16RevC.01  3-Jul-2019

 --------------------------------------
 # opt=modredundant wb97xd/6-311+g(d,p)
 --------------------------------------

 ---------------
 pg2T_TT_-35.pdb
 ---------------
 Symbolic Z-matrix:
 Charge =  0 Multiplicity = 1

 SCF Done:  E(RwB97XD) =  -1654.22671995     A.U. after   19 cycles
 SCF Done:  E(RwB97XD) =  -1654.29688934     A.U. after   15 cycles
 SCF Done:  E(RwB97XD) =  -1654.38537759     A.U. after   16 cycles
 SCF Done:  E(RwB97XD) =  -1654.40102014     A.U. after   15 cycles
 SCF Done:  E(RwB97XD) =  -1654.40994182     A.U. after   16 cycles
 SCF Done:  E(RwB97XD) =  -1654.41137940     A.U. after   15 cycles
 SCF Done:  E(RwB97XD) =  -1654.41242832     A.U. after   14 cycles
 SCF Done:  E(RwB97XD) =  -1654.41246138     A.U. after   13 cycles
 SCF Done:  E(RwB97XD) =  -1654.41252158     A.U. after   13 cycles
 SCF Done:  E(RwB97XD) =  -1654.41257858     A.U. after   13 cycles
 SCF Done:  E(RwB97XD) =  -1654.41257786     A.U. after   12 cycles
 SCF Done:  E(RwB97XD) =  -1654.41258185     A.U. after   11 cycles
 SCF Done:  E(RwB97XD) =  -1654.41258291     A.U. after   11 cycles
 Optimization completed.
    -- Stationary point found.

                         Standard orientation:
 ---------------------------------------------------------------------
 Center     Atomic      Atomic             Coordinates (Angstroms)
 Number     Number       Type             X           Y           Z
 ---------------------------------------------------------------------
      1          6           0       -3.808259    0.395116    0.250579
      2          6           0       -2.463238    0.850568    0.365626
      3          6           0       -1.552094   -0.101489   -0.000640
      4          6           0       -3.902759   -0.887879   -0.196028
      5         16           0       -2.344442   -1.555560   -0.504531
      6          1           0       -4.800353   -1.461834   -0.361779
      7          6           0       -0.100321   -0.002884   -0.004405
      8         16           0        0.665613    1.522009   -0.406111
      9          6           0        2.236415    0.831472   -0.177886
     10          6           0        2.142247   -0.503242    0.164755
     11          6           0        0.808883   -0.984339    0.269503
     12          1           0        0.528401   -1.988890    0.555298
     13         16           0        3.713331   -1.193380    0.391710
     14          6           0        4.463843    0.327581    0.018523
     15          6           0        3.573085    1.315176   -0.263628
     16          1           0        5.541098    0.399948    0.028647
     17          1           0        3.857400    2.326188   -0.518705
     18          1           0       -2.182891    1.830732    0.733026
     19          8           0       -4.905745    1.134392    0.558491
     20          1           0       -4.636520    2.009130    0.840109
 ---------------------------------------------------------------------

 The electronic state is 1-A.
 Alpha  occ. eigenvalues --  -89.05541 -89.05423 -89.05262 -19.28822 -10.35854
 Alpha  occ. eigenvalues --  -10.34275 -10.34102 -10.32845 -10.32781 -10.32670
 Alpha  occ. eigenvalues --  -10.30949 -10.30868 -10.30841 -10.30279  -8.09587
 Alpha  occ. eigenvalues --   -8.09467  -8.09323  -6.04445  -6.04316  -6.04164
 Alpha  occ. eigenvalues --   -6.04074  -6.03942  -6.03781  -6.03627  -6.03530
 Alpha  occ. eigenvalues --   -6.03407  -1.17906  -1.02687  -0.99946  -0.95694
 Alpha  occ. eigenvalues --   -0.87579  -0.86354  -0.84305  -0.81430  -0.80372
 Alpha  occ. eigenvalues --   -0.72492  -0.67970  -0.67090  -0.64685  -0.63747
 Alpha  occ. eigenvalues --   -0.62350  -0.58953  -0.57099  -0.52525  -0.52465
 Alpha  occ. eigenvalues --   -0.52072  -0.51027  -0.50094  -0.48112  -0.47871
 Alpha  occ. eigenvalues --   -0.46301  -0.45542  -0.45286  -0.43616  -0.42589
 Alpha  occ. eigenvalues --   -0.42420  -0.37427  -0.34377  -0.31744  -0.31154
 Alpha  occ. eigenvalues --   -0.27943
 Alpha virt. eigenvalues --    0.00212   0.04868   0.05255   0.05529   0.06067
 Alpha virt. eigenvalues --    0.06765   0.07505   0.07563   0.07777   0.08541
 Alpha virt. eigenvalues --    0.09079   0.09455   0.09846   0.10041   0.10153

 Mulliken charges:
               1
     1  C   -0.778729
     2  C    0.455715
     3  C    0.271678
     4  C    0.346178
     5  S   -0.430548
     6  H    0.186798
     7  C    0.324763
     8  S   -0.543168
     9  C    0.422515
    10  C    0.090107
    11  C   -0.082156
    12  H    0.172895
    13  S   -0.453118
    14  C   -0.140152
    15  C   -0.345974
    16  H    0.194599
    17  H    0.162929
    18  H    0.152410
    19  O   -0.270916
    20  H    0.264175
 Sum of Mulliken charges =  -0.00000

 Dipole moment (field-independent basis, Debye):
    X=              1.1279    Y=              1.4805    Z=              0.5385  Tot=              1.9375
 Quadrupole moment (field-independent basis, Debye-Ang):
   XX=            -96.3174   YY=            -91.7655   ZZ=           -106.5646
   XY=             -0.1269   XZ=             -1.7593   YZ=              1.4297

 Normal termination of Gaussian 16 at Tue Oct 26 23:29:06 2021.
