 Gaussian 16, Revision C.01,
 Gaussian 16:  ES64L-G16RevC.01  3-Jul-2019

 --------------------------------------
 # opt=modredundant wb97xd/6-311+g(d,p)
 --------------------------------------

 ---------------
 pg2T_TT_160.pdb
 ---------------
 Symbolic Z-matrix:
 Charge =  0 Multiplicity = 1

 SCF Done:  E(RwB97XD) =  -1654.22504740     A.U. after   19 cycles
 SCF Done:  E(RwB97XD) =  -1654.29520431     A.U. after   15 cycles
 SCF Done:  E(RwB97XD) =  -1654.38372742     A.U. after   16 cycles
 SCF Done:  E(RwB97XD) =  -1654.39942736     A.U. after   16 cycles
 SCF Done:  E(RwB97XD) =  -1654.40829843     A.U. after   15 cycles
 SCF Done:  E(RwB97XD) =  -1654.40968159     A.U. after   15 cycles
 SCF Done:  E(RwB97XD) =  -1654.41070344     A.U. after   14 cycles
 SCF Done:  E(RwB97XD) =  -1654.41069251     A.U. after   14 cycles
 SCF Done:  E(RwB97XD) =  -1654.41089535     A.U. after   14 cycles
 SCF Done:  E(RwB97XD) =  -1654.41093952     A.U. after   12 cycles
 SCF Done:  E(RwB97XD) =  -1654.41094201     A.U. after   12 cycles
 SCF Done:  E(RwB97XD) =  -1654.41094691     A.U. after   11 cycles
 SCF Done:  E(RwB97XD) =  -1654.41094717     A.U. after    9 cycles
 Optimization completed.
    -- Stationary point found.

                         Standard orientation:
 ---------------------------------------------------------------------
 Center     Atomic      Atomic             Coordinates (Angstroms)
 Number     Number       Type             X           Y           Z
 ---------------------------------------------------------------------
      1          6           0        3.747501    0.768811   -0.091012
      2          6           0        2.364980    1.078850   -0.229458
      3          6           0        1.556297   -0.007083   -0.028145
      4          6           0        3.975191   -0.539242    0.211873
      5         16           0        2.496518   -1.411322    0.350745
      6          1           0        4.926097   -1.026776    0.354670
      7          6           0        0.101340   -0.029933   -0.041129
      8         16           0       -0.776807   -1.528024   -0.284141
      9          6           0       -2.291463   -0.704288   -0.140311
     10          6           0       -2.099735    0.647197    0.070090
     11          6           0       -0.735417    1.036043    0.137549
     12          1           0       -0.384445    2.038889    0.336695
     13         16           0       -3.616732    1.468819    0.215252
     14          6           0       -4.476334   -0.023430   -0.013684
     15          6           0       -3.659549   -1.095776   -0.190127
     16          1           0       -5.555968   -0.016083   -0.004382
     17          1           0       -4.016335   -2.103920   -0.346217
     18          1           0        1.988505    2.058328   -0.498438
     19          8           0        4.761638    1.659138   -0.248730
     20          1           0        4.404511    2.517975   -0.476050
 ---------------------------------------------------------------------

 The electronic state is 1-A.
 Alpha  occ. eigenvalues --  -89.05521 -89.05453 -89.05286 -19.28867 -10.35882
 Alpha  occ. eigenvalues --  -10.34363 -10.34179 -10.32868 -10.32804 -10.32680
 Alpha  occ. eigenvalues --  -10.30999 -10.30875 -10.30852 -10.30275  -8.09572
 Alpha  occ. eigenvalues --   -8.09498  -8.09353  -6.04430  -6.04348  -6.04195
 Alpha  occ. eigenvalues --   -6.04058  -6.03974  -6.03811  -6.03610  -6.03560
 Alpha  occ. eigenvalues --   -6.03436  -1.17949  -1.02718  -0.99975  -0.95706
 Alpha  occ. eigenvalues --   -0.87730  -0.86264  -0.84379  -0.81426  -0.80380
 Alpha  occ. eigenvalues --   -0.72544  -0.68209  -0.66984  -0.64244  -0.63935
 Alpha  occ. eigenvalues --   -0.62707  -0.59090  -0.57137  -0.52514  -0.52485
 Alpha  occ. eigenvalues --   -0.52054  -0.51095  -0.49627  -0.48408  -0.47623
 Alpha  occ. eigenvalues --   -0.46244  -0.46048  -0.45425  -0.43829  -0.42570
 Alpha  occ. eigenvalues --   -0.42187  -0.37541  -0.34540  -0.31995  -0.30998
 Alpha  occ. eigenvalues --   -0.27641
 Alpha virt. eigenvalues --   -0.00156   0.04381   0.05387   0.05649   0.06091
 Alpha virt. eigenvalues --    0.06716   0.07045   0.07503   0.08315   0.08913
 Alpha virt. eigenvalues --    0.09120   0.09625   0.09838   0.10360   0.10479

 Mulliken charges:
               1
     1  C   -0.732163
     2  C    0.637489
     3  C    0.152054
     4  C    0.362407
     5  S   -0.483713
     6  H    0.185181
     7  C    0.148653
     8  S   -0.569223
     9  C    0.383392
    10  C    0.212548
    11  C    0.012228
    12  H    0.154961
    13  S   -0.452358
    14  C   -0.142589
    15  C   -0.362428
    16  H    0.194894
    17  H    0.163390
    18  H    0.140229
    19  O   -0.269409
    20  H    0.264457
 Sum of Mulliken charges =  -0.00000

 Dipole moment (field-independent basis, Debye):
    X=             -1.2718    Y=              1.3692    Z=             -0.3415  Tot=              1.8997
 Quadrupole moment (field-independent basis, Debye-Ang):
   XX=            -96.4562   YY=            -90.8543   ZZ=           -107.5188
   XY=              5.7642   XZ=             -0.3049   YZ=             -1.2804

 Normal termination of Gaussian 16 at Wed Oct 27 01:21:12 2021.
