 Gaussian 16, Revision C.01,
 Gaussian 16:  ES64L-G16RevC.01  3-Jul-2019

 --------------------------------------
 # opt=modredundant wb97xd/6-311+g(d,p)
 --------------------------------------

 ---------------
 pg2T_TT_-75.pdb
 ---------------
 Symbolic Z-matrix:
 Charge =  0 Multiplicity = 1

 SCF Done:  E(RwB97XD) =  -1654.22348751     A.U. after   18 cycles
 SCF Done:  E(RwB97XD) =  -1654.29384075     A.U. after   15 cycles
 SCF Done:  E(RwB97XD) =  -1654.38261621     A.U. after   15 cycles
 SCF Done:  E(RwB97XD) =  -1654.39865275     A.U. after   15 cycles
 SCF Done:  E(RwB97XD) =  -1654.40772708     A.U. after   15 cycles
 SCF Done:  E(RwB97XD) =  -1654.40912903     A.U. after   15 cycles
 SCF Done:  E(RwB97XD) =  -1654.41017711     A.U. after   14 cycles
 SCF Done:  E(RwB97XD) =  -1654.41005488     A.U. after   14 cycles
 SCF Done:  E(RwB97XD) =  -1654.41040415     A.U. after   13 cycles
 SCF Done:  E(RwB97XD) =  -1654.41040722     A.U. after   13 cycles
 SCF Done:  E(RwB97XD) =  -1654.41043683     A.U. after   13 cycles
 SCF Done:  E(RwB97XD) =  -1654.41044008     A.U. after   11 cycles
 SCF Done:  E(RwB97XD) =  -1654.41044012     A.U. after   10 cycles
 Optimization completed.
    -- Stationary point found.

                         Standard orientation:
 ---------------------------------------------------------------------
 Center     Atomic      Atomic             Coordinates (Angstroms)
 Number     Number       Type             X           Y           Z
 ---------------------------------------------------------------------
      1          6           0       -3.806562    0.243227    0.505076
      2          6           0       -2.456492    0.598144    0.792297
      3          6           0       -1.560007   -0.058637   -0.001321
      4          6           0       -3.914717   -0.678861   -0.491892
      5         16           0       -2.367153   -1.122740   -1.100810
      6          1           0       -4.819846   -1.108646   -0.890815
      7          6           0       -0.098279    0.027147    0.028189
      8         16           0        0.706474    1.441735   -0.623418
      9          6           0        2.257666    0.761365   -0.272906
     10          6           0        2.129349   -0.491204    0.296019
     11          6           0        0.782781   -0.917193    0.464402
     12          1           0        0.469311   -1.860823    0.889145
     13         16           0        3.681921   -1.170910    0.649617
     14          6           0        4.471637    0.244509    0.026070
     15          6           0        3.607783    1.190124   -0.428650
     16          1           0        5.550403    0.291187    0.031738
     17          1           0        3.918778    2.134607   -0.852087
     18          1           0       -2.157312    1.302269    1.559306
     19          8           0       -4.895238    0.744769    1.146012
     20          1           0       -4.618266    1.402180    1.784707
 ---------------------------------------------------------------------

 The electronic state is 1-A.
 Alpha  occ. eigenvalues --  -89.05378 -89.05366 -89.05176 -19.28772 -10.35762
 Alpha  occ. eigenvalues --  -10.34011 -10.33846 -10.32749 -10.32673 -10.32643
 Alpha  occ. eigenvalues --  -10.30953 -10.30816 -10.30799 -10.30308  -8.09414
 Alpha  occ. eigenvalues --   -8.09411  -8.09229  -6.04267  -6.04260  -6.04064
 Alpha  occ. eigenvalues --   -6.03895  -6.03886  -6.03682  -6.03474  -6.03465
 Alpha  occ. eigenvalues --   -6.03326  -1.17839  -1.02548  -0.99835  -0.95588
 Alpha  occ. eigenvalues --   -0.87444  -0.86122  -0.84146  -0.81395  -0.80340
 Alpha  occ. eigenvalues --   -0.72303  -0.67779  -0.66951  -0.64417  -0.63498
 Alpha  occ. eigenvalues --   -0.62826  -0.58863  -0.57046  -0.52372  -0.52362
 Alpha  occ. eigenvalues --   -0.51986  -0.50732  -0.50432  -0.48196  -0.47792
 Alpha  occ. eigenvalues --   -0.46064  -0.45403  -0.44455  -0.43698  -0.42494
 Alpha  occ. eigenvalues --   -0.42387  -0.37249  -0.33539  -0.31504  -0.30480
 Alpha  occ. eigenvalues --   -0.29431
 Alpha virt. eigenvalues --    0.01671   0.03787   0.05033   0.05483   0.06053
 Alpha virt. eigenvalues --    0.06905   0.07045   0.07439   0.07514   0.08442
 Alpha virt. eigenvalues --    0.09039   0.09317   0.09757   0.10060   0.10157

 Mulliken charges:
               1
     1  C   -0.555422
     2  C   -0.001226
     3  C    0.118232
     4  C    0.211902
     5  S   -0.142469
     6  H    0.187740
     7  C   -0.011782
     8  S   -0.496452
     9  C    0.307409
    10  C   -0.571459
    11  C    0.693068
    12  H    0.170377
    13  S   -0.421538
    14  C   -0.197466
    15  C    0.208575
    16  H    0.194380
    17  H    0.163428
    18  H    0.152052
    19  O   -0.276065
    20  H    0.266715
 Sum of Mulliken charges =  -0.00000

 Dipole moment (field-independent basis, Debye):
    X=              1.1110    Y=              1.0864    Z=              1.0895  Tot=              1.8978
 Quadrupole moment (field-independent basis, Debye-Ang):
   XX=            -96.4579   YY=            -97.0036   ZZ=           -101.1161
   XY=              0.5396   XZ=             -3.6400   YZ=              2.4269

 Normal termination of Gaussian 16 at Tue Oct 26 23:12:41 2021.
