 Gaussian 16, Revision C.01,
 Gaussian 16:  ES64L-G16RevC.01  3-Jul-2019

 --------------------------------------
 # opt=modredundant wb97xd/6-311+g(d,p)
 --------------------------------------

 ----------------
 pg2T_TT_-115.pdb
 ----------------
 Symbolic Z-matrix:
 Charge =  0 Multiplicity = 1

 SCF Done:  E(RwB97XD) =  -1654.22350949     A.U. after   18 cycles
 SCF Done:  E(RwB97XD) =  -1654.29386499     A.U. after   15 cycles
 SCF Done:  E(RwB97XD) =  -1654.38263056     A.U. after   15 cycles
 SCF Done:  E(RwB97XD) =  -1654.39864223     A.U. after   15 cycles
 SCF Done:  E(RwB97XD) =  -1654.40785647     A.U. after   15 cycles
 SCF Done:  E(RwB97XD) =  -1654.40933099     A.U. after   15 cycles
 SCF Done:  E(RwB97XD) =  -1654.41046468     A.U. after   14 cycles
 SCF Done:  E(RwB97XD) =  -1654.41041546     A.U. after   15 cycles
 SCF Done:  E(RwB97XD) =  -1654.41067663     A.U. after   13 cycles
 SCF Done:  E(RwB97XD) =  -1654.41071635     A.U. after   13 cycles
 SCF Done:  E(RwB97XD) =  -1654.41072729     A.U. after   13 cycles
 SCF Done:  E(RwB97XD) =  -1654.41073320     A.U. after   12 cycles
 SCF Done:  E(RwB97XD) =  -1654.41073350     A.U. after   10 cycles
 Optimization completed.
    -- Stationary point found.

                         Standard orientation:
 ---------------------------------------------------------------------
 Center     Atomic      Atomic             Coordinates (Angstroms)
 Number     Number       Type             X           Y           Z
 ---------------------------------------------------------------------
      1          6           0        3.751613    0.653032    0.323742
      2          6           0        2.368017    0.899634    0.561349
      3          6           0        1.556846    0.010059   -0.084016
      4          6           0        3.970420   -0.423246   -0.481660
      5         16           0        2.487378   -1.145312   -0.975600
      6          1           0        4.920599   -0.817487   -0.805216
      7          6           0        0.096014   -0.033562   -0.050603
      8         16           0       -0.739315   -1.397779    0.666296
      9          6           0       -2.273027   -0.652136    0.375299
     10          6           0       -2.116504    0.582825   -0.223853
     11          6           0       -0.761986    0.940169   -0.469754
     12          1           0       -0.426406    1.852192   -0.943514
     13         16           0       -3.652625    1.325848   -0.516629
     14          6           0       -4.473567   -0.039782    0.174492
     15          6           0       -3.631423   -1.015572    0.605652
     16          1           0       -5.552338   -0.037546    0.220892
     17          1           0       -3.963088   -1.937753    1.061331
     18          1           0        1.984064    1.689581    1.195436
     19          8           0        4.771677    1.388833    0.839015
     20          1           0        4.418332    2.087722    1.389998
 ---------------------------------------------------------------------

 The electronic state is 1-A.
 Alpha  occ. eigenvalues --  -89.05394 -89.05393 -89.05169 -19.28806 -10.35784
 Alpha  occ. eigenvalues --  -10.34057 -10.33896 -10.32766 -10.32696 -10.32652
 Alpha  occ. eigenvalues --  -10.30963 -10.30837 -10.30811 -10.30325  -8.09438
 Alpha  occ. eigenvalues --   -8.09432  -8.09227  -6.04287  -6.04286  -6.04062
 Alpha  occ. eigenvalues --   -6.03914  -6.03913  -6.03680  -6.03500  -6.03480
 Alpha  occ. eigenvalues --   -6.03321  -1.17870  -1.02575  -0.99854  -0.95609
 Alpha  occ. eigenvalues --   -0.87524  -0.86122  -0.84172  -0.81405  -0.80349
 Alpha  occ. eigenvalues --   -0.72348  -0.67929  -0.66882  -0.64187  -0.63535
 Alpha  occ. eigenvalues --   -0.63046  -0.58915  -0.57088  -0.52441  -0.52297
 Alpha  occ. eigenvalues --   -0.51982  -0.50833  -0.50205  -0.48290  -0.47774
 Alpha  occ. eigenvalues --   -0.46034  -0.45533  -0.44555  -0.43730  -0.42569
 Alpha  occ. eigenvalues --   -0.42392  -0.37239  -0.33759  -0.31327  -0.31003
 Alpha  occ. eigenvalues --   -0.28947
 Alpha virt. eigenvalues --    0.01311   0.04152   0.04930   0.05604   0.06100
 Alpha virt. eigenvalues --    0.06911   0.06966   0.07421   0.07554   0.08656
 Alpha virt. eigenvalues --    0.09032   0.09354   0.09805   0.10059   0.10313

 Mulliken charges:
               1
     1  C   -0.695769
     2  C    0.300253
     3  C    0.107817
     4  C    0.301274
     5  S   -0.264576
     6  H    0.187292
     7  C   -0.184968
     8  S   -0.559059
     9  C    0.245583
    10  C   -0.374894
    11  C    0.675413
    12  H    0.165085
    13  S   -0.426512
    14  C   -0.195845
    15  C    0.224188
    16  H    0.194560
    17  H    0.163515
    18  H    0.146753
    19  O   -0.275819
    20  H    0.265709
 Sum of Mulliken charges =  -0.00000

 Dipole moment (field-independent basis, Debye):
    X=             -1.2273    Y=              1.1524    Z=              0.9854  Tot=              1.9507
 Quadrupole moment (field-independent basis, Debye-Ang):
   XX=            -96.8425   YY=            -95.3609   ZZ=           -102.7630
   XY=              4.8840   XZ=             -0.1133   YZ=              2.0923

 Normal termination of Gaussian 16 at Tue Oct 26 22:36:07 2021.
