 Gaussian 16, Revision C.01,
 Gaussian 16:  ES64L-G16RevC.01  3-Jul-2019

 --------------------------------------
 # opt=modredundant wb97xd/6-311+g(d,p)
 --------------------------------------

 -----------
 NDI_-30.pdb
 -----------
 Symbolic Z-matrix:
 Charge =  0 Multiplicity = 1

 SCF Done:  E(RwB97XD) =  -2201.52809396     A.U. after   19 cycles
 SCF Done:  E(RwB97XD) =  -2201.55704566     A.U. after   17 cycles
 SCF Done:  E(RwB97XD) =  -2201.55630967     A.U. after   17 cycles
 SCF Done:  E(RwB97XD) =  -2201.56662152     A.U. after   16 cycles
 SCF Done:  E(RwB97XD) =  -2201.56820883     A.U. after   14 cycles
 SCF Done:  E(RwB97XD) =  -2201.56838692     A.U. after   14 cycles
 SCF Done:  E(RwB97XD) =  -2201.56852715     A.U. after   15 cycles
 SCF Done:  E(RwB97XD) =  -2201.56861851     A.U. after   13 cycles
 SCF Done:  E(RwB97XD) =  -2201.56866898     A.U. after   16 cycles
 SCF Done:  E(RwB97XD) =  -2201.56872263     A.U. after   14 cycles
 SCF Done:  E(RwB97XD) =  -2201.56874922     A.U. after   13 cycles
 SCF Done:  E(RwB97XD) =  -2201.56874965     A.U. after   11 cycles
 SCF Done:  E(RwB97XD) =  -2201.56874993     A.U. after   10 cycles
 SCF Done:  E(RwB97XD) =  -2201.56875019     A.U. after   10 cycles
 SCF Done:  E(RwB97XD) =  -2201.56875036     A.U. after   11 cycles
 SCF Done:  E(RwB97XD) =  -2201.56875044     A.U. after   10 cycles
 SCF Done:  E(RwB97XD) =  -2201.56875050     A.U. after   10 cycles
 SCF Done:  E(RwB97XD) =  -2201.56875054     A.U. after   10 cycles
 SCF Done:  E(RwB97XD) =  -2201.56875058     A.U. after   10 cycles
 SCF Done:  E(RwB97XD) =  -2201.56875059     A.U. after   10 cycles
 Optimization completed.
    -- Stationary point found.

                         Standard orientation:
 ---------------------------------------------------------------------
 Center     Atomic      Atomic             Coordinates (Angstroms)
 Number     Number       Type             X           Y           Z
 ---------------------------------------------------------------------
      1          6           0        2.540981   -3.048765    0.232435
      2          6           0        2.208908   -1.601991    0.114784
      3          6           0        3.239946   -0.635420    0.049625
      4          6           0        4.599378   -1.015810    0.103477
      5          6           0        4.964918   -2.453271    0.225611
      6          6           0        0.902410   -1.217780    0.114534
      7          6           0        2.882377    0.725780   -0.077367
      8          6           0        1.504814    1.112385   -0.124077
      9          6           0        0.502288    0.146035    0.019655
     10          6           0        1.212529    2.536976   -0.465593
     11          6           0        3.641811    3.114014   -0.295118
     12          6           0        3.938818    1.671043   -0.140454
     13          6           0        5.257249    1.280974   -0.073811
     14          6           0        5.596599   -0.071268    0.047341
     15          1           0        6.630509   -0.390051    0.095058
     16          1           0        6.022478    2.046375   -0.121293
     17          1           0        0.150931   -1.990824    0.224529
     18          7           0        2.299904    3.405837   -0.435109
     19          7           0        3.896681   -3.338852    0.272881
     20          8           0        1.714360   -3.926799    0.290354
     21          8           0        6.102996   -2.853623    0.279902
     22          8           0        4.480408    3.984681   -0.322153
     23          8           0        0.134171    2.981189   -0.783127
     24          6           0       -0.930073    0.397203    0.193199
     25          6           0       -1.574071    1.451021    0.781058
     26         16           0       -2.077685   -0.778733   -0.379120
     27          6           0       -2.975000    1.311935    0.776107
     28          1           0       -1.069300    2.300333    1.217605
     29          6           0       -3.428020    0.157847    0.173533
     30          8           0       -3.845124    2.204008    1.320756
     31          6           0       -4.799385   -0.260591   -0.017459
     32          6           0       -5.246523   -1.426101   -0.594669
     33         16           0       -6.163737    0.710919    0.474398
     34          6           0       -6.660783   -1.543000   -0.644518
     35          8           0       -4.372768   -2.352632   -1.065211
     36          6           0       -7.276628   -0.458512   -0.100976
     37          1           0       -7.183865   -2.392959   -1.064724
     38          1           0       -8.337452   -0.283244   -0.005236
     39          1           0       -4.846410   -3.114049   -1.401364
     40          1           0       -3.421983    3.058641    1.412598
     41          1           0        4.138167   -4.318498    0.354643
     42          1           0        2.075986    4.369577   -0.648738
 ---------------------------------------------------------------------

 The electronic state is 1-A.
 Alpha  occ. eigenvalues --  -89.05622 -89.05230 -19.29871 -19.29503 -19.25703
 Alpha  occ. eigenvalues --  -19.25675 -19.25278 -19.25236 -14.50442 -14.50059
 Alpha  occ. eigenvalues --  -10.43584 -10.43568 -10.43536 -10.43028 -10.36331
 Alpha  occ. eigenvalues --  -10.36217 -10.36136 -10.35331 -10.34924 -10.34825
 Alpha  occ. eigenvalues --  -10.34457 -10.34434 -10.34227 -10.33917 -10.33816
 Alpha  occ. eigenvalues --  -10.33504 -10.33338 -10.33257 -10.33085 -10.32590
 Alpha  occ. eigenvalues --  -10.30731 -10.30406  -8.09657  -8.09251  -6.04510
 Alpha  occ. eigenvalues --   -6.04111  -6.04101  -6.03721  -6.03700  -6.03330
 Alpha  occ. eigenvalues --   -1.20045  -1.19839  -1.18968  -1.18603  -1.18241
 Alpha  occ. eigenvalues --   -1.17921  -1.06938  -1.06442  -1.03388  -1.01250
 Alpha  occ. eigenvalues --   -0.99621  -0.97802  -0.94518  -0.91056  -0.89440
 Alpha  occ. eigenvalues --   -0.87844  -0.84873  -0.84032  -0.82778  -0.81414
 Alpha  occ. eigenvalues --   -0.81191  -0.77864  -0.76727  -0.75201  -0.72595
 Alpha  occ. eigenvalues --   -0.71275  -0.70915  -0.69964  -0.68286  -0.66639
 Alpha  occ. eigenvalues --   -0.65825  -0.64515  -0.63694  -0.61552  -0.60948
 Alpha  occ. eigenvalues --   -0.59912  -0.59678  -0.59517  -0.58732  -0.57812
 Alpha  occ. eigenvalues --   -0.57613  -0.56624  -0.56356  -0.55164  -0.54840
 Alpha  occ. eigenvalues --   -0.54751  -0.53992  -0.53566  -0.53199  -0.52367
 Alpha  occ. eigenvalues --   -0.52204  -0.51796  -0.51619  -0.51322  -0.51281
 Alpha  occ. eigenvalues --   -0.48969  -0.48144  -0.47847  -0.47221  -0.46436
 Alpha  occ. eigenvalues --   -0.45935  -0.45018  -0.44154  -0.43270  -0.42256
 Alpha  occ. eigenvalues --   -0.41122  -0.40524  -0.39575  -0.39335  -0.38928
 Alpha  occ. eigenvalues --   -0.38486  -0.37791  -0.37127  -0.35298  -0.33882
 Alpha  occ. eigenvalues --   -0.32575  -0.32326  -0.26696
 Alpha virt. eigenvalues --   -0.07915  -0.01529  -0.00318   0.01803   0.03029
 Alpha virt. eigenvalues --    0.04440   0.05145   0.05525   0.06134   0.06536
 Alpha virt. eigenvalues --    0.06636   0.07159   0.07552   0.07818   0.07989

 Mulliken charges:
               1
     1  C    0.427909
     2  C   -0.195078
     3  C    0.252783
     4  C    0.183471
     5  C    0.260626
     6  C   -0.187765
     7  C    0.182466
     8  C    0.166745
     9  C    0.210635
    10  C   -0.076142
    11  C    0.332933
    12  C    0.073844
    13  C   -0.458241
    14  C   -0.592101
    15  H    0.190777
    16  H    0.192010
    17  H    0.201571
    18  N   -0.393010
    19  N   -0.450369
    20  O   -0.266780
    21  O   -0.261414
    22  O   -0.274172
    23  O   -0.224199
    24  C    0.145574
    25  C   -0.265792
    26  S   -0.682949
    27  C   -0.671737
    28  H    0.147979
    29  C    0.420308
    30  O   -0.249631
    31  C    0.812464
    32  C    0.540068
    33  S   -0.312293
    34  C   -0.361178
    35  O   -0.249118
    36  C   -0.261953
    37  H    0.144383
    38  H    0.190633
    39  H    0.285334
    40  H    0.287633
    41  H    0.397432
    42  H    0.386344
 Sum of Mulliken charges =  -0.00000

 Dipole moment (field-independent basis, Debye):
    X=             -3.1908    Y=             -0.2636    Z=              0.0508  Tot=              3.2021
 Quadrupole moment (field-independent basis, Debye-Ang):
   XX=           -184.6835   YY=           -196.0120   ZZ=           -195.2939
   XY=              8.5606   XZ=              4.7101   YZ=             11.0198

 Normal termination of Gaussian 16 at Tue Nov 17 14:39:11 2020.
