 Gaussian 16, Revision C.01,
 Gaussian 16:  ES64L-G16RevC.01  3-Jul-2019

 --------------------------------------
 # opt=modredundant wb97xd/6-311+g(d,p)
 --------------------------------------

 -----------
 NDI_140.pdb
 -----------
 Symbolic Z-matrix:
 Charge =  0 Multiplicity = 1

 SCF Done:  E(RwB97XD) =  -2201.51544098     A.U. after   19 cycles
 SCF Done:  E(RwB97XD) =  -2201.54390895     A.U. after   19 cycles
 SCF Done:  E(RwB97XD) =  -2201.55539478     A.U. after   16 cycles
 SCF Done:  E(RwB97XD) =  -2201.56581172     A.U. after   17 cycles
 SCF Done:  E(RwB97XD) =  -2201.56774027     A.U. after   16 cycles
 SCF Done:  E(RwB97XD) =  -2201.56786877     A.U. after   15 cycles
 SCF Done:  E(RwB97XD) =  -2201.56821849     A.U. after   14 cycles
 SCF Done:  E(RwB97XD) =  -2201.56831261     A.U. after   16 cycles
 SCF Done:  E(RwB97XD) =  -2201.56836725     A.U. after   14 cycles
 SCF Done:  E(RwB97XD) =  -2201.56838400     A.U. after   13 cycles
 SCF Done:  E(RwB97XD) =  -2201.56842908     A.U. after   13 cycles
 SCF Done:  E(RwB97XD) =  -2201.56843049     A.U. after   11 cycles
 SCF Done:  E(RwB97XD) =  -2201.56844085     A.U. after   14 cycles
 SCF Done:  E(RwB97XD) =  -2201.56843143     A.U. after   15 cycles
 SCF Done:  E(RwB97XD) =  -2201.56844813     A.U. after   15 cycles
 SCF Done:  E(RwB97XD) =  -2201.56843487     A.U. after   14 cycles
 SCF Done:  E(RwB97XD) =  -2201.56843467     A.U. after   13 cycles
 SCF Done:  E(RwB97XD) =  -2201.56844735     A.U. after   13 cycles
 SCF Done:  E(RwB97XD) =  -2201.56844717     A.U. after    9 cycles
 SCF Done:  E(RwB97XD) =  -2201.56844699     A.U. after    9 cycles
 Optimization completed.
    -- Stationary point found.

                         Standard orientation:
 ---------------------------------------------------------------------
 Center     Atomic      Atomic             Coordinates (Angstroms)
 Number     Number       Type             X           Y           Z
 ---------------------------------------------------------------------
      1          6           0        3.278841   -2.911370    0.255046
      2          6           0        2.600476   -1.608311    0.017008
      3          6           0        3.335026   -0.401327    0.091300
      4          6           0        4.712040   -0.397949    0.411553
      5          6           0        5.416100   -1.683813    0.665890
      6          6           0        1.257642   -1.585692   -0.232640
      7          6           0        2.667351    0.816582   -0.163783
      8          6           0        1.278601    0.815808   -0.483203
      9          6           0        0.556998   -0.373440   -0.464888
     10          6           0        0.678661    2.095915   -0.965640
     11          6           0        2.761644    3.324985   -0.336696
     12          6           0        3.415623    2.017555   -0.073291
     13          6           0        4.751453    1.998551    0.253337
     14          6           0        5.408941    0.783731    0.494528
     15          1           0        6.462024    0.757913    0.746665
     16          1           0        5.281552    2.941126    0.318485
     17          1           0        0.710173   -2.520629   -0.220043
     18          7           0        1.441594    3.239197   -0.738080
     19          7           0        4.630293   -2.824279    0.557269
     20          8           0        2.722046   -3.981303    0.195260
     21          8           0        6.588210   -1.764415    0.944765
     22          8           0        3.320482    4.392048   -0.237040
     23          8           0       -0.372966    2.188252   -1.548058
     24          6           0       -0.903581   -0.486001   -0.577035
     25          6           0       -1.585726   -1.436226   -1.285982
     26         16           0       -1.968001    0.426987    0.430451
     27          6           0       -2.980226   -1.387049   -1.059555
     28          1           0       -1.110218   -2.131964   -1.967504
     29          6           0       -3.365320   -0.435919   -0.143117
     30          8           0       -3.894887   -2.198268   -1.655523
     31          6           0       -4.706264   -0.139432    0.316475
     32          6           0       -5.083963    0.793953    1.251802
     33         16           0       -6.119926   -0.959986   -0.294983
     34          6           0       -6.485160    0.857836    1.475558
     35          8           0       -4.160368    1.562711    1.887637
     36          6           0       -7.161813   -0.034671    0.703661
     37          1           0       -6.955740    1.533714    2.178778
     38          1           0       -8.227501   -0.203050    0.670936
     39          1           0       -4.597134    2.215655    2.435587
     40          1           0       -3.479788   -2.707014   -2.352528
     41          1           0        5.103712   -3.703479    0.723693
     42          1           0        1.012328    4.106789   -1.034169
 ---------------------------------------------------------------------

 The electronic state is 1-A.
 Alpha  occ. eigenvalues --  -89.05194 -89.04899 -19.29516 -19.29464 -19.25874
 Alpha  occ. eigenvalues --  -19.25825 -19.25363 -19.25348 -14.50591 -14.50065
 Alpha  occ. eigenvalues --  -10.43749 -10.43693 -10.43435 -10.43210 -10.35980
 Alpha  occ. eigenvalues --  -10.35931 -10.35887 -10.35369 -10.35085 -10.34983
 Alpha  occ. eigenvalues --  -10.34654 -10.34620 -10.34488 -10.33804 -10.33759
 Alpha  occ. eigenvalues --  -10.33600 -10.33539 -10.33334 -10.32753 -10.32223
 Alpha  occ. eigenvalues --  -10.30737 -10.30092  -8.09220  -8.08923  -6.04081
 Alpha  occ. eigenvalues --   -6.03772  -6.03678  -6.03372  -6.03271  -6.03002
 Alpha  occ. eigenvalues --   -1.20188  -1.19834  -1.18590  -1.18498  -1.18393
 Alpha  occ. eigenvalues --   -1.17994  -1.07077  -1.06512  -1.03581  -1.01040
 Alpha  occ. eigenvalues --   -0.99401  -0.97865  -0.94703  -0.91105  -0.89592
 Alpha  occ. eigenvalues --   -0.87606  -0.84523  -0.83638  -0.82986  -0.81548
 Alpha  occ. eigenvalues --   -0.81013  -0.77941  -0.76856  -0.75183  -0.72721
 Alpha  occ. eigenvalues --   -0.71215  -0.70622  -0.69819  -0.68403  -0.66531
 Alpha  occ. eigenvalues --   -0.65614  -0.64583  -0.63488  -0.61702  -0.60844
 Alpha  occ. eigenvalues --   -0.60022  -0.59795  -0.59476  -0.58783  -0.57884
 Alpha  occ. eigenvalues --   -0.57389  -0.56673  -0.56445  -0.55187  -0.55062
 Alpha  occ. eigenvalues --   -0.54807  -0.54106  -0.53586  -0.53076  -0.52274
 Alpha  occ. eigenvalues --   -0.51961  -0.51908  -0.51632  -0.51430  -0.51257
 Alpha  occ. eigenvalues --   -0.49219  -0.47858  -0.47487  -0.46776  -0.46411
 Alpha  occ. eigenvalues --   -0.45934  -0.44752  -0.44070  -0.43275  -0.42149
 Alpha  occ. eigenvalues --   -0.41196  -0.40594  -0.39597  -0.39473  -0.38888
 Alpha  occ. eigenvalues --   -0.38238  -0.37768  -0.37061  -0.35581  -0.33965
 Alpha  occ. eigenvalues --   -0.32370  -0.32021  -0.26524
 Alpha virt. eigenvalues --   -0.07891  -0.01151  -0.00294   0.01683   0.02892
 Alpha virt. eigenvalues --    0.04471   0.05188   0.05291   0.06193   0.06313
 Alpha virt. eigenvalues --    0.06498   0.07091   0.07571   0.07700   0.07882

 Mulliken charges:
               1
     1  C    0.466255
     2  C   -0.141835
     3  C    0.174707
     4  C    0.206281
     5  C    0.290939
     6  C   -0.279938
     7  C    0.097790
     8  C   -0.152731
     9  C    0.184819
    10  C    0.113467
    11  C    0.274162
    12  C    0.096589
    13  C   -0.420534
    14  C   -0.621111
    15  H    0.191742
    16  H    0.191773
    17  H    0.192521
    18  N   -0.378688
    19  N   -0.452119
    20  O   -0.264975
    21  O   -0.263060
    22  O   -0.273061
    23  O   -0.205826
    24  C    0.423289
    25  C   -0.377720
    26  S   -0.636989
    27  C   -0.374738
    28  H    0.147687
    29  C    0.400268
    30  O   -0.237231
    31  C    0.732587
    32  C    0.355742
    33  S   -0.291511
    34  C   -0.298506
    35  O   -0.263473
    36  C   -0.288489
    37  H    0.142547
    38  H    0.189153
    39  H    0.283045
    40  H    0.282005
    41  H    0.396839
    42  H    0.388326
 Sum of Mulliken charges =  -0.00000

 Dipole moment (field-independent basis, Debye):
    X=             -2.3144    Y=              0.1971    Z=              0.3103  Tot=              2.3434
 Quadrupole moment (field-independent basis, Debye-Ang):
   XX=           -187.3654   YY=           -203.2911   ZZ=           -187.2913
   XY=             -6.0603   XZ=            -11.2385   YZ=             14.6358

 Normal termination of Gaussian 16 at Wed Nov 18 00:31:19 2020.
