 Gaussian 16, Revision C.01,
 Gaussian 16:  ES64L-G16RevC.01  3-Jul-2019

 --------------------------------------
 # opt=modredundant wb97xd/6-311+g(d,p)
 --------------------------------------

 ----------
 NDI_10.pdb
 ----------
 Symbolic Z-matrix:
 Charge =  0 Multiplicity = 1

 SCF Done:  E(RwB97XD) =  -2201.51018689     A.U. after   19 cycles
 SCF Done:  E(RwB97XD) =  -2201.52338637     A.U. after   20 cycles
 SCF Done:  E(RwB97XD) =  -2201.55197222     A.U. after   18 cycles
 SCF Done:  E(RwB97XD) =  -2201.55937548     A.U. after   16 cycles
 SCF Done:  E(RwB97XD) =  -2201.56354850     A.U. after   15 cycles
 SCF Done:  E(RwB97XD) =  -2201.56417180     A.U. after   14 cycles
 SCF Done:  E(RwB97XD) =  -2201.56422649     A.U. after   14 cycles
 SCF Done:  E(RwB97XD) =  -2201.56433697     A.U. after   13 cycles
 SCF Done:  E(RwB97XD) =  -2201.56444826     A.U. after   14 cycles
 SCF Done:  E(RwB97XD) =  -2201.56449330     A.U. after   14 cycles
 SCF Done:  E(RwB97XD) =  -2201.56583482     A.U. after   13 cycles
 SCF Done:  E(RwB97XD) =  -2201.56583587     A.U. after   11 cycles
 SCF Done:  E(RwB97XD) =  -2201.56583691     A.U. after   13 cycles
 SCF Done:  E(RwB97XD) =  -2201.56583791     A.U. after   11 cycles
 SCF Done:  E(RwB97XD) =  -2201.56583848     A.U. after   11 cycles
 SCF Done:  E(RwB97XD) =  -2201.56583878     A.U. after   11 cycles
 SCF Done:  E(RwB97XD) =  -2201.56583919     A.U. after   11 cycles
 SCF Done:  E(RwB97XD) =  -2201.56583956     A.U. after   11 cycles
 SCF Done:  E(RwB97XD) =  -2201.56583977     A.U. after   11 cycles
 SCF Done:  E(RwB97XD) =  -2201.56583980     A.U. after   10 cycles
 Optimization completed.
    -- Stationary point found.

                         Standard orientation:
 ---------------------------------------------------------------------
 Center     Atomic      Atomic             Coordinates (Angstroms)
 Number     Number       Type             X           Y           Z
 ---------------------------------------------------------------------
      1          6           0        2.396429   -3.059204   -0.019048
      2          6           0        2.135732   -1.593998    0.029054
      3          6           0        3.209010   -0.674660   -0.024253
      4          6           0        4.543293   -1.119340   -0.143497
      5          6           0        4.838423   -2.576767   -0.200859
      6          6           0        0.850857   -1.151862    0.074236
      7          6           0        2.912117    0.704054    0.049380
      8          6           0        1.555421    1.154904    0.163939
      9          6           0        0.497001    0.231099    0.117187
     10          6           0        1.368256    2.599525    0.479717
     11          6           0        3.787109    3.062973    0.058893
     12          6           0        4.009405    1.601832   -0.020920
     13          6           0        5.303563    1.149931   -0.155346
     14          6           0        5.580764   -0.219445   -0.212914
     15          1           0        6.595109   -0.585946   -0.310257
     16          1           0        6.098886    1.883352   -0.212115
     17          1           0        0.078173   -1.910804    0.052352
     18          7           0        2.474484    3.421259    0.289469
     19          7           0        3.732691   -3.413664   -0.126614
     20          8           0        1.530719   -3.899676    0.028908
     21          8           0        5.952280   -3.032303   -0.302134
     22          8           0        4.658669    3.895569   -0.038075
     23          8           0        0.355099    3.102845    0.910417
     24          6           0       -0.932887    0.510222   -0.048039
     25          6           0       -1.605806    1.661685   -0.373665
     26         16           0       -2.077359   -0.780186    0.237256
     27          6           0       -3.001100    1.500859   -0.419898
     28          1           0       -1.127633    2.603679   -0.586067
     29          6           0       -3.438172    0.232078   -0.103354
     30          8           0       -3.883100    2.481168   -0.748258
     31          6           0       -4.801478   -0.243958   -0.040418
     32          6           0       -5.231305   -1.515066    0.264534
     33         16           0       -6.178839    0.781939   -0.353370
     34          6           0       -6.642652   -1.668270    0.249118
     35          8           0       -4.344941   -2.501526    0.550347
     36          6           0       -7.273240   -0.505451   -0.069603
     37          1           0       -7.153492   -2.598239    0.465238
     38          1           0       -8.335882   -0.335309   -0.154127
     39          1           0       -4.805736   -3.323817    0.719875
     40          1           0       -3.451291    3.335752   -0.711794
     41          1           0        3.926872   -4.406486   -0.162654
     42          1           0        2.309713    4.401151    0.482307
 ---------------------------------------------------------------------

 The electronic state is 1-A.
 Alpha  occ. eigenvalues --  -89.05720 -89.05441 -19.30066 -19.29677 -19.25644
 Alpha  occ. eigenvalues --  -19.25600 -19.25329 -19.25124 -14.50375 -14.50005
 Alpha  occ. eigenvalues --  -10.43580 -10.43502 -10.43455 -10.42900 -10.36596
 Alpha  occ. eigenvalues --  -10.36483 -10.36292 -10.35244 -10.34836 -10.34629
 Alpha  occ. eigenvalues --  -10.34313 -10.34305 -10.34227 -10.34158 -10.34075
 Alpha  occ. eigenvalues --  -10.33462 -10.33292 -10.33181 -10.33085 -10.32822
 Alpha  occ. eigenvalues --  -10.30755 -10.30597  -8.09766  -8.09462  -6.04620
 Alpha  occ. eigenvalues --   -6.04311  -6.04215  -6.03911  -6.03829  -6.03542
 Alpha  occ. eigenvalues --   -1.19975  -1.19839  -1.19192  -1.18811  -1.18170
 Alpha  occ. eigenvalues --   -1.17870  -1.06869  -1.06406  -1.03284  -1.01376
 Alpha  occ. eigenvalues --   -0.99757  -0.97756  -0.94404  -0.91064  -0.89354
 Alpha  occ. eigenvalues --   -0.87987  -0.85012  -0.84210  -0.82859  -0.81338
 Alpha  occ. eigenvalues --   -0.81187  -0.77826  -0.76722  -0.75171  -0.72491
 Alpha  occ. eigenvalues --   -0.71417  -0.71051  -0.70079  -0.68309  -0.66724
 Alpha  occ. eigenvalues --   -0.65866  -0.64611  -0.63815  -0.61498  -0.60921
 Alpha  occ. eigenvalues --   -0.60005  -0.59624  -0.59478  -0.58720  -0.57879
 Alpha  occ. eigenvalues --   -0.57637  -0.56769  -0.56143  -0.55133  -0.54800
 Alpha  occ. eigenvalues --   -0.54583  -0.54031  -0.53869  -0.53221  -0.52484
 Alpha  occ. eigenvalues --   -0.52231  -0.51793  -0.51762  -0.51248  -0.51098
 Alpha  occ. eigenvalues --   -0.48904  -0.48143  -0.47720  -0.47301  -0.46653
 Alpha  occ. eigenvalues --   -0.46449  -0.45226  -0.44068  -0.43236  -0.42316
 Alpha  occ. eigenvalues --   -0.41049  -0.40473  -0.39564  -0.39280  -0.38809
 Alpha  occ. eigenvalues --   -0.38572  -0.37808  -0.37130  -0.35263  -0.33875
 Alpha  occ. eigenvalues --   -0.32708  -0.32466  -0.26765
 Alpha virt. eigenvalues --   -0.07868  -0.01908  -0.00273   0.01910   0.03172
 Alpha virt. eigenvalues --    0.04387   0.05164   0.05590   0.06012   0.06487
 Alpha virt. eigenvalues --    0.06712   0.07219   0.07539   0.07958   0.08143

 Mulliken charges:
               1
     1  C    0.400815
     2  C   -0.162515
     3  C    0.151932
     4  C    0.222508
     5  C    0.259397
     6  C   -0.165689
     7  C    0.148370
     8  C    0.179871
     9  C    0.124084
    10  C   -0.226924
    11  C    0.366910
    12  C    0.103118
    13  C   -0.455349
    14  C   -0.508073
    15  H    0.189968
    16  H    0.191940
    17  H    0.192539
    18  N   -0.356298
    19  N   -0.448130
    20  O   -0.271171
    21  O   -0.260138
    22  O   -0.273924
    23  O   -0.254929
    24  C    0.076083
    25  C    0.077773
    26  S   -0.740598
    27  C   -0.656091
    28  H    0.151076
    29  C    0.251774
    30  O   -0.240094
    31  C    0.831889
    32  C    0.599721
    33  S   -0.299960
    34  C   -0.381120
    35  O   -0.242884
    36  C   -0.267164
    37  H    0.145180
    38  H    0.191704
    39  H    0.286618
    40  H    0.290463
    41  H    0.397251
    42  H    0.380067
 Sum of Mulliken charges =  -0.00000

 Dipole moment (field-independent basis, Debye):
    X=             -3.7432    Y=             -0.4461    Z=             -0.2261  Tot=              3.7765
 Quadrupole moment (field-independent basis, Debye-Ang):
   XX=           -183.6021   YY=           -193.2251   ZZ=           -198.4644
   XY=              9.2349   XZ=             -0.8175   YZ=             -5.8992

 Normal termination of Gaussian 16 at Tue Nov 17 22:43:07 2020.
