 Gaussian 16, Revision C.01,
 Gaussian 16:  ES64L-G16RevC.01  3-Jul-2019

 --------------------------------------
 # opt=modredundant wb97xd/6-311+g(d,p)
 --------------------------------------

 ----------
 NDI_40.pdb
 ----------
 Symbolic Z-matrix:
 Charge =  0 Multiplicity = 1

 SCF Done:  E(RwB97XD) =  -2201.52485423     A.U. after   19 cycles
 SCF Done:  E(RwB97XD) =  -2201.55331885     A.U. after   17 cycles
 SCF Done:  E(RwB97XD) =  -2201.55475384     A.U. after   17 cycles
 SCF Done:  E(RwB97XD) =  -2201.56712411     A.U. after   16 cycles
 SCF Done:  E(RwB97XD) =  -2201.56830993     A.U. after   15 cycles
 SCF Done:  E(RwB97XD) =  -2201.56854027     A.U. after   15 cycles
 SCF Done:  E(RwB97XD) =  -2201.56876232     A.U. after   15 cycles
 SCF Done:  E(RwB97XD) =  -2201.56897304     A.U. after   14 cycles
 SCF Done:  E(RwB97XD) =  -2201.56913832     A.U. after   15 cycles
 SCF Done:  E(RwB97XD) =  -2201.56922733     A.U. after   14 cycles
 SCF Done:  E(RwB97XD) =  -2201.56954697     A.U. after   11 cycles
 SCF Done:  E(RwB97XD) =  -2201.56954719     A.U. after   11 cycles
 SCF Done:  E(RwB97XD) =  -2201.56954735     A.U. after   11 cycles
 SCF Done:  E(RwB97XD) =  -2201.56954759     A.U. after   11 cycles
 SCF Done:  E(RwB97XD) =  -2201.56954788     A.U. after   11 cycles
 SCF Done:  E(RwB97XD) =  -2201.56954816     A.U. after   11 cycles
 SCF Done:  E(RwB97XD) =  -2201.56954856     A.U. after   11 cycles
 SCF Done:  E(RwB97XD) =  -2201.56954888     A.U. after   11 cycles
 SCF Done:  E(RwB97XD) =  -2201.56954906     A.U. after   11 cycles
 SCF Done:  E(RwB97XD) =  -2201.56954910     A.U. after   10 cycles
 Optimization completed.
    -- Stationary point found.

                         Standard orientation:
 ---------------------------------------------------------------------
 Center     Atomic      Atomic             Coordinates (Angstroms)
 Number     Number       Type             X           Y           Z
 ---------------------------------------------------------------------
      1          6           0        2.585828   -3.037888   -0.312059
      2          6           0        2.231808   -1.598175   -0.172698
      3          6           0        3.248039   -0.620714   -0.057947
      4          6           0        4.613701   -0.983929   -0.078401
      5          6           0        5.000963   -2.413833   -0.221572
      6          6           0        0.919738   -1.230274   -0.192433
      7          6           0        2.872138    0.734169    0.085533
      8          6           0        1.489922    1.103266    0.098515
      9          6           0        0.506470    0.126834   -0.081985
     10          6           0        1.162525    2.525069    0.423803
     11          6           0        3.593415    3.125695    0.383150
     12          6           0        3.913997    1.689954    0.205173
     13          6           0        5.238042    1.316146    0.174011
     14          6           0        5.596582   -0.029587    0.031607
     15          1           0        6.635267   -0.335542    0.009757
     16          1           0        5.992672    2.087987    0.265934
     17          1           0        0.175286   -2.005562   -0.330642
     18          7           0        2.243684    3.401296    0.471003
     19          7           0        3.945858   -3.310595   -0.320687
     20          8           0        1.772524   -3.924375   -0.411958
     21          8           0        6.145189   -2.798915   -0.250771
     22          8           0        4.420665    4.003618    0.465535
     23          8           0        0.061104    2.959836    0.663050
     24          6           0       -0.930273    0.369291   -0.243685
     25          6           0       -1.572243    1.349019   -0.946320
     26         16           0       -2.069399   -0.744559    0.447614
     27          6           0       -2.974795    1.210492   -0.921455
     28          1           0       -1.063683    2.145735   -1.470892
     29          6           0       -3.424129    0.127348   -0.198383
     30          8           0       -3.847123    2.038818   -1.556862
     31          6           0       -4.794815   -0.267069    0.046157
     32          6           0       -5.238447   -1.369535    0.737610
     33         16           0       -6.161889    0.656971   -0.522773
     34          6           0       -6.652555   -1.476293    0.813645
     35          8           0       -4.362145   -2.249991    1.287050
     36          6           0       -7.272005   -0.447436    0.174721
     37          1           0       -7.172857   -2.280189    1.319334
     38          1           0       -8.333342   -0.278950    0.072906
     39          1           0       -4.834825   -2.976762    1.693744
     40          1           0       -3.431490    2.886193   -1.721331
     41          1           0        4.201793   -4.285297   -0.416739
     42          1           0        1.999842    4.361663    0.677977
 ---------------------------------------------------------------------

 The electronic state is 1-A.
 Alpha  occ. eigenvalues --  -89.05529 -89.05103 -19.29744 -19.29390 -19.25747
 Alpha  occ. eigenvalues --  -19.25727 -19.25310 -19.25304 -14.50490 -14.50110
 Alpha  occ. eigenvalues --  -10.43622 -10.43615 -10.43591 -10.43104 -10.36174
 Alpha  occ. eigenvalues --  -10.36158 -10.36012 -10.35399 -10.35032 -10.34938
 Alpha  occ. eigenvalues --  -10.34534 -10.34515 -10.34326 -10.33708 -10.33702
 Alpha  occ. eigenvalues --  -10.33538 -10.33433 -10.33364 -10.32960 -10.32454
 Alpha  occ. eigenvalues --  -10.30628 -10.30292  -8.09561  -8.09125  -6.04415
 Alpha  occ. eigenvalues --   -6.04015  -6.03974  -6.03624  -6.03574  -6.03204
 Alpha  occ. eigenvalues --   -1.20095  -1.19880  -1.18825  -1.18471  -1.18292
 Alpha  occ. eigenvalues --   -1.17976  -1.06991  -1.06489  -1.03455  -1.01162
 Alpha  occ. eigenvalues --   -0.99534  -0.97824  -0.94591  -0.91053  -0.89501
 Alpha  occ. eigenvalues --   -0.87757  -0.84760  -0.83916  -0.82743  -0.81476
 Alpha  occ. eigenvalues --   -0.81181  -0.77907  -0.76745  -0.75233  -0.72666
 Alpha  occ. eigenvalues --   -0.71194  -0.70818  -0.69895  -0.68301  -0.66618
 Alpha  occ. eigenvalues --   -0.65755  -0.64498  -0.63593  -0.61599  -0.60967
 Alpha  occ. eigenvalues --   -0.59920  -0.59720  -0.59503  -0.58755  -0.57832
 Alpha  occ. eigenvalues --   -0.57560  -0.56608  -0.56455  -0.55193  -0.54889
 Alpha  occ. eigenvalues --   -0.54807  -0.54006  -0.53413  -0.53161  -0.52354
 Alpha  occ. eigenvalues --   -0.52157  -0.51796  -0.51564  -0.51383  -0.51341
 Alpha  occ. eigenvalues --   -0.49009  -0.48144  -0.47794  -0.47133  -0.46356
 Alpha  occ. eigenvalues --   -0.45669  -0.44891  -0.44201  -0.43277  -0.42152
 Alpha  occ. eigenvalues --   -0.41178  -0.40568  -0.39591  -0.39377  -0.39002
 Alpha  occ. eigenvalues --   -0.38437  -0.37782  -0.37116  -0.35346  -0.33928
 Alpha  occ. eigenvalues --   -0.32492  -0.32240  -0.26653
 Alpha virt. eigenvalues --   -0.07935  -0.01339  -0.00341   0.01742   0.02948
 Alpha virt. eigenvalues --    0.04485   0.05148   0.05503   0.06207   0.06531
 Alpha virt. eigenvalues --    0.06589   0.07121   0.07536   0.07738   0.07907

 Mulliken charges:
               1
     1  C    0.448308
     2  C   -0.195752
     3  C    0.247273
     4  C    0.189085
     5  C    0.274523
     6  C   -0.320078
     7  C    0.176494
     8  C    0.101356
     9  C    0.269035
    10  C    0.043048
    11  C    0.333301
    12  C    0.083950
    13  C   -0.462557
    14  C   -0.636936
    15  H    0.191300
    16  H    0.192155
    17  H    0.207689
    18  N   -0.419602
    19  N   -0.451729
    20  O   -0.264353
    21  O   -0.261889
    22  O   -0.273164
    23  O   -0.209370
    24  C    0.184260
    25  C   -0.385633
    26  S   -0.623572
    27  C   -0.642318
    28  H    0.148407
    29  C    0.515327
    30  O   -0.254759
    31  C    0.762181
    32  C    0.521517
    33  S   -0.318118
    34  C   -0.350976
    35  O   -0.252321
    36  C   -0.258265
    37  H    0.143864
    38  H    0.189954
    39  H    0.284493
    40  H    0.286289
    41  H    0.397543
    42  H    0.390038
 Sum of Mulliken charges =  -0.00000

 Dipole moment (field-independent basis, Debye):
    X=             -2.8410    Y=             -0.1814    Z=              0.0287  Tot=              2.8470
 Quadrupole moment (field-independent basis, Debye-Ang):
   XX=           -185.5432   YY=           -197.6486   ZZ=           -193.2920
   XY=              8.0525   XZ=             -6.3040   YZ=            -12.8139

 Normal termination of Gaussian 16 at Tue Nov 17 15:50:43 2020.
