 Gaussian 16, Revision C.01,
 Gaussian 16:  ES64L-G16RevC.01  3-Jul-2019

 --------------------------------------
 # opt=modredundant wb97xd/6-311+g(d,p)
 --------------------------------------

 -----------
 NDI_-40.pdb
 -----------
 Symbolic Z-matrix:
 Charge =  0 Multiplicity = 1

 SCF Done:  E(RwB97XD) =  -2201.52914492     A.U. after   19 cycles
 SCF Done:  E(RwB97XD) =  -2201.55871544     A.U. after   16 cycles
 SCF Done:  E(RwB97XD) =  -2201.56552963     A.U. after   16 cycles
 SCF Done:  E(RwB97XD) =  -2201.56807182     A.U. after   16 cycles
 SCF Done:  E(RwB97XD) =  -2201.56901329     A.U. after   16 cycles
 SCF Done:  E(RwB97XD) =  -2201.56926610     A.U. after   14 cycles
 SCF Done:  E(RwB97XD) =  -2201.56939635     A.U. after   14 cycles
 SCF Done:  E(RwB97XD) =  -2201.56945876     A.U. after   14 cycles
 SCF Done:  E(RwB97XD) =  -2201.56948422     A.U. after   15 cycles
 SCF Done:  E(RwB97XD) =  -2201.56951648     A.U. after   14 cycles
 SCF Done:  E(RwB97XD) =  -2201.56954580     A.U. after   11 cycles
 SCF Done:  E(RwB97XD) =  -2201.56954676     A.U. after   13 cycles
 SCF Done:  E(RwB97XD) =  -2201.56954741     A.U. after   13 cycles
 SCF Done:  E(RwB97XD) =  -2201.56954779     A.U. after   11 cycles
 SCF Done:  E(RwB97XD) =  -2201.56954798     A.U. after   10 cycles
 SCF Done:  E(RwB97XD) =  -2201.56954808     A.U. after   10 cycles
 SCF Done:  E(RwB97XD) =  -2201.56954815     A.U. after   10 cycles
 SCF Done:  E(RwB97XD) =  -2201.56954821     A.U. after   10 cycles
 SCF Done:  E(RwB97XD) =  -2201.56954824     A.U. after   10 cycles
 SCF Done:  E(RwB97XD) =  -2201.56954826     A.U. after   10 cycles
 Optimization completed.
    -- Stationary point found.

                         Standard orientation:
 ---------------------------------------------------------------------
 Center     Atomic      Atomic             Coordinates (Angstroms)
 Number     Number       Type             X           Y           Z
 ---------------------------------------------------------------------
      1          6           0        2.585919   -3.037897    0.312197
      2          6           0        2.231854   -1.598241    0.172653
      3          6           0        3.248041   -0.620746    0.057933
      4          6           0        4.613722   -0.983903    0.078427
      5          6           0        5.001000   -2.413833    0.221348
      6          6           0        0.919755   -1.230374    0.192363
      7          6           0        2.872114    0.734127   -0.085567
      8          6           0        1.489909    1.103136   -0.098897
      9          6           0        0.506486    0.126696    0.081695
     10          6           0        1.162503    2.524834   -0.424745
     11          6           0        3.593278    3.125763   -0.382409
     12          6           0        3.913932    1.690008   -0.204775
     13          6           0        5.237992    1.316266   -0.173398
     14          6           0        5.596564   -0.029496   -0.031287
     15          1           0        6.635262   -0.335413   -0.009438
     16          1           0        5.992605    2.088172   -0.264898
     17          1           0        0.175309   -2.005646    0.330684
     18          7           0        2.243590    3.401139   -0.471668
     19          7           0        3.945944   -3.310639    0.320301
     20          8           0        1.772638   -3.924376    0.412504
     21          8           0        6.145252   -2.798882    0.250439
     22          8           0        4.420457    4.003868   -0.463626
     23          8           0        0.061140    2.959391   -0.664651
     24          6           0       -0.930236    0.369249    0.243375
     25          6           0       -1.572099    1.349243    0.945682
     26         16           0       -2.069446   -0.744747   -0.447593
     27          6           0       -2.974681    1.210859    0.920823
     28          1           0       -1.063508    2.146111    1.470006
     29          6           0       -3.424118    0.127495    0.198161
     30          8           0       -3.846905    2.039468    1.556042
     31          6           0       -4.794821   -0.267015   -0.046060
     32          6           0       -5.238553   -1.369408   -0.737577
     33         16           0       -6.161846    0.656697    0.523586
     34          6           0       -6.652663   -1.476370   -0.813113
     35          8           0       -4.362299   -2.249540   -1.287558
     36          6           0       -7.272044   -0.447768   -0.173718
     37          1           0       -7.173033   -2.280211   -1.318816
     38          1           0       -8.333365   -0.279432   -0.071499
     39          1           0       -4.834899   -2.976869   -1.693349
     40          1           0       -3.431526    2.887206    1.719264
     41          1           0        4.201969   -4.285300    0.416442
     42          1           0        1.999702    4.361502   -0.678582
 ---------------------------------------------------------------------

 The electronic state is 1-A.
 Alpha  occ. eigenvalues --  -89.05529 -89.05103 -19.29744 -19.29389 -19.25747
 Alpha  occ. eigenvalues --  -19.25727 -19.25310 -19.25305 -14.50491 -14.50111
 Alpha  occ. eigenvalues --  -10.43622 -10.43615 -10.43591 -10.43104 -10.36174
 Alpha  occ. eigenvalues --  -10.36157 -10.36012 -10.35399 -10.35031 -10.34938
 Alpha  occ. eigenvalues --  -10.34534 -10.34515 -10.34326 -10.33709 -10.33701
 Alpha  occ. eigenvalues --  -10.33539 -10.33433 -10.33364 -10.32960 -10.32455
 Alpha  occ. eigenvalues --  -10.30628 -10.30292  -8.09560  -8.09125  -6.04415
 Alpha  occ. eigenvalues --   -6.04015  -6.03974  -6.03624  -6.03574  -6.03204
 Alpha  occ. eigenvalues --   -1.20095  -1.19880  -1.18826  -1.18470  -1.18291
 Alpha  occ. eigenvalues --   -1.17976  -1.06992  -1.06490  -1.03456  -1.01162
 Alpha  occ. eigenvalues --   -0.99533  -0.97824  -0.94591  -0.91054  -0.89501
 Alpha  occ. eigenvalues --   -0.87757  -0.84760  -0.83916  -0.82743  -0.81476
 Alpha  occ. eigenvalues --   -0.81181  -0.77907  -0.76746  -0.75233  -0.72667
 Alpha  occ. eigenvalues --   -0.71194  -0.70819  -0.69895  -0.68300  -0.66618
 Alpha  occ. eigenvalues --   -0.65755  -0.64498  -0.63594  -0.61599  -0.60967
 Alpha  occ. eigenvalues --   -0.59920  -0.59719  -0.59503  -0.58756  -0.57832
 Alpha  occ. eigenvalues --   -0.57560  -0.56608  -0.56455  -0.55193  -0.54889
 Alpha  occ. eigenvalues --   -0.54808  -0.54007  -0.53413  -0.53161  -0.52354
 Alpha  occ. eigenvalues --   -0.52157  -0.51796  -0.51564  -0.51383  -0.51341
 Alpha  occ. eigenvalues --   -0.49009  -0.48144  -0.47795  -0.47133  -0.46356
 Alpha  occ. eigenvalues --   -0.45668  -0.44890  -0.44201  -0.43277  -0.42150
 Alpha  occ. eigenvalues --   -0.41178  -0.40567  -0.39590  -0.39377  -0.39003
 Alpha  occ. eigenvalues --   -0.38437  -0.37782  -0.37116  -0.35346  -0.33928
 Alpha  occ. eigenvalues --   -0.32493  -0.32240  -0.26653
 Alpha virt. eigenvalues --   -0.07935  -0.01339  -0.00341   0.01742   0.02948
 Alpha virt. eigenvalues --    0.04485   0.05148   0.05503   0.06207   0.06531
 Alpha virt. eigenvalues --    0.06589   0.07121   0.07536   0.07738   0.07907

 Mulliken charges:
               1
     1  C    0.448539
     2  C   -0.195828
     3  C    0.247152
     4  C    0.189389
     5  C    0.274439
     6  C   -0.320003
     7  C    0.176518
     8  C    0.101777
     9  C    0.268734
    10  C    0.043294
    11  C    0.333179
    12  C    0.084176
    13  C   -0.462822
    14  C   -0.637166
    15  H    0.191302
    16  H    0.192153
    17  H    0.207677
    18  N   -0.419684
    19  N   -0.451702
    20  O   -0.264363
    21  O   -0.261908
    22  O   -0.273200
    23  O   -0.209348
    24  C    0.184227
    25  C   -0.385238
    26  S   -0.623675
    27  C   -0.642886
    28  H    0.148404
    29  C    0.515586
    30  O   -0.254800
    31  C    0.762173
    32  C    0.521416
    33  S   -0.318033
    34  C   -0.350937
    35  O   -0.252363
    36  C   -0.258415
    37  H    0.143868
    38  H    0.189956
    39  H    0.284506
    40  H    0.286297
    41  H    0.397549
    42  H    0.390060
 Sum of Mulliken charges =  -0.00000

 Dipole moment (field-independent basis, Debye):
    X=             -2.8413    Y=             -0.1819    Z=             -0.0301  Tot=              2.8473
 Quadrupole moment (field-independent basis, Debye-Ang):
   XX=           -185.5381   YY=           -197.6363   ZZ=           -193.3081
   XY=              8.0574   XZ=              6.2914   YZ=             12.7991

 Normal termination of Gaussian 16 at Tue Nov 17 16:35:04 2020.
