 Gaussian 16, Revision C.01,
 Gaussian 16:  ES64L-G16RevC.01  3-Jul-2019

 --------------------------------------
 # opt=modredundant wb97xd/6-311+g(d,p)
 --------------------------------------

 ------------
 NDI_-150.pdb
 ------------
 Symbolic Z-matrix:
 Charge =  0 Multiplicity = 1

 SCF Done:  E(RwB97XD) =  -2201.50383946     A.U. after   19 cycles
 SCF Done:  E(RwB97XD) =  -2201.53128687     A.U. after   19 cycles
 SCF Done:  E(RwB97XD) =  -2201.55490084     A.U. after   16 cycles
 SCF Done:  E(RwB97XD) =  -2201.56233590     A.U. after   16 cycles
 SCF Done:  E(RwB97XD) =  -2201.56508857     A.U. after   19 cycles
 SCF Done:  E(RwB97XD) =  -2201.56538654     A.U. after   17 cycles
 SCF Done:  E(RwB97XD) =  -2201.56582445     A.U. after   16 cycles
 SCF Done:  E(RwB97XD) =  -2201.56622043     A.U. after   18 cycles
 SCF Done:  E(RwB97XD) =  -2201.56654955     A.U. after   15 cycles
 SCF Done:  E(RwB97XD) =  -2201.56694954     A.U. after   17 cycles
 SCF Done:  E(RwB97XD) =  -2201.56752305     A.U. after   12 cycles
 SCF Done:  E(RwB97XD) =  -2201.56752802     A.U. after   13 cycles
 SCF Done:  E(RwB97XD) =  -2201.56753174     A.U. after   13 cycles
 SCF Done:  E(RwB97XD) =  -2201.56753350     A.U. after   12 cycles
 SCF Done:  E(RwB97XD) =  -2201.56753618     A.U. after   11 cycles
 SCF Done:  E(RwB97XD) =  -2201.56754139     A.U. after   14 cycles
 SCF Done:  E(RwB97XD) =  -2201.56754637     A.U. after   12 cycles
 SCF Done:  E(RwB97XD) =  -2201.56754982     A.U. after   13 cycles
 SCF Done:  E(RwB97XD) =  -2201.56755034     A.U. after   11 cycles
 SCF Done:  E(RwB97XD) =  -2201.56755040     A.U. after   10 cycles
 Optimization completed.
    -- Stationary point found.

                         Standard orientation:
 ---------------------------------------------------------------------
 Center     Atomic      Atomic             Coordinates (Angstroms)
 Number     Number       Type             X           Y           Z
 ---------------------------------------------------------------------
      1          6           0       -3.280455   -2.909480    0.222904
      2          6           0       -2.602393   -1.605829   -0.012030
      3          6           0       -3.331844   -0.397622    0.087140
      4          6           0       -4.703175   -0.393577    0.428277
      5          6           0       -5.407505   -1.680215    0.677439
      6          6           0       -1.263395   -1.585112   -0.276115
      7          6           0       -2.661503    0.819552   -0.163524
      8          6           0       -1.276672    0.817500   -0.502984
      9          6           0       -0.555580   -0.374692   -0.505848
     10          6           0       -0.690006    2.099485   -0.994149
     11          6           0       -2.751798    3.329966   -0.305499
     12          6           0       -3.404391    2.021715   -0.046169
     13          6           0       -4.735378    2.003832    0.301395
     14          6           0       -5.394539    0.789573    0.537297
     15          1           0       -6.443748    0.764601    0.805063
     16          1           0       -5.259702    2.948017    0.386650
     17          1           0       -0.724620   -2.524699   -0.271002
     18          7           0       -1.441377    3.243577   -0.736159
     19          7           0       -4.626685   -2.821941    0.546019
     20          8           0       -2.727355   -3.980330    0.143713
     21          8           0       -6.575679   -1.760898    0.972346
     22          8           0       -3.304190    4.398090   -0.182360
     23          8           0        0.342149    2.194268   -1.611060
     24          6           0        0.904172   -0.499589   -0.604161
     25          6           0        1.579059   -1.551335   -1.168325
     26         16           0        1.978221    0.506616    0.301130
     27          6           0        2.967653   -1.507532   -0.922254
     28          1           0        1.101893   -2.320304   -1.764610
     29          6           0        3.360472   -0.456578   -0.124205
     30          8           0        3.872152   -2.409739   -1.389171
     31          6           0        4.701232   -0.131958    0.314652
     32          6           0        5.087075    0.901225    1.135427
     33         16           0        6.105378   -1.045430   -0.175612
     34          6           0        6.486868    0.967951    1.365671
     35          8           0        4.171462    1.753368    1.666680
     36          6           0        7.154063   -0.022484    0.714380
     37          1           0        6.962905    1.714594    1.989017
     38          1           0        8.216682   -0.212232    0.715282
     39          1           0        4.613802    2.488707    2.091753
     40          1           0        3.469496   -2.965695   -2.056817
     41          1           0       -5.100491   -3.701260    0.710696
     42          1           0       -1.017447    4.110991   -1.040434
 ---------------------------------------------------------------------

 The electronic state is 1-A.
 Alpha  occ. eigenvalues --  -89.05295 -89.05042 -19.29641 -19.29562 -19.25835
 Alpha  occ. eigenvalues --  -19.25772 -19.25270 -19.25261 -14.50546 -14.49985
 Alpha  occ. eigenvalues --  -10.43706 -10.43636 -10.43358 -10.43110 -10.36089
 Alpha  occ. eigenvalues --  -10.36061 -10.35993 -10.35290 -10.34958 -10.34852
 Alpha  occ. eigenvalues --  -10.34568 -10.34530 -10.34374 -10.33923 -10.33708
 Alpha  occ. eigenvalues --  -10.33571 -10.33486 -10.33430 -10.32901 -10.32377
 Alpha  occ. eigenvalues --  -10.30911 -10.30215  -8.09321  -8.09067  -6.04181
 Alpha  occ. eigenvalues --   -6.03916  -6.03776  -6.03515  -6.03375  -6.03146
 Alpha  occ. eigenvalues --   -1.20140  -1.19760  -1.18724  -1.18614  -1.18343
 Alpha  occ. eigenvalues --   -1.17908  -1.07023  -1.06440  -1.03502  -1.01143
 Alpha  occ. eigenvalues --   -0.99498  -0.97850  -0.94617  -0.91113  -0.89519
 Alpha  occ. eigenvalues --   -0.87682  -0.84661  -0.83766  -0.83041  -0.81475
 Alpha  occ. eigenvalues --   -0.81001  -0.77896  -0.76820  -0.75132  -0.72638
 Alpha  occ. eigenvalues --   -0.71290  -0.70724  -0.69888  -0.68393  -0.66471
 Alpha  occ. eigenvalues --   -0.65768  -0.64589  -0.63609  -0.61642  -0.60778
 Alpha  occ. eigenvalues --   -0.59990  -0.59739  -0.59461  -0.58779  -0.57850
 Alpha  occ. eigenvalues --   -0.57479  -0.56558  -0.56407  -0.55149  -0.54999
 Alpha  occ. eigenvalues --   -0.54773  -0.54077  -0.53735  -0.53170  -0.52270
 Alpha  occ. eigenvalues --   -0.51993  -0.51924  -0.51644  -0.51390  -0.51274
 Alpha  occ. eigenvalues --   -0.49176  -0.47846  -0.47417  -0.46827  -0.46563
 Alpha  occ. eigenvalues --   -0.46182  -0.44925  -0.44032  -0.43348  -0.42175
 Alpha  occ. eigenvalues --   -0.41106  -0.40538  -0.39561  -0.39426  -0.38816
 Alpha  occ. eigenvalues --   -0.38255  -0.37829  -0.37083  -0.35491  -0.33896
 Alpha  occ. eigenvalues --   -0.32464  -0.32110  -0.26614
 Alpha virt. eigenvalues --   -0.07864  -0.01332  -0.00279   0.01720   0.02988
 Alpha virt. eigenvalues --    0.04418   0.05225   0.05266   0.06235   0.06256
 Alpha virt. eigenvalues --    0.06504   0.07176   0.07610   0.07772   0.07929

 Mulliken charges:
               1
     1  C    0.432943
     2  C   -0.126145
     3  C    0.175944
     4  C    0.209189
     5  C    0.290604
     6  C   -0.193212
     7  C    0.103654
     8  C   -0.124891
     9  C    0.210080
    10  C    0.079910
    11  C    0.282574
    12  C    0.097956
    13  C   -0.443110
    14  C   -0.598723
    15  H    0.191245
    16  H    0.191648
    17  H    0.188355
    18  N   -0.365237
    19  N   -0.453169
    20  O   -0.267036
    21  O   -0.262272
    22  O   -0.273896
    23  O   -0.211992
    24  C    0.334439
    25  C   -0.290703
    26  S   -0.720186
    27  C   -0.382445
    28  H    0.147873
    29  C    0.376360
    30  O   -0.241081
    31  C    0.722962
    32  C    0.376803
    33  S   -0.288248
    34  C   -0.310729
    35  O   -0.262630
    36  C   -0.279030
    37  H    0.143520
    38  H    0.189869
    39  H    0.283502
    40  H    0.282871
    41  H    0.396444
    42  H    0.385991
 Sum of Mulliken charges =  -0.00000

 Dipole moment (field-independent basis, Debye):
    X=              2.7029    Y=              0.1969    Z=              0.2603  Tot=              2.7225
 Quadrupole moment (field-independent basis, Debye-Ang):
   XX=           -186.1253   YY=           -200.6862   ZZ=           -190.6542
   XY=              7.0254   XZ=             10.2765   YZ=             14.1098

 Normal termination of Gaussian 16 at Tue Nov 17 18:19:58 2020.
