 Gaussian 16, Revision C.01,
 Gaussian 16:  ES64L-G16RevC.01  3-Jul-2019

 --------------------------------------
 # opt=modredundant wb97xd/6-311+g(d,p)
 --------------------------------------

 -----------
 NDI_-60.pdb
 -----------
 Symbolic Z-matrix:
 Charge =  0 Multiplicity = 1

 SCF Done:  E(RwB97XD) =  -2201.52723577     A.U. after   19 cycles
 SCF Done:  E(RwB97XD) =  -2201.55799667     A.U. after   16 cycles
 SCF Done:  E(RwB97XD) =  -2201.56557499     A.U. after   16 cycles
 SCF Done:  E(RwB97XD) =  -2201.56880551     A.U. after   15 cycles
 SCF Done:  E(RwB97XD) =  -2201.56918137     A.U. after   14 cycles
 SCF Done:  E(RwB97XD) =  -2201.56939326     A.U. after   14 cycles
 SCF Done:  E(RwB97XD) =  -2201.56952197     A.U. after   13 cycles
 SCF Done:  E(RwB97XD) =  -2201.56954481     A.U. after   13 cycles
 SCF Done:  E(RwB97XD) =  -2201.56956574     A.U. after   13 cycles
 SCF Done:  E(RwB97XD) =  -2201.56957524     A.U. after   14 cycles
 SCF Done:  E(RwB97XD) =  -2201.56960030     A.U. after   10 cycles
 SCF Done:  E(RwB97XD) =  -2201.56960083     A.U. after   13 cycles
 SCF Done:  E(RwB97XD) =  -2201.56960174     A.U. after   14 cycles
 SCF Done:  E(RwB97XD) =  -2201.56960226     A.U. after   13 cycles
 SCF Done:  E(RwB97XD) =  -2201.56960270     A.U. after   11 cycles
 SCF Done:  E(RwB97XD) =  -2201.56960312     A.U. after   13 cycles
 SCF Done:  E(RwB97XD) =  -2201.56960336     A.U. after   11 cycles
 SCF Done:  E(RwB97XD) =  -2201.56960351     A.U. after   11 cycles
 SCF Done:  E(RwB97XD) =  -2201.56960357     A.U. after   11 cycles
 SCF Done:  E(RwB97XD) =  -2201.56960362     A.U. after   10 cycles
 Optimization completed.
    -- Stationary point found.

                         Standard orientation:
 ---------------------------------------------------------------------
 Center     Atomic      Atomic             Coordinates (Angstroms)
 Number     Number       Type             X           Y           Z
 ---------------------------------------------------------------------
      1          6           0        2.722802   -3.010871    0.413520
      2          6           0        2.302870   -1.590995    0.256144
      3          6           0        3.271494   -0.579329    0.058815
      4          6           0        4.650810   -0.888563    0.008210
      5          6           0        5.102857   -2.297894    0.165520
      6          6           0        0.976731   -1.273074    0.326451
      7          6           0        2.839777    0.757507   -0.095574
      8          6           0        1.447904    1.071196   -0.040634
      9          6           0        0.518432    0.064502    0.203957
     10          6           0        1.034835    2.481181   -0.323648
     11          6           0        3.438316    3.169444   -0.487606
     12          6           0        3.831125    1.751167   -0.300523
     13          6           0        5.167419    1.428578   -0.341171
     14          6           0        5.584980    0.099900   -0.185738
     15          1           0        6.634582   -0.165445   -0.218551
     16          1           0        5.885991    2.223984   -0.498058
     17          1           0        0.260122   -2.065479    0.508320
     18          7           0        2.075492    3.393690   -0.478749
     19          7           0        4.091595   -3.230428    0.350548
     20          8           0        1.953442   -3.924975    0.584627
     21          8           0        6.261443   -2.637313    0.137140
     22          8           0        4.222658    4.075080   -0.648103
     23          8           0       -0.101576    2.869684   -0.438184
     24          6           0       -0.928575    0.274261    0.370776
     25          6           0       -1.570912    1.029034    1.305157
     26         16           0       -2.046667   -0.635045   -0.586385
     27          6           0       -2.977330    0.898862    1.231851
     28          1           0       -1.060848    1.664809    2.017401
     29          6           0       -3.414887    0.037617    0.253355
     30          8           0       -3.856992    1.533961    2.053806
     31          6           0       -4.782033   -0.281737   -0.102987
     32          6           0       -5.213518   -1.183113   -1.046011
     33         16           0       -6.158653    0.488147    0.643916
     34          6           0       -6.626269   -1.258718   -1.173744
     35          8           0       -4.327654   -1.915496   -1.772232
     36          6           0       -7.257390   -0.408232   -0.320329
     37          1           0       -7.137292   -1.915977   -1.866351
     38          1           0       -8.320228   -0.262663   -0.200834
     39          1           0       -4.795013   -2.498106   -2.371314
     40          1           0       -3.451561    2.321136    2.419265
     41          1           0        4.390998   -4.191520    0.457510
     42          1           0        1.781563    4.344934   -0.661647
 ---------------------------------------------------------------------

 The electronic state is 1-A.
 Alpha  occ. eigenvalues --  -89.05299 -89.04803 -19.29435 -19.29160 -19.25850
 Alpha  occ. eigenvalues --  -19.25849 -19.25508 -19.25472 -14.50602 -14.50266
 Alpha  occ. eigenvalues --  -10.43727 -10.43723 -10.43720 -10.43330 -10.36043
 Alpha  occ. eigenvalues --  -10.35795 -10.35738 -10.35545 -10.35277 -10.35206
 Alpha  occ. eigenvalues --  -10.34713 -10.34709 -10.34590 -10.33687 -10.33681
 Alpha  occ. eigenvalues --  -10.33627 -10.33537 -10.33183 -10.32655 -10.32129
 Alpha  occ. eigenvalues --  -10.30343 -10.30016  -8.09322  -8.08825  -6.04180
 Alpha  occ. eigenvalues --   -6.03780  -6.03674  -6.03383  -6.03275  -6.02904
 Alpha  occ. eigenvalues --   -1.20208  -1.20023  -1.18487  -1.18408  -1.18206
 Alpha  occ. eigenvalues --   -1.18152  -1.07124  -1.06643  -1.03644  -1.00954
 Alpha  occ. eigenvalues --   -0.99335  -0.97867  -0.94785  -0.91066  -0.89665
 Alpha  occ. eigenvalues --   -0.87553  -0.84479  -0.83643  -0.82672  -0.81645
 Alpha  occ. eigenvalues --   -0.81152  -0.78027  -0.76819  -0.75318  -0.72839
 Alpha  occ. eigenvalues --   -0.71049  -0.70576  -0.69732  -0.68357  -0.66663
 Alpha  occ. eigenvalues --   -0.65528  -0.64514  -0.63348  -0.61747  -0.61040
 Alpha  occ. eigenvalues --   -0.60014  -0.59820  -0.59488  -0.58766  -0.57949
 Alpha  occ. eigenvalues --   -0.57376  -0.56805  -0.56484  -0.55270  -0.55052
 Alpha  occ. eigenvalues --   -0.54910  -0.54094  -0.53105  -0.53053  -0.52391
 Alpha  occ. eigenvalues --   -0.52074  -0.51784  -0.51709  -0.51556  -0.51133
 Alpha  occ. eigenvalues --   -0.49153  -0.48066  -0.47666  -0.46874  -0.46149
 Alpha  occ. eigenvalues --   -0.45175  -0.44628  -0.44314  -0.43207  -0.41909
 Alpha  occ. eigenvalues --   -0.41331  -0.40674  -0.39643  -0.39482  -0.39164
 Alpha  occ. eigenvalues --   -0.38386  -0.37754  -0.37034  -0.35488  -0.34091
 Alpha  occ. eigenvalues --   -0.32327  -0.32017  -0.26528
 Alpha virt. eigenvalues --   -0.07974  -0.01020  -0.00285   0.01637   0.02653
 Alpha virt. eigenvalues --    0.04556   0.05114   0.05487   0.06364   0.06435
 Alpha virt. eigenvalues --    0.06539   0.07020   0.07439   0.07598   0.07763

 Mulliken charges:
               1
     1  C    0.514494
     2  C   -0.173503
     3  C    0.233894
     4  C    0.178844
     5  C    0.271734
     6  C   -0.514127
     7  C    0.172485
     8  C   -0.031104
     9  C    0.286011
    10  C    0.130978
    11  C    0.318868
    12  C    0.102854
    13  C   -0.434958
    14  C   -0.656223
    15  H    0.192165
    16  H    0.192248
    17  H    0.213427
    18  N   -0.454217
    19  N   -0.453576
    20  O   -0.260055
    21  O   -0.263024
    22  O   -0.270686
    23  O   -0.163435
    24  C    0.172566
    25  C   -0.430758
    26  S   -0.492145
    27  C   -0.546232
    28  H    0.143958
    29  C    0.574330
    30  O   -0.262066
    31  C    0.666568
    32  C    0.526994
    33  S   -0.328043
    34  C   -0.341312
    35  O   -0.258307
    36  C   -0.248864
    37  H    0.142549
    38  H    0.188493
    39  H    0.282666
    40  H    0.284122
    41  H    0.398041
    42  H    0.394345
 Sum of Mulliken charges =  -0.00000

 Dipole moment (field-independent basis, Debye):
    X=             -2.0006    Y=              0.1046    Z=             -0.1798  Tot=              2.0113
 Quadrupole moment (field-independent basis, Debye-Ang):
   XX=           -187.4718   YY=           -202.9018   ZZ=           -187.2553
   XY=              6.3475   XZ=              9.3124   YZ=             15.1669

 Normal termination of Gaussian 16 at Tue Nov 17 16:23:40 2020.
