 Gaussian 16, Revision C.01,
 Gaussian 16:  ES64L-G16RevC.01  3-Jul-2019

 --------------------------------------
 # opt=modredundant wb97xd/6-311+g(d,p)
 --------------------------------------

 ----------
 NDI_90.pdb
 ----------
 Symbolic Z-matrix:
 Charge =  0 Multiplicity = 1

 SCF Done:  E(RwB97XD) =  -2201.52420153     A.U. after   19 cycles
 SCF Done:  E(RwB97XD) =  -2201.55593293     A.U. after   16 cycles
 SCF Done:  E(RwB97XD) =  -2201.56460035     A.U. after   16 cycles
 SCF Done:  E(RwB97XD) =  -2201.56792325     A.U. after   15 cycles
 SCF Done:  E(RwB97XD) =  -2201.56829403     A.U. after   16 cycles
 SCF Done:  E(RwB97XD) =  -2201.56862556     A.U. after   15 cycles
 SCF Done:  E(RwB97XD) =  -2201.56868152     A.U. after   14 cycles
 SCF Done:  E(RwB97XD) =  -2201.56872417     A.U. after   14 cycles
 SCF Done:  E(RwB97XD) =  -2201.56873658     A.U. after   14 cycles
 SCF Done:  E(RwB97XD) =  -2201.56874399     A.U. after   13 cycles
 SCF Done:  E(RwB97XD) =  -2201.56895139     A.U. after   12 cycles
 SCF Done:  E(RwB97XD) =  -2201.56895231     A.U. after   11 cycles
 SCF Done:  E(RwB97XD) =  -2201.56895290     A.U. after   12 cycles
 SCF Done:  E(RwB97XD) =  -2201.56895305     A.U. after   10 cycles
 SCF Done:  E(RwB97XD) =  -2201.56895329     A.U. after   11 cycles
 SCF Done:  E(RwB97XD) =  -2201.56895361     A.U. after   11 cycles
 SCF Done:  E(RwB97XD) =  -2201.56895396     A.U. after   11 cycles
 SCF Done:  E(RwB97XD) =  -2201.56895413     A.U. after   11 cycles
 SCF Done:  E(RwB97XD) =  -2201.56895425     A.U. after   11 cycles
 SCF Done:  E(RwB97XD) =  -2201.56895429     A.U. after   10 cycles
 Optimization completed.
    -- Stationary point found.

                         Standard orientation:
 ---------------------------------------------------------------------
 Center     Atomic      Atomic             Coordinates (Angstroms)
 Number     Number       Type             X           Y           Z
 ---------------------------------------------------------------------
      1          6           0        3.065674   -2.974896   -0.197863
      2          6           0        2.487241   -1.603189   -0.185900
      3          6           0        3.324639   -0.480500    0.007164
      4          6           0        4.719348   -0.630507    0.197243
      5          6           0        5.327158   -1.989163    0.193877
      6          6           0        1.140800   -1.437524   -0.364426
      7          6           0        2.750112    0.810397    0.010873
      8          6           0        1.346388    0.963082   -0.180476
      9          6           0        0.545996   -0.153380   -0.369270
     10          6           0        0.770159    2.344636   -0.170304
     11          6           0        3.051630    3.299428    0.227305
     12          6           0        3.607625    1.922171    0.210350
     13          6           0        4.959036    1.752177    0.393676
     14          6           0        5.522281    0.467240    0.387013
     15          1           0        6.586131    0.322435    0.530757
     16          1           0        5.575909    2.630038    0.543534
     17          1           0        0.514689   -2.310170   -0.509108
     18          7           0        1.684847    3.373951    0.036853
     19          7           0        4.438875   -3.037203   -0.003789
     20          8           0        2.414765   -3.977686   -0.362591
     21          8           0        6.506665   -2.196007    0.349064
     22          8           0        3.717587    4.294130    0.392213
     23          8           0       -0.394839    2.610696   -0.325506
     24          6           0       -0.918057   -0.103661   -0.579671
     25          6           0       -1.582430   -0.007396   -1.761227
     26         16           0       -1.995688   -0.296738    0.753105
     27          6           0       -2.991229   -0.054800   -1.588034
     28          1           0       -1.092784    0.109849   -2.720114
     29          6           0       -3.394615   -0.206606   -0.286049
     30          8           0       -3.895529    0.014135   -2.603341
     31          6           0       -4.749656   -0.271623    0.225877
     32          6           0       -5.146485   -0.466729    1.525681
     33         16           0       -6.153638   -0.074792   -0.790879
     34          6           0       -6.555061   -0.454306    1.712003
     35          8           0       -4.233927   -0.661571    2.516973
     36          6           0       -7.218455   -0.248407    0.542841
     37          1           0       -7.040046   -0.597484    2.669716
     38          1           0       -8.285652   -0.197515    0.389558
     39          1           0       -4.667736   -0.639327    3.370208
     40          1           0       -3.487631    0.401813   -3.378187
     41          1           0        4.844246   -3.964875   -0.008502
     42          1           0        1.285658    4.304223    0.046483
 ---------------------------------------------------------------------

 The electronic state is 1-A.
 Alpha  occ. eigenvalues --  -89.04911 -89.04450 -19.29028 -19.28947 -19.26007
 Alpha  occ. eigenvalues --  -19.25994 -19.25734 -19.25724 -14.50750 -14.50451
 Alpha  occ. eigenvalues --  -10.43890 -10.43879 -10.43836 -10.43579 -10.35977
 Alpha  occ. eigenvalues --  -10.35727 -10.35583 -10.35514 -10.35431 -10.35319
 Alpha  occ. eigenvalues --  -10.34939 -10.34910 -10.34894 -10.33988 -10.33906
 Alpha  occ. eigenvalues --  -10.33892 -10.33418 -10.32565 -10.32305 -10.31735
 Alpha  occ. eigenvalues --  -10.30030 -10.29670  -8.08925  -8.08475  -6.03789
 Alpha  occ. eigenvalues --   -6.03386  -6.03324  -6.02977  -6.02925  -6.02554
 Alpha  occ. eigenvalues --   -1.20359  -1.20213  -1.18562  -1.18378  -1.18052
 Alpha  occ. eigenvalues --   -1.17946  -1.07298  -1.06836  -1.03873  -1.00697
 Alpha  occ. eigenvalues --   -0.99127  -0.97854  -0.95016  -0.91104  -0.89870
 Alpha  occ. eigenvalues --   -0.87314  -0.84079  -0.83327  -0.82660  -0.81859
 Alpha  occ. eigenvalues --   -0.81030  -0.78189  -0.76944  -0.75437  -0.73047
 Alpha  occ. eigenvalues --   -0.70958  -0.70240  -0.69510  -0.68428  -0.66793
 Alpha  occ. eigenvalues --   -0.65183  -0.64606  -0.63035  -0.61962  -0.61145
 Alpha  occ. eigenvalues --   -0.60182  -0.59941  -0.59524  -0.58654  -0.58102
 Alpha  occ. eigenvalues --   -0.57257  -0.57041  -0.56460  -0.55413  -0.55274
 Alpha  occ. eigenvalues --   -0.54973  -0.54209  -0.53020  -0.52753  -0.52426
 Alpha  occ. eigenvalues --   -0.52112  -0.51970  -0.51775  -0.51496  -0.50857
 Alpha  occ. eigenvalues --   -0.49358  -0.47954  -0.47380  -0.46467  -0.45906
 Alpha  occ. eigenvalues --   -0.44967  -0.44489  -0.44168  -0.42917  -0.41741
 Alpha  occ. eigenvalues --   -0.41448  -0.40790  -0.39707  -0.39625  -0.39338
 Alpha  occ. eigenvalues --   -0.38369  -0.37721  -0.36817  -0.35694  -0.34384
 Alpha  occ. eigenvalues --   -0.32083  -0.31725  -0.26340
 Alpha virt. eigenvalues --   -0.08043  -0.00928  -0.00092   0.01787   0.02115
 Alpha virt. eigenvalues --    0.04580   0.05052   0.05573   0.06144   0.06569
 Alpha virt. eigenvalues --    0.06627   0.06882   0.07300   0.07449   0.07672

 Mulliken charges:
               1
     1  C    0.571819
     2  C   -0.142680
     3  C    0.293272
     4  C    0.155462
     5  C    0.255472
     6  C   -0.573449
     7  C    0.219647
     8  C   -0.164016
     9  C    0.275509
    10  C    0.145418
    11  C    0.287059
    12  C    0.120991
    13  C   -0.451791
    14  C   -0.721204
    15  H    0.193016
    16  H    0.192724
    17  H    0.202198
    18  N   -0.475463
    19  N   -0.454169
    20  O   -0.255243
    21  O   -0.264560
    22  O   -0.265722
    23  O   -0.126154
    24  C    0.463067
    25  C   -0.612372
    26  S   -0.202873
    27  C   -0.432940
    28  H    0.132501
    29  C    0.274863
    30  O   -0.257391
    31  C    0.592175
    32  C    0.517927
    33  S   -0.331238
    34  C   -0.325571
    35  O   -0.276646
    36  C   -0.250505
    37  H    0.141282
    38  H    0.186874
    39  H    0.282544
    40  H    0.283197
    41  H    0.398838
    42  H    0.398134
 Sum of Mulliken charges =  -0.00000

 Dipole moment (field-independent basis, Debye):
    X=             -1.0165    Y=              0.7209    Z=              0.1782  Tot=              1.2589
 Quadrupole moment (field-independent basis, Debye-Ang):
   XX=           -190.3085   YY=           -215.1013   ZZ=           -174.1869
   XY=              0.0089   XZ=            -12.2565   YZ=             -5.1859

 Normal termination of Gaussian 16 at Tue Nov 17 23:21:17 2020.
