 Gaussian 16, Revision C.01,
 Gaussian 16:  ES64L-G16RevC.01  3-Jul-2019

 --------------------------------------
 # opt=modredundant wb97xd/6-311+g(d,p)
 --------------------------------------

 -----------
 NDI_180.pdb
 -----------
 Symbolic Z-matrix:
 Charge =  0 Multiplicity = 1

 SCF Done:  E(RwB97XD) =  -2201.47958161     A.U. after   20 cycles
 SCF Done:  E(RwB97XD) =  -2201.52068743     A.U. after   20 cycles
 SCF Done:  E(RwB97XD) =  -2201.54960409     A.U. after   17 cycles
 SCF Done:  E(RwB97XD) =  -2201.55651325     A.U. after   17 cycles
 SCF Done:  E(RwB97XD) =  -2201.56052971     A.U. after   16 cycles
 SCF Done:  E(RwB97XD) =  -2201.56106117     A.U. after   15 cycles
 SCF Done:  E(RwB97XD) =  -2201.56112826     A.U. after   15 cycles
 SCF Done:  E(RwB97XD) =  -2201.56122396     A.U. after   15 cycles
 SCF Done:  E(RwB97XD) =  -2201.56141927     A.U. after   17 cycles
 SCF Done:  E(RwB97XD) =  -2201.56125219     A.U. after   18 cycles
 SCF Done:  E(RwB97XD) =  -2201.56261697     A.U. after   11 cycles
 SCF Done:  E(RwB97XD) =  -2201.56257385     A.U. after   14 cycles
 SCF Done:  E(RwB97XD) =  -2201.56260854     A.U. after   15 cycles
 SCF Done:  E(RwB97XD) =  -2201.56261571     A.U. after   15 cycles
 SCF Done:  E(RwB97XD) =  -2201.56261820     A.U. after   13 cycles
 SCF Done:  E(RwB97XD) =  -2201.56261884     A.U. after   14 cycles
 SCF Done:  E(RwB97XD) =  -2201.56261956     A.U. after   12 cycles
 SCF Done:  E(RwB97XD) =  -2201.56261978     A.U. after   11 cycles
 SCF Done:  E(RwB97XD) =  -2201.56261983     A.U. after   10 cycles
 SCF Done:  E(RwB97XD) =  -2201.56261984     A.U. after    9 cycles
 Optimization completed.
    -- Stationary point found.

                         Standard orientation:
 ---------------------------------------------------------------------
 Center     Atomic      Atomic             Coordinates (Angstroms)
 Number     Number       Type             X           Y           Z
 ---------------------------------------------------------------------
      1          6           0       -3.357103   -2.882422    0.009459
      2          6           0       -2.656188   -1.576305    0.139336
      3          6           0       -3.362877   -0.366714   -0.051843
      4          6           0       -4.732403   -0.363205   -0.390759
      5          6           0       -5.461404   -1.651788   -0.534482
      6          6           0       -1.319584   -1.564834    0.392195
      7          6           0       -2.658564    0.844897    0.107777
      8          6           0       -1.268271    0.838122    0.446829
      9          6           0       -0.555128   -0.366902    0.524883
     10          6           0       -0.683221    2.145533    0.846910
     11          6           0       -2.708702    3.360575    0.047798
     12          6           0       -3.379733    2.047856   -0.106414
     13          6           0       -4.712360    2.031871   -0.454226
     14          6           0       -5.401074    0.821692   -0.593422
     15          1           0       -6.451010    0.799157   -0.857947
     16          1           0       -5.212287    2.979539   -0.614528
     17          1           0       -0.839870   -2.529831    0.460716
     18          7           0       -1.405131    3.281208    0.495579
     19          7           0       -4.702466   -2.795444   -0.312890
     20          8           0       -2.821224   -3.954357    0.166155
     21          8           0       -6.631762   -1.734602   -0.819866
     22          8           0       -3.238156    4.426592   -0.165004
     23          8           0        0.340294    2.277026    1.476473
     24          6           0        0.903799   -0.561815    0.574847
     25          6           0        1.516937   -1.799158    0.652012
     26         16           0        2.080197    0.638539    0.140620
     27          6           0        2.894057   -1.769537    0.389715
     28          1           0        1.011674   -2.721313    0.905889
     29          6           0        3.367149   -0.517634    0.058744
     30          8           0        3.724066   -2.846265    0.431348
     31          6           0        4.730276   -0.145211   -0.247795
     32          6           0        5.198774    1.095355   -0.616302
     33         16           0        6.059380   -1.276006   -0.178481
     34          6           0        6.600874    1.143661   -0.834639
     35          8           0        4.355574    2.148689   -0.755597
     36          6           0        7.186305   -0.067280   -0.630216
     37          1           0        7.136654    2.036240   -1.132531
     38          1           0        8.231666   -0.317738   -0.729368
     39          1           0        4.853367    2.954789   -0.895888
     40          1           0        3.269346   -3.602122    0.804322
     41          1           0       -5.194034   -3.675288   -0.407481
     42          1           0       -0.965239    4.158508    0.743255
 ---------------------------------------------------------------------

 The electronic state is 1-A.
 Alpha  occ. eigenvalues --  -89.05405 -89.05360 -19.29915 -19.29786 -19.25765
 Alpha  occ. eigenvalues --  -19.25647 -19.25187 -19.25019 -14.50446 -14.49835
 Alpha  occ. eigenvalues --  -10.43613 -10.43498 -10.43218 -10.42828 -10.36505
 Alpha  occ. eigenvalues --  -10.36453 -10.36250 -10.35099 -10.34596 -10.34558
 Alpha  occ. eigenvalues --  -10.34363 -10.34281 -10.34273 -10.34054 -10.33948
 Alpha  occ. eigenvalues --  -10.33547 -10.33190 -10.33152 -10.33095 -10.32765
 Alpha  occ. eigenvalues --  -10.31341 -10.30515  -8.09401  -8.09383  -6.04259
 Alpha  occ. eigenvalues --   -6.04232  -6.03837  -6.03832  -6.03466  -6.03463
 Alpha  occ. eigenvalues --   -1.20031  -1.19671  -1.19061  -1.18867  -1.18231
 Alpha  occ. eigenvalues --   -1.17747  -1.06897  -1.06313  -1.03272  -1.01283
 Alpha  occ. eigenvalues --   -0.99686  -0.97760  -0.94375  -0.91105  -0.89325
 Alpha  occ. eigenvalues --   -0.87817  -0.84934  -0.84056  -0.83159  -0.81317
 Alpha  occ. eigenvalues --   -0.80934  -0.77826  -0.76726  -0.75044  -0.72427
 Alpha  occ. eigenvalues --   -0.71536  -0.70886  -0.70060  -0.68438  -0.66331
 Alpha  occ. eigenvalues --   -0.66094  -0.64701  -0.63832  -0.61506  -0.60653
 Alpha  occ. eigenvalues --   -0.59931  -0.59682  -0.59211  -0.58760  -0.57867
 Alpha  occ. eigenvalues --   -0.57629  -0.56590  -0.56073  -0.55164  -0.54852
 Alpha  occ. eigenvalues --   -0.54713  -0.54217  -0.53864  -0.53215  -0.52477
 Alpha  occ. eigenvalues --   -0.52073  -0.51881  -0.51648  -0.51250  -0.51156
 Alpha  occ. eigenvalues --   -0.49071  -0.48003  -0.47402  -0.47055  -0.46772
 Alpha  occ. eigenvalues --   -0.46351  -0.45184  -0.43984  -0.43442  -0.42208
 Alpha  occ. eigenvalues --   -0.40869  -0.40422  -0.39466  -0.39317  -0.38781
 Alpha  occ. eigenvalues --   -0.38241  -0.37881  -0.37056  -0.35242  -0.33788
 Alpha  occ. eigenvalues --   -0.32597  -0.32264  -0.26720
 Alpha virt. eigenvalues --   -0.07758  -0.01930  -0.00161   0.01900   0.03147
 Alpha virt. eigenvalues --    0.04272   0.05101   0.05463   0.06038   0.06527
 Alpha virt. eigenvalues --    0.06642   0.07407   0.07653   0.07935   0.08092

 Mulliken charges:
               1
     1  C    0.392815
     2  C   -0.188855
     3  C    0.158664
     4  C    0.214754
     5  C    0.279379
     6  C    0.034165
     7  C    0.091284
     8  C    0.161423
     9  C    0.312408
    10  C   -0.008840
    11  C    0.309656
    12  C    0.122889
    13  C   -0.482737
    14  C   -0.592113
    15  H    0.189700
    16  H    0.191306
    17  H    0.171184
    18  N   -0.333250
    19  N   -0.453407
    20  O   -0.273431
    21  O   -0.261184
    22  O   -0.275382
    23  O   -0.214054
    24  C    0.197783
    25  C   -0.102773
    26  S   -0.865518
    27  C   -0.654084
    28  H    0.134026
    29  C    0.276349
    30  O   -0.237661
    31  C    0.717608
    32  C    0.429006
    33  S   -0.295198
    34  C   -0.310863
    35  O   -0.247010
    36  C   -0.266456
    37  H    0.144888
    38  H    0.191113
    39  H    0.284001
    40  H    0.284013
    41  H    0.396008
    42  H    0.378393
 Sum of Mulliken charges =  -0.00000

 Dipole moment (field-independent basis, Debye):
    X=              3.6894    Y=             -0.0766    Z=             -0.3927  Tot=              3.7110
 Quadrupole moment (field-independent basis, Debye-Ang):
   XX=           -182.8922   YY=           -194.3247   ZZ=           -198.7871
   XY=              8.7802   XZ=             -7.8820   YZ=             -6.8984

 Normal termination of Gaussian 16 at Wed Nov 18 10:15:27 2020.
