 Gaussian 16, Revision C.01,
 Gaussian 16:  ES64L-G16RevC.01  3-Jul-2019

 --------------------------------------
 # opt=modredundant wb97xd/6-311+g(d,p)
 --------------------------------------

 ----------
 NDI_50.pdb
 ----------
 Symbolic Z-matrix:
 Charge =  0 Multiplicity = 1

 SCF Done:  E(RwB97XD) =  -2201.52594579     A.U. after   19 cycles
 SCF Done:  E(RwB97XD) =  -2201.55656039     A.U. after   16 cycles
 SCF Done:  E(RwB97XD) =  -2201.56453640     A.U. after   15 cycles
 SCF Done:  E(RwB97XD) =  -2201.56754173     A.U. after   16 cycles
 SCF Done:  E(RwB97XD) =  -2201.56875824     A.U. after   16 cycles
 SCF Done:  E(RwB97XD) =  -2201.56898473     A.U. after   15 cycles
 SCF Done:  E(RwB97XD) =  -2201.56916993     A.U. after   15 cycles
 SCF Done:  E(RwB97XD) =  -2201.56929932     A.U. after   14 cycles
 SCF Done:  E(RwB97XD) =  -2201.56940003     A.U. after   15 cycles
 SCF Done:  E(RwB97XD) =  -2201.56946904     A.U. after   13 cycles
 SCF Done:  E(RwB97XD) =  -2201.56979495     A.U. after   11 cycles
 SCF Done:  E(RwB97XD) =  -2201.56979515     A.U. after   12 cycles
 SCF Done:  E(RwB97XD) =  -2201.56979533     A.U. after   11 cycles
 SCF Done:  E(RwB97XD) =  -2201.56979550     A.U. after   11 cycles
 SCF Done:  E(RwB97XD) =  -2201.56979564     A.U. after   11 cycles
 SCF Done:  E(RwB97XD) =  -2201.56979584     A.U. after   11 cycles
 SCF Done:  E(RwB97XD) =  -2201.56979614     A.U. after   11 cycles
 SCF Done:  E(RwB97XD) =  -2201.56979638     A.U. after   11 cycles
 SCF Done:  E(RwB97XD) =  -2201.56979662     A.U. after   11 cycles
 SCF Done:  E(RwB97XD) =  -2201.56979672     A.U. after   11 cycles
 Optimization completed.
    -- Stationary point found.

                         Standard orientation:
 ---------------------------------------------------------------------
 Center     Atomic      Atomic             Coordinates (Angstroms)
 Number     Number       Type             X           Y           Z
 ---------------------------------------------------------------------
      1          6           0        2.635563   -3.025229   -0.374651
      2          6           0        2.257164   -1.593218   -0.220846
      3          6           0        3.256079   -0.604415   -0.061616
      4          6           0        4.627281   -0.948821   -0.048259
      5          6           0        5.038570   -2.370685   -0.204449
      6          6           0        0.939574   -1.242856   -0.262631
      7          6           0        2.860016    0.743633    0.092343
      8          6           0        1.474045    1.093386    0.072763
      9          6           0        0.511264    0.106953   -0.141699
     10          6           0        1.111920    2.512290    0.376829
     11          6           0        3.536119    3.140186    0.450212
     12          6           0        3.883636    1.711614    0.259834
     13          6           0        5.212497    1.355551    0.263405
     14          6           0        5.592581    0.016521    0.108042
     15          1           0        6.635568   -0.275373    0.112215
     16          1           0        5.954214    2.134595    0.392199
     17          1           0        0.204173   -2.022160   -0.424544
     18          7           0        2.180436    3.398322    0.489046
     19          7           0        3.999237   -3.279322   -0.349508
     20          8           0        1.838130   -3.920820   -0.512643
     21          8           0        6.188487   -2.739503   -0.207149
     22          8           0        4.348321    4.026567    0.577714
     23          8           0       -0.006838    2.934137    0.544136
     24          6           0       -0.930395    0.339434   -0.296525
     25          6           0       -1.572481    1.223970   -1.112638
     26         16           0       -2.059024   -0.695544    0.515895
     27          6           0       -2.976574    1.085121   -1.068087
     28          1           0       -1.062424    1.955877   -1.724520
     29          6           0       -3.420137    0.091544   -0.224890
     30          8           0       -3.852435    1.832576   -1.793266
     31          6           0       -4.788937   -0.273985    0.072992
     32          6           0       -5.225446   -1.302394    0.873578
     33         16           0       -6.161618    0.596046   -0.563263
     34          6           0       -6.638750   -1.395499    0.980042
     35          8           0       -4.343500   -2.130598    1.492350
     36          6           0       -7.264929   -0.430513    0.254119
     37          1           0       -7.153713   -2.145507    1.567454
     38          1           0       -8.327164   -0.269071    0.150492
     39          1           0       -4.813229   -2.800852    1.989359
     40          1           0       -3.442033    2.659946   -2.047749
     41          1           0        4.271124   -4.248764   -0.454755
     42          1           0        1.916768    4.355859    0.684618
 ---------------------------------------------------------------------

 The electronic state is 1-A.
 Alpha  occ. eigenvalues --  -89.05423 -89.04968 -19.29604 -19.29279 -19.25793
 Alpha  occ. eigenvalues --  -19.25783 -19.25390 -19.25372 -14.50541 -14.50176
 Alpha  occ. eigenvalues --  -10.43667 -10.43665 -10.43651 -10.43199 -10.36105
 Alpha  occ. eigenvalues --  -10.36001 -10.35885 -10.35468 -10.35148 -10.35060
 Alpha  occ. eigenvalues --  -10.34615 -10.34604 -10.34442 -10.33612 -10.33594
 Alpha  occ. eigenvalues --  -10.33542 -10.33483 -10.33466 -10.32820 -10.32309
 Alpha  occ. eigenvalues --  -10.30501 -10.30168  -8.09451  -8.08990  -6.04306
 Alpha  occ. eigenvalues --   -6.03907  -6.03839  -6.03513  -6.03440  -6.03069
 Alpha  occ. eigenvalues --   -1.20147  -1.19940  -1.18672  -1.18345  -1.18343
 Alpha  occ. eigenvalues --   -1.18051  -1.07050  -1.06554  -1.03537  -1.01065
 Alpha  occ. eigenvalues --   -0.99442  -0.97845  -0.94677  -0.91055  -0.89573
 Alpha  occ. eigenvalues --   -0.87664  -0.84633  -0.83792  -0.82707  -0.81550
 Alpha  occ. eigenvalues --   -0.81169  -0.77959  -0.76774  -0.75270  -0.72744
 Alpha  occ. eigenvalues --   -0.71120  -0.70709  -0.69822  -0.68325  -0.66622
 Alpha  occ. eigenvalues --   -0.65657  -0.64497  -0.63479  -0.61660  -0.60994
 Alpha  occ. eigenvalues --   -0.59951  -0.59766  -0.59490  -0.58771  -0.57881
 Alpha  occ. eigenvalues --   -0.57479  -0.56662  -0.56497  -0.55223  -0.54956
 Alpha  occ. eigenvalues --   -0.54858  -0.54037  -0.53262  -0.53122  -0.52364
 Alpha  occ. eigenvalues --   -0.52105  -0.51789  -0.51609  -0.51477  -0.51264
 Alpha  occ. eigenvalues --   -0.49066  -0.48124  -0.47717  -0.47022  -0.46264
 Alpha  occ. eigenvalues --   -0.45417  -0.44777  -0.44261  -0.43262  -0.42049
 Alpha  occ. eigenvalues --   -0.41245  -0.40616  -0.39610  -0.39424  -0.39078
 Alpha  occ. eigenvalues --   -0.38401  -0.37766  -0.37086  -0.35411  -0.33994
 Alpha  occ. eigenvalues --   -0.32407  -0.32141  -0.26599
 Alpha virt. eigenvalues --   -0.07952  -0.01162  -0.00339   0.01684   0.02832
 Alpha virt. eigenvalues --    0.04529   0.05139   0.05488   0.06285   0.06494
 Alpha virt. eigenvalues --    0.06550   0.07077   0.07504   0.07659   0.07831

 Mulliken charges:
               1
     1  C    0.475734
     2  C   -0.189230
     3  C    0.234122
     4  C    0.189777
     5  C    0.280101
     6  C   -0.442352
     7  C    0.168717
     8  C    0.032877
     9  C    0.301723
    10  C    0.121245
    11  C    0.332157
    12  C    0.091286
    13  C   -0.454876
    14  C   -0.657194
    15  H    0.191751
    16  H    0.192236
    17  H    0.212512
    18  N   -0.441952
    19  N   -0.452744
    20  O   -0.262145
    21  O   -0.262335
    22  O   -0.272089
    23  O   -0.191445
    24  C    0.189212
    25  C   -0.441648
    26  S   -0.553855
    27  C   -0.594460
    28  H    0.147543
    29  C    0.569078
    30  O   -0.259076
    31  C    0.708817
    32  C    0.522907
    33  S   -0.325808
    34  C   -0.346816
    35  O   -0.254855
    36  C   -0.250618
    37  H    0.143277
    38  H    0.189282
    39  H    0.283604
    40  H    0.284968
    41  H    0.397699
    42  H    0.392875
 Sum of Mulliken charges =  -0.00000

 Dipole moment (field-independent basis, Debye):
    X=             -2.4555    Y=             -0.0687    Z=              0.1155  Tot=              2.4592
 Quadrupole moment (field-independent basis, Debye-Ang):
   XX=           -186.4749   YY=           -199.7729   ZZ=           -190.7748
   XY=              7.3687   XZ=             -7.8523   YZ=            -14.2945

 Normal termination of Gaussian 16 at Tue Nov 17 15:14:31 2020.
