 Gaussian 16, Revision C.01,
 Gaussian 16:  ES64L-G16RevC.01  3-Jul-2019

 --------------------------------------
 # opt=modredundant wb97xd/6-311+g(d,p)
 --------------------------------------

 ---------
 NDI_0.pdb
 ---------
 Symbolic Z-matrix:
 Charge =  0 Multiplicity = 1

 SCF Done:  E(RwB97XD) =  -2201.51142499     A.U. after   19 cycles
 SCF Done:  E(RwB97XD) =  -2201.52306720     A.U. after   20 cycles
 SCF Done:  E(RwB97XD) =  -2201.55145984     A.U. after   18 cycles
 SCF Done:  E(RwB97XD) =  -2201.55890886     A.U. after   16 cycles
 SCF Done:  E(RwB97XD) =  -2201.56300106     A.U. after   16 cycles
 SCF Done:  E(RwB97XD) =  -2201.56367195     A.U. after   14 cycles
 SCF Done:  E(RwB97XD) =  -2201.56388695     A.U. after   15 cycles
 SCF Done:  E(RwB97XD) =  -2201.56405331     A.U. after   17 cycles
 SCF Done:  E(RwB97XD) =  -2201.56426927     A.U. after   14 cycles
 SCF Done:  E(RwB97XD) =  -2201.56448588     A.U. after   16 cycles
 SCF Done:  E(RwB97XD) =  -2201.56454290     A.U. after   11 cycles
 SCF Done:  E(RwB97XD) =  -2201.56454312     A.U. after   11 cycles
 SCF Done:  E(RwB97XD) =  -2201.56454340     A.U. after   11 cycles
 SCF Done:  E(RwB97XD) =  -2201.56454364     A.U. after   11 cycles
 SCF Done:  E(RwB97XD) =  -2201.56454395     A.U. after   11 cycles
 SCF Done:  E(RwB97XD) =  -2201.56454425     A.U. after   11 cycles
 SCF Done:  E(RwB97XD) =  -2201.56454444     A.U. after   11 cycles
 SCF Done:  E(RwB97XD) =  -2201.56454467     A.U. after   11 cycles
 SCF Done:  E(RwB97XD) =  -2201.56454473     A.U. after   11 cycles
 SCF Done:  E(RwB97XD) =  -2201.56454477     A.U. after   10 cycles
 Optimization completed.
    -- Stationary point found.

                         Standard orientation:
 ---------------------------------------------------------------------
 Center     Atomic      Atomic             Coordinates (Angstroms)
 Number     Number       Type             X           Y           Z
 ---------------------------------------------------------------------
      1          6           0       -2.299926   -3.048818    0.200546
      2          6           0       -2.085721   -1.575693    0.168537
      3          6           0       -3.180234   -0.696347    0.003963
      4          6           0       -4.490020   -1.190695   -0.171134
      5          6           0       -4.737801   -2.657999   -0.161891
      6          6           0       -0.820755   -1.090885    0.264407
      7          6           0       -2.925626    0.692140    0.024374
      8          6           0       -1.590320    1.192809    0.201227
      9          6           0       -0.498571    0.302493    0.239935
     10          6           0       -1.476653    2.657004    0.438607
     11          6           0       -3.870953    3.016467   -0.167916
     12          6           0       -4.042709    1.547341   -0.167546
     13          6           0       -5.312606    1.047120   -0.356666
     14          6           0       -5.547667   -0.330510   -0.352433
     15          1           0       -6.542988   -0.734158   -0.490324
     16          1           0       -6.122030    1.751310   -0.507025
     17          1           0       -0.036960   -1.832139    0.356386
     18          7           0       -2.586206    3.429887    0.117379
     19          7           0       -3.615290   -3.452779    0.030781
     20          8           0       -1.415122   -3.855660    0.356712
     21          8           0       -5.829112   -3.154926   -0.305137
     22          8           0       -4.758335    3.812676   -0.370129
     23          8           0       -0.516808    3.223513    0.914497
     24          6           0        0.938327    0.598568    0.151942
     25          6           0        1.643083    1.772008    0.011131
     26         16           0        2.059467   -0.749645    0.147042
     27          6           0        3.031373    1.588257   -0.101812
     28          1           0        1.188577    2.747569    0.008936
     29          6           0        3.439877    0.273817   -0.040527
     30          8           0        3.932205    2.593357   -0.256897
     31          6           0        4.789561   -0.239100   -0.101365
     32          6           0        5.189825   -1.554489   -0.039783
     33         16           0        6.188508    0.793063   -0.261526
     34          6           0        6.595662   -1.735819   -0.117289
     35          8           0        4.282494   -2.555250    0.081476
     36          6           0        7.251912   -0.549928   -0.238156
     37          1           0        7.084521   -2.701467   -0.085459
     38          1           0        8.316965   -0.392868   -0.317662
     39          1           0        4.726758   -3.400906    0.150925
     40          1           0        3.504706    3.439709   -0.118571
     41          1           0       -3.778279   -4.451739    0.044235
     42          1           0       -2.461329    4.424126    0.260106
 ---------------------------------------------------------------------

 The electronic state is 1-A.
 Alpha  occ. eigenvalues --  -89.05695 -89.05498 -19.30105 -19.29683 -19.25646
 Alpha  occ. eigenvalues --  -19.25596 -19.25505 -19.25089 -14.50374 -14.50031
 Alpha  occ. eigenvalues --  -10.43684 -10.43501 -10.43450 -10.42860 -10.36736
 Alpha  occ. eigenvalues --  -10.36671 -10.36259 -10.35268 -10.34942 -10.34580
 Alpha  occ. eigenvalues --  -10.34392 -10.34282 -10.34280 -10.34266 -10.34048
 Alpha  occ. eigenvalues --  -10.33462 -10.33348 -10.33138 -10.33042 -10.32892
 Alpha  occ. eigenvalues --  -10.30646 -10.30539  -8.09748  -8.09520  -6.04605
 Alpha  occ. eigenvalues --   -6.04368  -6.04196  -6.03968  -6.03806  -6.03599
 Alpha  occ. eigenvalues --   -1.19978  -1.19938  -1.19242  -1.18826  -1.18169
 Alpha  occ. eigenvalues --   -1.17907  -1.06878  -1.06454  -1.03270  -1.01383
 Alpha  occ. eigenvalues --   -0.99783  -0.97748  -0.94392  -0.91074  -0.89356
 Alpha  occ. eigenvalues --   -0.88021  -0.85005  -0.84244  -0.82903  -0.81357
 Alpha  occ. eigenvalues --   -0.81183  -0.77855  -0.76750  -0.75202  -0.72492
 Alpha  occ. eigenvalues --   -0.71448  -0.71065  -0.70113  -0.68367  -0.66761
 Alpha  occ. eigenvalues --   -0.65835  -0.64697  -0.63806  -0.61493  -0.60931
 Alpha  occ. eigenvalues --   -0.60184  -0.59637  -0.59407  -0.58785  -0.57923
 Alpha  occ. eigenvalues --   -0.57671  -0.56977  -0.56063  -0.55160  -0.54827
 Alpha  occ. eigenvalues --   -0.54375  -0.54172  -0.54017  -0.53232  -0.52563
 Alpha  occ. eigenvalues --   -0.52091  -0.51830  -0.51761  -0.51309  -0.51043
 Alpha  occ. eigenvalues --   -0.48881  -0.48129  -0.47444  -0.47191  -0.47042
 Alpha  occ. eigenvalues --   -0.46498  -0.45285  -0.44003  -0.43308  -0.42147
 Alpha  occ. eigenvalues --   -0.41041  -0.40498  -0.39584  -0.39290  -0.38878
 Alpha  occ. eigenvalues --   -0.38517  -0.37833  -0.37135  -0.35303  -0.33923
 Alpha  occ. eigenvalues --   -0.32776  -0.32517  -0.26804
 Alpha virt. eigenvalues --   -0.07833  -0.02069  -0.00294   0.01926   0.03254
 Alpha virt. eigenvalues --    0.04394   0.05217   0.05612   0.05980   0.06408
 Alpha virt. eigenvalues --    0.06722   0.07193   0.07498   0.07971   0.08183

 Mulliken charges:
               1
     1  C    0.393572
     2  C   -0.096458
     3  C    0.048753
     4  C    0.368906
     5  C    0.322280
     6  C   -0.340157
     7  C    0.079274
     8  C    0.160609
     9  C    0.074216
    10  C   -0.073055
    11  C    0.355866
    12  C    0.222491
    13  C   -0.477393
    14  C   -0.650087
    15  H    0.190538
    16  H    0.192297
    17  H    0.193960
    18  N   -0.362483
    19  N   -0.443179
    20  O   -0.270683
    21  O   -0.261360
    22  O   -0.274344
    23  O   -0.264729
    24  C    0.238561
    25  C    0.152999
    26  S   -0.792679
    27  C   -0.658251
    28  H    0.167356
    29  C    0.188820
    30  O   -0.235819
    31  C    0.777081
    32  C    0.570609
    33  S   -0.290580
    34  C   -0.368792
    35  O   -0.242376
    36  C   -0.288617
    37  H    0.145305
    38  H    0.191817
    39  H    0.288483
    40  H    0.290111
    41  H    0.396346
    42  H    0.380793
 Sum of Mulliken charges =  -0.00000

 Dipole moment (field-independent basis, Debye):
    X=              3.8588    Y=             -0.5653    Z=             -0.2663  Tot=              3.9090
 Quadrupole moment (field-independent basis, Debye-Ang):
   XX=           -183.6152   YY=           -192.1939   ZZ=           -199.6128
   XY=             -9.3411   XZ=             -2.2895   YZ=             -0.9860

 Normal termination of Gaussian 16 at Tue Nov 17 15:37:00 2020.
