 Gaussian 16, Revision C.01,
 Gaussian 16:  ES64L-G16RevC.01  3-Jul-2019

 --------------------------------------
 # opt=modredundant wb97xd/6-311+g(d,p)
 --------------------------------------

 ------------
 NDI_-120.pdb
 ------------
 Symbolic Z-matrix:
 Charge =  0 Multiplicity = 1

 SCF Done:  E(RwB97XD) =  -2201.52157376     A.U. after   19 cycles
 SCF Done:  E(RwB97XD) =  -2201.55405260     A.U. after   16 cycles
 SCF Done:  E(RwB97XD) =  -2201.56205198     A.U. after   16 cycles
 SCF Done:  E(RwB97XD) =  -2201.56700569     A.U. after   17 cycles
 SCF Done:  E(RwB97XD) =  -2201.56835800     A.U. after   15 cycles
 SCF Done:  E(RwB97XD) =  -2201.56863364     A.U. after   15 cycles
 SCF Done:  E(RwB97XD) =  -2201.56889402     A.U. after   15 cycles
 SCF Done:  E(RwB97XD) =  -2201.56900223     A.U. after   13 cycles
 SCF Done:  E(RwB97XD) =  -2201.56902081     A.U. after   14 cycles
 SCF Done:  E(RwB97XD) =  -2201.56904090     A.U. after   12 cycles
 SCF Done:  E(RwB97XD) =  -2201.56910029     A.U. after   12 cycles
 SCF Done:  E(RwB97XD) =  -2201.56908163     A.U. after   14 cycles
 SCF Done:  E(RwB97XD) =  -2201.56366028     A.U. after   15 cycles
 SCF Done:  E(RwB97XD) =  -2201.56910237     A.U. after   13 cycles
 SCF Done:  E(RwB97XD) =  -2201.56910256     A.U. after   11 cycles
 SCF Done:  E(RwB97XD) =  -2201.56909550     A.U. after   12 cycles
 SCF Done:  E(RwB97XD) =  -2201.56910100     A.U. after   13 cycles
 SCF Done:  E(RwB97XD) =  -2201.56910220     A.U. after   13 cycles
 SCF Done:  E(RwB97XD) =  -2201.56910255     A.U. after   11 cycles
 SCF Done:  E(RwB97XD) =  -2201.56910268     A.U. after   11 cycles
 Optimization completed.
    -- Stationary point found.

                         Standard orientation:
 ---------------------------------------------------------------------
 Center     Atomic      Atomic             Coordinates (Angstroms)
 Number     Number       Type             X           Y           Z
 ---------------------------------------------------------------------
      1          6           0       -3.264168   -2.922327    0.217932
      2          6           0       -2.592740   -1.609962    0.012441
      3          6           0       -3.341006   -0.411641    0.080151
      4          6           0       -4.727960   -0.426530    0.359177
      5          6           0       -5.425682   -1.722392    0.579270
      6          6           0       -1.244422   -1.570671   -0.214311
      7          6           0       -2.681941    0.818400   -0.138975
      8          6           0       -1.285498    0.836018   -0.418114
      9          6           0       -0.559515   -0.347140   -0.415468
     10          6           0       -0.660619    2.137980   -0.805351
     11          6           0       -2.796860    3.328138   -0.279415
     12          6           0       -3.445690    2.010214   -0.056679
     13          6           0       -4.790451    1.972090    0.226021
     14          6           0       -5.439979    0.745979    0.432997
     15          1           0       -6.500040    0.704950    0.652031
     16          1           0       -5.334252    2.907205    0.284905
     17          1           0       -0.682979   -2.497525   -0.220728
     18          7           0       -1.456980    3.264356   -0.613672
     19          7           0       -4.624491   -2.852567    0.484729
     20          8           0       -2.694942   -3.985445    0.161873
     21          8           0       -6.604707   -1.816976    0.822233
     22          8           0       -3.373884    4.386702   -0.196743
     23          8           0        0.440691    2.260869   -1.279151
     24          6           0        0.904873   -0.431453   -0.564261
     25          6           0        1.591757   -1.083521   -1.543538
     26         16           0        1.959267    0.185476    0.654239
     27          6           0        2.993851   -1.041498   -1.335650
     28          1           0        1.118981   -1.556408   -2.396036
     29          6           0        3.372658   -0.392597   -0.186222
     30          8           0        3.916364   -1.602924   -2.163309
     31          6           0        4.716228   -0.181953    0.314796
     32          6           0        5.087259    0.439682    1.481979
     33         16           0        6.140514   -0.696057   -0.552113
     34          6           0        6.492008    0.511542    1.681526
     35          8           0        4.154277    0.919035    2.349010
     36          6           0        7.178503   -0.060896    0.656492
     37          1           0        6.957791    0.963118    2.548673
     38          1           0        8.248610   -0.151208    0.548121
     39          1           0        4.576255    1.454408    3.021377
     40          1           0        3.514290   -1.818592   -3.005155
     41          1           0       -5.092516   -3.738531    0.629398
     42          1           0       -1.018359    4.144493   -0.854105
 ---------------------------------------------------------------------

 The electronic state is 1-A.
 Alpha  occ. eigenvalues --  -89.04992 -89.04633 -19.29219 -19.29188 -19.25948
 Alpha  occ. eigenvalues --  -19.25932 -19.25570 -19.25564 -14.50685 -14.50269
 Alpha  occ. eigenvalues --  -10.43830 -10.43808 -10.43634 -10.43422 -10.35912
 Alpha  occ. eigenvalues --  -10.35690 -10.35559 -10.35535 -10.35336 -10.35300
 Alpha  occ. eigenvalues --  -10.34811 -10.34805 -10.34726 -10.33846 -10.33833
 Alpha  occ. eigenvalues --  -10.33758 -10.33594 -10.32879 -10.32494 -10.31928
 Alpha  occ. eigenvalues --  -10.30362 -10.29835  -8.09014  -8.08658  -6.03878
 Alpha  occ. eigenvalues --   -6.03507  -6.03475  -6.03107  -6.03063  -6.02737
 Alpha  occ. eigenvalues --   -1.20288  -1.20038  -1.18493  -1.18278  -1.18205
 Alpha  occ. eigenvalues --   -1.18188  -1.07203  -1.06695  -1.03751  -1.00832
 Alpha  occ. eigenvalues --   -0.99228  -0.97873  -0.94885  -0.91099  -0.89751
 Alpha  occ. eigenvalues --   -0.87442  -0.84238  -0.83419  -0.82855  -0.81721
 Alpha  occ. eigenvalues --   -0.81016  -0.78071  -0.76920  -0.75316  -0.72904
 Alpha  occ. eigenvalues --   -0.71048  -0.70404  -0.69639  -0.68422  -0.66675
 Alpha  occ. eigenvalues --   -0.65364  -0.64598  -0.63230  -0.61850  -0.60997
 Alpha  occ. eigenvalues --   -0.60100  -0.59905  -0.59488  -0.58742  -0.58006
 Alpha  occ. eigenvalues --   -0.57213  -0.56948  -0.56473  -0.55311  -0.55193
 Alpha  occ. eigenvalues --   -0.54894  -0.54187  -0.53293  -0.52869  -0.52342
 Alpha  occ. eigenvalues --   -0.52032  -0.51873  -0.51670  -0.51569  -0.51073
 Alpha  occ. eigenvalues --   -0.49311  -0.47899  -0.47316  -0.46611  -0.46106
 Alpha  occ. eigenvalues --   -0.45499  -0.44571  -0.44099  -0.43058  -0.41892
 Alpha  occ. eigenvalues --   -0.41360  -0.40710  -0.39684  -0.39564  -0.39090
 Alpha  occ. eigenvalues --   -0.38278  -0.37676  -0.36926  -0.35742  -0.34171
 Alpha  occ. eigenvalues --   -0.32212  -0.31859  -0.26427
 Alpha virt. eigenvalues --   -0.07972  -0.00943  -0.00226   0.01650   0.02554
 Alpha virt. eigenvalues --    0.04587   0.05063   0.05444   0.06128   0.06470
 Alpha virt. eigenvalues --    0.06553   0.06936   0.07433   0.07559   0.07781

 Mulliken charges:
               1
     1  C    0.535358
     2  C   -0.163554
     3  C    0.218009
     4  C    0.167995
     5  C    0.291187
     6  C   -0.386054
     7  C    0.135914
     8  C   -0.227626
     9  C    0.138114
    10  C    0.183401
    11  C    0.259549
    12  C    0.112766
    13  C   -0.390698
    14  C   -0.687048
    15  H    0.192706
    16  H    0.192050
    17  H    0.197740
    18  N   -0.412515
    19  N   -0.450666
    20  O   -0.260434
    21  O   -0.264407
    22  O   -0.270226
    23  O   -0.180011
    24  C    0.589222
    25  C   -0.471389
    26  S   -0.459570
    27  C   -0.429613
    28  H    0.139667
    29  C    0.367852
    30  O   -0.242087
    31  C    0.636906
    32  C    0.402170
    33  S   -0.305873
    34  C   -0.296291
    35  O   -0.272810
    36  C   -0.274187
    37  H    0.141942
    38  H    0.187809
    39  H    0.282962
    40  H    0.282586
    41  H    0.397934
    42  H    0.391221
 Sum of Mulliken charges =  -0.00000

 Dipole moment (field-independent basis, Debye):
    X=              1.5646    Y=              0.5696    Z=              0.0599  Tot=              1.6661
 Quadrupole moment (field-independent basis, Debye-Ang):
   XX=           -189.2987   YY=           -210.2320   ZZ=           -179.6218
   XY=              5.0146   XZ=             11.3291   YZ=             12.0213

 Normal termination of Gaussian 16 at Wed Nov 18 03:13:25 2020.
