 Gaussian 16, Revision C.01,
 Gaussian 16:  ES64L-G16RevC.01  3-Jul-2019

 --------------------------------------
 # opt=modredundant wb97xd/6-311+g(d,p)
 --------------------------------------

 ------------
 NDI_-100.pdb
 ------------
 Symbolic Z-matrix:
 Charge =  0 Multiplicity = 1

 SCF Done:  E(RwB97XD) =  -2201.52359728     A.U. after   19 cycles
 SCF Done:  E(RwB97XD) =  -2201.55565880     A.U. after   15 cycles
 SCF Done:  E(RwB97XD) =  -2201.56492090     A.U. after   16 cycles
 SCF Done:  E(RwB97XD) =  -2201.56821631     A.U. after   15 cycles
 SCF Done:  E(RwB97XD) =  -2201.56853683     A.U. after   15 cycles
 SCF Done:  E(RwB97XD) =  -2201.56884459     A.U. after   14 cycles
 SCF Done:  E(RwB97XD) =  -2201.56890859     A.U. after   14 cycles
 SCF Done:  E(RwB97XD) =  -2201.56893298     A.U. after   14 cycles
 SCF Done:  E(RwB97XD) =  -2201.56894046     A.U. after   12 cycles
 SCF Done:  E(RwB97XD) =  -2201.56894372     A.U. after   12 cycles
 SCF Done:  E(RwB97XD) =  -2201.56897772     A.U. after   13 cycles
 SCF Done:  E(RwB97XD) =  -2201.56897877     A.U. after    7 cycles
 SCF Done:  E(RwB97XD) =  -2201.56897915     A.U. after   12 cycles
 SCF Done:  E(RwB97XD) =  -2201.56897441     A.U. after   14 cycles
 SCF Done:  E(RwB97XD) =  -2201.56897879     A.U. after   14 cycles
 SCF Done:  E(RwB97XD) =  -2201.56897970     A.U. after   12 cycles
 SCF Done:  E(RwB97XD) =  -2201.56898017     A.U. after   11 cycles
 SCF Done:  E(RwB97XD) =  -2201.56897863     A.U. after   13 cycles
 SCF Done:  E(RwB97XD) =  -2201.56898053     A.U. after   12 cycles
 SCF Done:  E(RwB97XD) =  -2201.56898058     A.U. after   11 cycles
 Optimization completed.
    -- Stationary point found.

                         Standard orientation:
 ---------------------------------------------------------------------
 Center     Atomic      Atomic             Coordinates (Angstroms)
 Number     Number       Type             X           Y           Z
 ---------------------------------------------------------------------
      1          6           0        3.160661   -2.959465    0.026028
      2          6           0        2.538178   -1.609491    0.105063
      3          6           0        3.334934   -0.450417   -0.038769
      4          6           0        4.728441   -0.542400   -0.269646
      5          6           0        5.379115   -1.877957   -0.359977
      6          6           0        1.189543   -1.499210    0.308796
      7          6           0        2.720498    0.818773    0.050766
      8          6           0        1.318000    0.913387    0.281799
      9          6           0        0.553481   -0.237980    0.395223
     10          6           0        0.709720    2.272667    0.431319
     11          6           0        2.936399    3.325142   -0.021218
     12          6           0        3.536199    1.968529   -0.103542
     13          6           0        4.886680    1.854580   -0.331440
     14          6           0        5.490535    0.590802   -0.414149
     15          1           0        6.554341    0.490176   -0.592014
     16          1           0        5.470973    2.759636   -0.445856
     17          1           0        0.592369   -2.398817    0.400614
     18          7           0        1.577232    3.342860    0.228722
     19          7           0        4.529950   -2.964642   -0.202252
     20          8           0        2.546602   -3.991280    0.148176
     21          8           0        6.560260   -2.036392   -0.554602
     22          8           0        3.563965    4.349326   -0.152855
     23          8           0       -0.441310    2.488129    0.715399
     24          6           0       -0.912679   -0.249554    0.592152
     25          6           0       -1.588778   -0.434018    1.756882
     26         16           0       -1.976854   -0.130261   -0.759820
     27          6           0       -2.995747   -0.441062    1.563221
     28          1           0       -1.108531   -0.539928    2.721947
     29          6           0       -3.385878   -0.287486    0.257238
     30          8           0       -3.910247   -0.609436    2.557257
     31          6           0       -4.735791   -0.244109   -0.270487
     32          6           0       -5.120039   -0.124340   -1.583231
     33         16           0       -6.150193   -0.316470    0.748358
     34          6           0       -6.527190   -0.084814   -1.776200
     35          8           0       -4.197741   -0.063747   -2.582865
     36          6           0       -7.202304   -0.175598   -0.599154
     37          1           0       -7.002787    0.001711   -2.745343
     38          1           0       -8.271233   -0.175499   -0.449543
     39          1           0       -4.624006    0.170942   -3.407429
     40          1           0       -3.504541   -0.438097    3.407549
     41          1           0        4.964894   -3.877004   -0.260086
     42          1           0        1.154897    4.258357    0.320118
 ---------------------------------------------------------------------

 The electronic state is 1-A.
 Alpha  occ. eigenvalues --  -89.04882 -89.04457 -19.29032 -19.28984 -19.26005
 Alpha  occ. eigenvalues --  -19.25999 -19.25711 -19.25706 -14.50751 -14.50421
 Alpha  occ. eigenvalues --  -10.43888 -10.43884 -10.43799 -10.43559 -10.35960
 Alpha  occ. eigenvalues --  -10.35707 -10.35553 -10.35501 -10.35463 -10.35324
 Alpha  occ. eigenvalues --  -10.34928 -10.34907 -10.34880 -10.33979 -10.33894
 Alpha  occ. eigenvalues --  -10.33894 -10.33442 -10.32581 -10.32318 -10.31739
 Alpha  occ. eigenvalues --  -10.30079 -10.29673  -8.08898  -8.08482  -6.03762
 Alpha  occ. eigenvalues --   -6.03359  -6.03331  -6.02948  -6.02932  -6.02561
 Alpha  occ. eigenvalues --   -1.20358  -1.20188  -1.18562  -1.18354  -1.18065
 Alpha  occ. eigenvalues --   -1.17976  -1.07293  -1.06820  -1.03864  -1.00700
 Alpha  occ. eigenvalues --   -0.99129  -0.97854  -0.95005  -0.91103  -0.89860
 Alpha  occ. eigenvalues --   -0.87321  -0.84068  -0.83317  -0.82709  -0.81846
 Alpha  occ. eigenvalues --   -0.81010  -0.78177  -0.76950  -0.75421  -0.73033
 Alpha  occ. eigenvalues --   -0.70970  -0.70242  -0.69519  -0.68430  -0.66777
 Alpha  occ. eigenvalues --   -0.65187  -0.64614  -0.63048  -0.61956  -0.61120
 Alpha  occ. eigenvalues --   -0.60173  -0.59948  -0.59519  -0.58661  -0.58092
 Alpha  occ. eigenvalues --   -0.57225  -0.57047  -0.56466  -0.55404  -0.55273
 Alpha  occ. eigenvalues --   -0.54961  -0.54219  -0.53066  -0.52756  -0.52406
 Alpha  occ. eigenvalues --   -0.52085  -0.51978  -0.51741  -0.51510  -0.50880
 Alpha  occ. eigenvalues --   -0.49365  -0.47943  -0.47313  -0.46468  -0.45925
 Alpha  occ. eigenvalues --   -0.45097  -0.44466  -0.44134  -0.42915  -0.41767
 Alpha  occ. eigenvalues --   -0.41439  -0.40783  -0.39711  -0.39627  -0.39286
 Alpha  occ. eigenvalues --   -0.38347  -0.37700  -0.36794  -0.35751  -0.34361
 Alpha  occ. eigenvalues --   -0.32083  -0.31727  -0.26339
 Alpha virt. eigenvalues --   -0.08035  -0.00922  -0.00109   0.01751   0.02194
 Alpha virt. eigenvalues --    0.04597   0.05040   0.05562   0.06115   0.06566
 Alpha virt. eigenvalues --    0.06623   0.06866   0.07325   0.07449   0.07695

 Mulliken charges:
               1
     1  C    0.580221
     2  C   -0.152656
     3  C    0.280971
     4  C    0.162004
     5  C    0.267062
     6  C   -0.518226
     7  C    0.203909
     8  C   -0.244207
     9  C    0.221153
    10  C    0.205824
    11  C    0.275232
    12  C    0.132809
    13  C   -0.445726
    14  C   -0.739664
    15  H    0.193139
    16  H    0.192649
    17  H    0.200201
    18  N   -0.462286
    19  N   -0.452653
    20  O   -0.256042
    21  O   -0.264888
    22  O   -0.266993
    23  O   -0.144314
    24  C    0.544107
    25  C   -0.595857
    26  S   -0.241321
    27  C   -0.419693
    28  H    0.133481
    29  C    0.275726
    30  O   -0.251399
    31  C    0.593287
    32  C    0.481877
    33  S   -0.324190
    34  C   -0.317236
    35  O   -0.277191
    36  C   -0.259003
    37  H    0.141298
    38  H    0.186908
    39  H    0.282787
    40  H    0.283143
    41  H    0.398796
    42  H    0.396960
 Sum of Mulliken charges =  -0.00000

 Dipole moment (field-independent basis, Debye):
    X=             -1.0571    Y=              0.7447    Z=             -0.0968  Tot=              1.2967
 Quadrupole moment (field-independent basis, Debye-Ang):
   XX=           -190.3955   YY=           -215.6443   ZZ=           -173.6778
   XY=             -2.1500   XZ=             12.1837   YZ=             -1.9588

 Normal termination of Gaussian 16 at Wed Nov 18 00:13:19 2020.
