 Gaussian 16, Revision C.01,
 Gaussian 16:  ES64L-G16RevC.01  3-Jul-2019

 --------------------------------------
 # opt=modredundant wb97xd/6-311+g(d,p)
 --------------------------------------

 ----------
 NDI_30.pdb
 ----------
 Symbolic Z-matrix:
 Charge =  0 Multiplicity = 1

 SCF Done:  E(RwB97XD) =  -2201.52108375     A.U. after   19 cycles
 SCF Done:  E(RwB97XD) =  -2201.54145814     A.U. after   18 cycles
 SCF Done:  E(RwB97XD) =  -2201.55748471     A.U. after   17 cycles
 SCF Done:  E(RwB97XD) =  -2201.56487549     A.U. after   15 cycles
 SCF Done:  E(RwB97XD) =  -2201.56712721     A.U. after   14 cycles
 SCF Done:  E(RwB97XD) =  -2201.56724020     A.U. after   14 cycles
 SCF Done:  E(RwB97XD) =  -2201.56775851     A.U. after   14 cycles
 SCF Done:  E(RwB97XD) =  -2201.56810987     A.U. after   17 cycles
 SCF Done:  E(RwB97XD) =  -2201.56825820     A.U. after   13 cycles
 SCF Done:  E(RwB97XD) =  -2201.56838686     A.U. after   14 cycles
 SCF Done:  E(RwB97XD) =  -2201.56874385     A.U. after   11 cycles
 SCF Done:  E(RwB97XD) =  -2201.56874404     A.U. after   11 cycles
 SCF Done:  E(RwB97XD) =  -2201.56874420     A.U. after   11 cycles
 SCF Done:  E(RwB97XD) =  -2201.56874441     A.U. after   11 cycles
 SCF Done:  E(RwB97XD) =  -2201.56874468     A.U. after   11 cycles
 SCF Done:  E(RwB97XD) =  -2201.56874503     A.U. after   11 cycles
 SCF Done:  E(RwB97XD) =  -2201.56874531     A.U. after   11 cycles
 SCF Done:  E(RwB97XD) =  -2201.56874557     A.U. after   11 cycles
 SCF Done:  E(RwB97XD) =  -2201.56874577     A.U. after   11 cycles
 SCF Done:  E(RwB97XD) =  -2201.56874586     A.U. after   10 cycles
 Optimization completed.
    -- Stationary point found.

                         Standard orientation:
 ---------------------------------------------------------------------
 Center     Atomic      Atomic             Coordinates (Angstroms)
 Number     Number       Type             X           Y           Z
 ---------------------------------------------------------------------
      1          6           0        2.540785   -3.048834   -0.231697
      2          6           0        2.208795   -1.601995   -0.114465
      3          6           0        3.239906   -0.635481   -0.049399
      4          6           0        4.599309   -1.015932   -0.103481
      5          6           0        4.964786   -2.453424   -0.225476
      6          6           0        0.902328   -1.217695   -0.114289
      7          6           0        2.882394    0.725746    0.077394
      8          6           0        1.504860    1.112417    0.124306
      9          6           0        0.502238    0.146154   -0.019406
     10          6           0        1.212716    2.536977    0.466012
     11          6           0        3.641918    3.114037    0.294349
     12          6           0        3.938877    1.670996    0.140104
     13          6           0        5.257283    1.280868    0.073297
     14          6           0        5.596581   -0.071416   -0.047619
     15          1           0        6.630477   -0.390218   -0.095477
     16          1           0        6.022544    2.046265    0.120430
     17          1           0        0.150849   -1.990757   -0.224265
     18          7           0        2.300043    3.405888    0.434829
     19          7           0        3.896479   -3.338934   -0.272672
     20          8           0        1.714133   -3.926885   -0.288972
     21          8           0        6.102842   -2.853825   -0.279895
     22          8           0        4.480512    3.984730    0.320662
     23          8           0        0.134503    2.981115    0.784124
     24          6           0       -0.930094    0.397402   -0.192920
     25          6           0       -1.574069    1.451666   -0.780084
     26         16           0       -2.077732   -0.778973    0.378344
     27          6           0       -2.975005    1.312574   -0.775331
     28          1           0       -1.069340    2.301359   -1.215942
     29          6           0       -3.428044    0.158021   -0.173610
     30          8           0       -3.845141    2.205040   -1.319243
     31          6           0       -4.799385   -0.260588    0.017203
     32          6           0       -5.246401   -1.426735    0.593217
     33         16           0       -6.163830    0.711483   -0.473270
     34          6           0       -6.660661   -1.543627    0.643347
     35          8           0       -4.372535   -2.353801    1.062551
     36          6           0       -7.276618   -0.458473    0.101237
     37          1           0       -7.183650   -2.394016    1.062794
     38          1           0       -8.337464   -0.283030    0.006039
     39          1           0       -4.846040   -3.115917    1.397333
     40          1           0       -3.421701    3.059511   -1.411501
     41          1           0        4.137895   -4.318636   -0.354165
     42          1           0        2.076265    4.369642    0.648518
 ---------------------------------------------------------------------

 The electronic state is 1-A.
 Alpha  occ. eigenvalues --  -89.05622 -89.05231 -19.29871 -19.29505 -19.25703
 Alpha  occ. eigenvalues --  -19.25675 -19.25278 -19.25237 -14.50442 -14.50059
 Alpha  occ. eigenvalues --  -10.43583 -10.43568 -10.43535 -10.43028 -10.36332
 Alpha  occ. eigenvalues --  -10.36218 -10.36137 -10.35330 -10.34923 -10.34824
 Alpha  occ. eigenvalues --  -10.34457 -10.34434 -10.34226 -10.33918 -10.33816
 Alpha  occ. eigenvalues --  -10.33504 -10.33338 -10.33257 -10.33086 -10.32590
 Alpha  occ. eigenvalues --  -10.30732 -10.30407  -8.09657  -8.09252  -6.04511
 Alpha  occ. eigenvalues --   -6.04111  -6.04101  -6.03722  -6.03701  -6.03331
 Alpha  occ. eigenvalues --   -1.20044  -1.19839  -1.18968  -1.18605  -1.18240
 Alpha  occ. eigenvalues --   -1.17921  -1.06938  -1.06442  -1.03387  -1.01251
 Alpha  occ. eigenvalues --   -0.99621  -0.97801  -0.94517  -0.91055  -0.89440
 Alpha  occ. eigenvalues --   -0.87844  -0.84874  -0.84032  -0.82778  -0.81413
 Alpha  occ. eigenvalues --   -0.81191  -0.77863  -0.76727  -0.75200  -0.72595
 Alpha  occ. eigenvalues --   -0.71275  -0.70916  -0.69964  -0.68285  -0.66639
 Alpha  occ. eigenvalues --   -0.65825  -0.64515  -0.63695  -0.61551  -0.60948
 Alpha  occ. eigenvalues --   -0.59912  -0.59678  -0.59516  -0.58732  -0.57812
 Alpha  occ. eigenvalues --   -0.57613  -0.56624  -0.56355  -0.55164  -0.54839
 Alpha  occ. eigenvalues --   -0.54750  -0.53992  -0.53568  -0.53199  -0.52367
 Alpha  occ. eigenvalues --   -0.52205  -0.51796  -0.51619  -0.51322  -0.51281
 Alpha  occ. eigenvalues --   -0.48969  -0.48145  -0.47846  -0.47222  -0.46436
 Alpha  occ. eigenvalues --   -0.45938  -0.45018  -0.44154  -0.43271  -0.42257
 Alpha  occ. eigenvalues --   -0.41122  -0.40524  -0.39575  -0.39334  -0.38928
 Alpha  occ. eigenvalues --   -0.38486  -0.37791  -0.37127  -0.35298  -0.33882
 Alpha  occ. eigenvalues --   -0.32575  -0.32327  -0.26695
 Alpha virt. eigenvalues --   -0.07914  -0.01530  -0.00318   0.01803   0.03029
 Alpha virt. eigenvalues --    0.04439   0.05145   0.05525   0.06134   0.06536
 Alpha virt. eigenvalues --    0.06636   0.07159   0.07552   0.07819   0.07989

 Mulliken charges:
               1
     1  C    0.427701
     2  C   -0.195208
     3  C    0.252650
     4  C    0.183514
     5  C    0.260702
     6  C   -0.187315
     7  C    0.182150
     8  C    0.167415
     9  C    0.210153
    10  C   -0.076298
    11  C    0.332770
    12  C    0.073866
    13  C   -0.458302
    14  C   -0.591742
    15  H    0.190773
    16  H    0.192006
    17  H    0.201538
    18  N   -0.392829
    19  N   -0.450383
    20  O   -0.266802
    21  O   -0.261405
    22  O   -0.274176
    23  O   -0.224249
    24  C    0.145810
    25  C   -0.265330
    26  S   -0.683138
    27  C   -0.671287
    28  H    0.147933
    29  C    0.419270
    30  O   -0.249571
    31  C    0.812591
    32  C    0.540164
    33  S   -0.312365
    34  C   -0.361327
    35  O   -0.249134
    36  C   -0.261895
    37  H    0.144387
    38  H    0.190638
    39  H    0.285352
    40  H    0.287632
    41  H    0.397427
    42  H    0.386316
 Sum of Mulliken charges =  -0.00000

 Dipole moment (field-independent basis, Debye):
    X=             -3.1922    Y=             -0.2645    Z=             -0.0540  Tot=              3.2036
 Quadrupole moment (field-independent basis, Debye-Ang):
   XX=           -184.6847   YY=           -195.9950   ZZ=           -195.3086
   XY=              8.5688   XZ=             -4.6844   YZ=            -10.9998

 Normal termination of Gaussian 16 at Tue Nov 17 18:03:51 2020.
