 Gaussian 16, Revision C.01,
 Gaussian 16:  ES64L-G16RevC.01  3-Jul-2019

 --------------------------------------
 # opt=modredundant wb97xd/6-311+g(d,p)
 --------------------------------------

 -----------
 NDI_120.pdb
 -----------
 Symbolic Z-matrix:
 Charge =  0 Multiplicity = 1

 SCF Done:  E(RwB97XD) =  -2201.52436843     A.U. after   19 cycles
 SCF Done:  E(RwB97XD) =  -2201.55602631     A.U. after   18 cycles
 SCF Done:  E(RwB97XD) =  -2201.56459409     A.U. after   15 cycles
 SCF Done:  E(RwB97XD) =  -2201.56739008     A.U. after   18 cycles
 SCF Done:  E(RwB97XD) =  -2201.56851421     A.U. after   16 cycles
 SCF Done:  E(RwB97XD) =  -2201.56870581     A.U. after   15 cycles
 SCF Done:  E(RwB97XD) =  -2201.56889777     A.U. after   14 cycles
 SCF Done:  E(RwB97XD) =  -2201.56895322     A.U. after   14 cycles
 SCF Done:  E(RwB97XD) =  -2201.56898762     A.U. after   14 cycles
 SCF Done:  E(RwB97XD) =  -2201.56899950     A.U. after   13 cycles
 SCF Done:  E(RwB97XD) =  -2201.56909560     A.U. after   12 cycles
 SCF Done:  E(RwB97XD) =  -2201.56909663     A.U. after   11 cycles
 SCF Done:  E(RwB97XD) =  -2201.56909833     A.U. after   13 cycles
 SCF Done:  E(RwB97XD) =  -2201.56909951     A.U. after   11 cycles
 SCF Done:  E(RwB97XD) =  -2201.56910072     A.U. after   11 cycles
 SCF Done:  E(RwB97XD) =  -2201.56910210     A.U. after   11 cycles
 SCF Done:  E(RwB97XD) =  -2201.56910263     A.U. after   11 cycles
 SCF Done:  E(RwB97XD) =  -2201.56910283     A.U. after   10 cycles
 SCF Done:  E(RwB97XD) =  -2201.56910294     A.U. after   10 cycles
 SCF Done:  E(RwB97XD) =  -2201.56910296     A.U. after   10 cycles
 Optimization completed.
    -- Stationary point found.

                         Standard orientation:
 ---------------------------------------------------------------------
 Center     Atomic      Atomic             Coordinates (Angstroms)
 Number     Number       Type             X           Y           Z
 ---------------------------------------------------------------------
      1          6           0        3.264117   -2.922324    0.217642
      2          6           0        2.592727   -1.609917    0.012303
      3          6           0        3.341038   -0.411635    0.080076
      4          6           0        4.728030   -0.426611    0.358920
      5          6           0        5.425742   -1.722526    0.578757
      6          6           0        1.244400   -1.570560   -0.214403
      7          6           0        2.681991    0.818459   -0.138804
      8          6           0        1.285521    0.836160   -0.417798
      9          6           0        0.559534   -0.346986   -0.415401
     10          6           0        0.660542    2.138268   -0.804412
     11          6           0        2.797013    3.328212   -0.278996
     12          6           0        3.445799    2.010238   -0.056471
     13          6           0        4.790599    1.972023    0.226019
     14          6           0        5.440101    0.745858    0.432777
     15          1           0        6.500191    0.704766    0.651654
     16          1           0        5.334467    2.907097    0.284909
     17          1           0        0.682923   -2.497390   -0.220931
     18          7           0        1.456949    3.264580   -0.612578
     19          7           0        4.624497   -2.852658    0.484176
     20          8           0        2.694841   -3.985411    0.161527
     21          8           0        6.604803   -1.817179    0.821518
     22          8           0        3.374165    4.386721   -0.196552
     23          8           0       -0.440912    2.261316   -1.277828
     24          6           0       -0.904873   -0.431243   -0.564306
     25          6           0       -1.591728   -1.082540   -1.544091
     26         16           0       -1.959262    0.184700    0.654706
     27          6           0       -2.993838   -1.040734   -1.336128
     28          1           0       -1.118963   -1.554816   -2.396932
     29          6           0       -3.372663   -0.392652   -0.186262
     30          8           0       -3.916329   -1.601581   -2.164205
     31          6           0       -4.716284   -0.182143    0.314711
     32          6           0       -5.087358    0.438058    1.482637
     33         16           0       -6.140539   -0.694323   -0.553354
     34          6           0       -6.492129    0.510038    1.682012
     35          8           0       -4.154452    0.916103    2.350468
     36          6           0       -7.178602   -0.060566    0.655941
     37          1           0       -6.957930    0.960570    2.549687
     38          1           0       -8.248717   -0.150298    0.547165
     39          1           0       -4.576679    1.449303    3.024429
     40          1           0       -3.514426   -1.815874   -3.006482
     41          1           0        5.092489   -3.738656    0.628712
     42          1           0        1.018342    4.144785   -0.852798
 ---------------------------------------------------------------------

 The electronic state is 1-A.
 Alpha  occ. eigenvalues --  -89.04992 -89.04632 -19.29219 -19.29187 -19.25948
 Alpha  occ. eigenvalues --  -19.25932 -19.25570 -19.25564 -14.50686 -14.50269
 Alpha  occ. eigenvalues --  -10.43830 -10.43809 -10.43634 -10.43422 -10.35912
 Alpha  occ. eigenvalues --  -10.35688 -10.35560 -10.35535 -10.35337 -10.35301
 Alpha  occ. eigenvalues --  -10.34812 -10.34805 -10.34727 -10.33846 -10.33833
 Alpha  occ. eigenvalues --  -10.33758 -10.33594 -10.32878 -10.32493 -10.31927
 Alpha  occ. eigenvalues --  -10.30361 -10.29835  -8.09013  -8.08657  -6.03877
 Alpha  occ. eigenvalues --   -6.03506  -6.03475  -6.03106  -6.03062  -6.02736
 Alpha  occ. eigenvalues --   -1.20288  -1.20038  -1.18493  -1.18277  -1.18205
 Alpha  occ. eigenvalues --   -1.18188  -1.07203  -1.06695  -1.03751  -1.00832
 Alpha  occ. eigenvalues --   -0.99228  -0.97873  -0.94886  -0.91099  -0.89751
 Alpha  occ. eigenvalues --   -0.87442  -0.84237  -0.83419  -0.82854  -0.81722
 Alpha  occ. eigenvalues --   -0.81016  -0.78071  -0.76920  -0.75316  -0.72904
 Alpha  occ. eigenvalues --   -0.71048  -0.70403  -0.69639  -0.68422  -0.66676
 Alpha  occ. eigenvalues --   -0.65363  -0.64598  -0.63230  -0.61850  -0.60997
 Alpha  occ. eigenvalues --   -0.60100  -0.59905  -0.59488  -0.58742  -0.58006
 Alpha  occ. eigenvalues --   -0.57212  -0.56949  -0.56473  -0.55311  -0.55193
 Alpha  occ. eigenvalues --   -0.54894  -0.54187  -0.53293  -0.52868  -0.52342
 Alpha  occ. eigenvalues --   -0.52032  -0.51873  -0.51670  -0.51570  -0.51072
 Alpha  occ. eigenvalues --   -0.49311  -0.47899  -0.47315  -0.46611  -0.46105
 Alpha  occ. eigenvalues --   -0.45498  -0.44570  -0.44100  -0.43058  -0.41892
 Alpha  occ. eigenvalues --   -0.41360  -0.40711  -0.39684  -0.39565  -0.39090
 Alpha  occ. eigenvalues --   -0.38278  -0.37675  -0.36926  -0.35742  -0.34171
 Alpha  occ. eigenvalues --   -0.32211  -0.31858  -0.26427
 Alpha virt. eigenvalues --   -0.07972  -0.00943  -0.00225   0.01650   0.02554
 Alpha virt. eigenvalues --    0.04587   0.05063   0.05444   0.06128   0.06471
 Alpha virt. eigenvalues --    0.06553   0.06936   0.07433   0.07559   0.07780

 Mulliken charges:
               1
     1  C    0.535555
     2  C   -0.163627
     3  C    0.218115
     4  C    0.167958
     5  C    0.291192
     6  C   -0.386416
     7  C    0.135967
     8  C   -0.227891
     9  C    0.138111
    10  C    0.183572
    11  C    0.259390
    12  C    0.112878
    13  C   -0.390641
    14  C   -0.687165
    15  H    0.192707
    16  H    0.192051
    17  H    0.197756
    18  N   -0.412481
    19  N   -0.450673
    20  O   -0.260419
    21  O   -0.264404
    22  O   -0.270203
    23  O   -0.179957
    24  C    0.589530
    25  C   -0.471167
    26  S   -0.459299
    27  C   -0.430076
    28  H    0.139648
    29  C    0.367299
    30  O   -0.242154
    31  C    0.636368
    32  C    0.403291
    33  S   -0.306150
    34  C   -0.296516
    35  O   -0.272733
    36  C   -0.273809
    37  H    0.141924
    38  H    0.187804
    39  H    0.282944
    40  H    0.282579
    41  H    0.397936
    42  H    0.391207
 Sum of Mulliken charges =  -0.00000

 Dipole moment (field-independent basis, Debye):
    X=             -1.5634    Y=              0.5689    Z=              0.0617  Tot=              1.6648
 Quadrupole moment (field-independent basis, Debye-Ang):
   XX=           -189.2983   YY=           -210.2658   ZZ=           -179.5837
   XY=             -5.0035   XZ=            -11.3361   YZ=             11.9991

 Normal termination of Gaussian 16 at Tue Nov 17 22:41:02 2020.
