 Gaussian 16, Revision C.01,
 Gaussian 16:  ES64L-G16RevC.01  3-Jul-2019

 --------------------------------------
 # opt=modredundant wb97xd/6-311+g(d,p)
 --------------------------------------

 ------------
 NDI_-160.pdb
 ------------
 Symbolic Z-matrix:
 Charge =  0 Multiplicity = 1

 SCF Done:  E(RwB97XD) =  -2201.49301549     A.U. after   19 cycles
 SCF Done:  E(RwB97XD) =  -2201.52586141     A.U. after   20 cycles
 SCF Done:  E(RwB97XD) =  -2201.55318180     A.U. after   17 cycles
 SCF Done:  E(RwB97XD) =  -2201.56038938     A.U. after   16 cycles
 SCF Done:  E(RwB97XD) =  -2201.56345142     A.U. after   19 cycles
 SCF Done:  E(RwB97XD) =  -2201.56395706     A.U. after   16 cycles
 SCF Done:  E(RwB97XD) =  -2201.56411272     A.U. after   15 cycles
 SCF Done:  E(RwB97XD) =  -2201.56437645     A.U. after   15 cycles
 SCF Done:  E(RwB97XD) =  -2201.56461528     A.U. after   18 cycles
 SCF Done:  E(RwB97XD) =  -2201.56475591     A.U. after   17 cycles
 SCF Done:  E(RwB97XD) =  -2201.56616384     A.U. after   12 cycles
 SCF Done:  E(RwB97XD) =  -2201.56616501     A.U. after   12 cycles
 SCF Done:  E(RwB97XD) =  -2201.56616664     A.U. after   13 cycles
 SCF Done:  E(RwB97XD) =  -2201.56616783     A.U. after   11 cycles
 SCF Done:  E(RwB97XD) =  -2201.56616900     A.U. after   13 cycles
 SCF Done:  E(RwB97XD) =  -2201.56616948     A.U. after   12 cycles
 SCF Done:  E(RwB97XD) =  -2201.56617007     A.U. after   13 cycles
 SCF Done:  E(RwB97XD) =  -2201.56617031     A.U. after   11 cycles
 SCF Done:  E(RwB97XD) =  -2201.56617058     A.U. after   11 cycles
 SCF Done:  E(RwB97XD) =  -2201.56617066     A.U. after   11 cycles
 Optimization completed.
    -- Stationary point found.

                         Standard orientation:
 ---------------------------------------------------------------------
 Center     Atomic      Atomic             Coordinates (Angstroms)
 Number     Number       Type             X           Y           Z
 ---------------------------------------------------------------------
      1          6           0       -3.290581   -2.905607    0.171521
      2          6           0       -2.609937   -1.600821   -0.048667
      3          6           0       -3.332544   -0.391563    0.079998
      4          6           0       -4.699239   -0.387242    0.436774
      5          6           0       -5.407047   -1.675001    0.668994
      6          6           0       -1.274221   -1.582537   -0.323052
      7          6           0       -2.655919    0.824677   -0.155814
      8          6           0       -1.273980    0.821127   -0.510996
      9          6           0       -0.554869   -0.374796   -0.541785
     10          6           0       -0.695712    2.108599   -0.994133
     11          6           0       -2.736595    3.337931   -0.247897
     12          6           0       -3.391336    2.028097   -0.005990
     13          6           0       -4.718534    2.011118    0.357365
     14          6           0       -5.382976    0.797335    0.577105
     15          1           0       -6.429134    0.773356    0.856480
     16          1           0       -5.235246    2.956959    0.467257
     17          1           0       -0.749210   -2.529053   -0.330943
     18          7           0       -1.434360    3.252326   -0.701822
     19          7           0       -4.633049   -2.818041    0.508639
     20          8           0       -2.742363   -3.977322    0.069618
     21          8           0       -6.572548   -1.756284    0.974130
     22          8           0       -3.280583    4.406604   -0.094640
     23          8           0        0.322470    2.210049   -1.633978
     24          6           0        0.904449   -0.515647   -0.629850
     25          6           0        1.566788   -1.647165   -1.043348
     26         16           0        1.997364    0.569725    0.157138
     27          6           0        2.949334   -1.608742   -0.778939
     28          1           0        1.086108   -2.475577   -1.550048
     29          6           0        3.356846   -0.475736   -0.109363
     30          8           0        3.837885   -2.582132   -1.114955
     31          6           0        4.699203   -0.129491    0.305543
     32          6           0        5.098854    0.985757    1.003814
     33         16           0        6.088175   -1.123726   -0.054634
     34          6           0        6.497095    1.050026    1.243230
     35          8           0        4.197146    1.913332    1.417523
     36          6           0        7.148968   -0.024495    0.722669
     37          1           0        6.982975    1.855078    1.780261
     38          1           0        8.207007   -0.234984    0.760958
     39          1           0        4.650564    2.682634    1.763531
     40          1           0        3.426513   -3.217355   -1.701727
     41          1           0       -5.109411   -3.697889    0.662682
     42          1           0       -1.011276    4.121928   -1.000889
 ---------------------------------------------------------------------

 The electronic state is 1-A.
 Alpha  occ. eigenvalues --  -89.05359 -89.05174 -19.29770 -19.29662 -19.25801
 Alpha  occ. eigenvalues --  -19.25721 -19.25189 -19.25177 -14.50503 -14.49912
 Alpha  occ. eigenvalues --  -10.43666 -10.43581 -10.43285 -10.43009 -10.36233
 Alpha  occ. eigenvalues --  -10.36181 -10.36088 -10.35209 -10.34821 -10.34728
 Alpha  occ. eigenvalues --  -10.34471 -10.34438 -10.34258 -10.34045 -10.33766
 Alpha  occ. eigenvalues --  -10.33651 -10.33369 -10.33315 -10.33027 -10.32529
 Alpha  occ. eigenvalues --  -10.31080 -10.30338  -8.09382  -8.09197  -6.04241
 Alpha  occ. eigenvalues --   -6.04046  -6.03832  -6.03646  -6.03440  -6.03276
 Alpha  occ. eigenvalues --   -1.20094  -1.19695  -1.18867  -1.18728  -1.18296
 Alpha  occ. eigenvalues --   -1.17829  -1.06969  -1.06373  -1.03420  -1.01221
 Alpha  occ. eigenvalues --   -0.99584  -0.97822  -0.94528  -0.91114  -0.89445
 Alpha  occ. eigenvalues --   -0.87745  -0.84780  -0.83884  -0.83085  -0.81405
 Alpha  occ. eigenvalues --   -0.80983  -0.77856  -0.76783  -0.75083  -0.72555
 Alpha  occ. eigenvalues --   -0.71385  -0.70802  -0.69960  -0.68392  -0.66414
 Alpha  occ. eigenvalues --   -0.65890  -0.64612  -0.63710  -0.61586  -0.60721
 Alpha  occ. eigenvalues --   -0.59957  -0.59699  -0.59417  -0.58765  -0.57832
 Alpha  occ. eigenvalues --   -0.57550  -0.56519  -0.56307  -0.55122  -0.54932
 Alpha  occ. eigenvalues --   -0.54742  -0.54106  -0.53794  -0.53245  -0.52304
 Alpha  occ. eigenvalues --   -0.52039  -0.51910  -0.51656  -0.51312  -0.51252
 Alpha  occ. eigenvalues --   -0.49134  -0.47875  -0.47417  -0.46843  -0.46765
 Alpha  occ. eigenvalues --   -0.46310  -0.45040  -0.44009  -0.43407  -0.42231
 Alpha  occ. eigenvalues --   -0.41021  -0.40486  -0.39525  -0.39381  -0.38762
 Alpha  occ. eigenvalues --   -0.38291  -0.37865  -0.37082  -0.35397  -0.33845
 Alpha  occ. eigenvalues --   -0.32525  -0.32159  -0.26662
 Alpha virt. eigenvalues --   -0.07834  -0.01534  -0.00239   0.01770   0.03070
 Alpha virt. eigenvalues --    0.04350   0.05165   0.05340   0.06158   0.06364
 Alpha virt. eigenvalues --    0.06511   0.07266   0.07638   0.07833   0.07975

 Mulliken charges:
               1
     1  C    0.410527
     2  C   -0.108886
     3  C    0.190471
     4  C    0.195003
     5  C    0.286536
     6  C   -0.080462
     7  C    0.116304
     8  C   -0.064143
     9  C    0.231857
    10  C    0.007440
    11  C    0.298848
    12  C    0.095388
    13  C   -0.457267
    14  C   -0.576665
    15  H    0.190668
    16  H    0.191448
    17  H    0.181910
    18  N   -0.347202
    19  N   -0.453993
    20  O   -0.269125
    21  O   -0.261724
    22  O   -0.274389
    23  O   -0.213705
    24  C    0.250206
    25  C   -0.225928
    26  S   -0.783057
    27  C   -0.452028
    28  H    0.144676
    29  C    0.352124
    30  O   -0.238900
    31  C    0.717988
    32  C    0.398072
    33  S   -0.286813
    34  C   -0.311606
    35  O   -0.258841
    36  C   -0.274800
    37  H    0.144072
    38  H    0.190449
    39  H    0.283779
    40  H    0.282997
    41  H    0.396083
    42  H    0.382688
 Sum of Mulliken charges =  -0.00000

 Dipole moment (field-independent basis, Debye):
    X=              3.0683    Y=              0.0883    Z=              0.3406  Tot=              3.0884
 Quadrupole moment (field-independent basis, Debye-Ang):
   XX=           -185.0504   YY=           -198.2107   ZZ=           -193.6645
   XY=              7.4897   XZ=              9.9487   YZ=             12.7977

 Normal termination of Gaussian 16 at Tue Nov 17 15:26:48 2020.
