 Gaussian 16, Revision C.01,
 Gaussian 16:  ES64L-G16RevC.01  3-Jul-2019

 --------------------------------------
 # opt=modredundant wb97xd/6-311+g(d,p)
 --------------------------------------

 ----------
 NDI_80.pdb
 ----------
 Symbolic Z-matrix:
 Charge =  0 Multiplicity = 1

 SCF Done:  E(RwB97XD) =  -2201.52401411     A.U. after   18 cycles
 SCF Done:  E(RwB97XD) =  -2201.55561441     A.U. after   16 cycles
 SCF Done:  E(RwB97XD) =  -2201.56442713     A.U. after   15 cycles
 SCF Done:  E(RwB97XD) =  -2201.56796223     A.U. after   15 cycles
 SCF Done:  E(RwB97XD) =  -2201.56835282     A.U. after   15 cycles
 SCF Done:  E(RwB97XD) =  -2201.56867348     A.U. after   15 cycles
 SCF Done:  E(RwB97XD) =  -2201.56875117     A.U. after   14 cycles
 SCF Done:  E(RwB97XD) =  -2201.56879035     A.U. after   15 cycles
 SCF Done:  E(RwB97XD) =  -2201.56880642     A.U. after   14 cycles
 SCF Done:  E(RwB97XD) =  -2201.56881746     A.U. after   14 cycles
 SCF Done:  E(RwB97XD) =  -2201.56907337     A.U. after   11 cycles
 SCF Done:  E(RwB97XD) =  -2201.56907347     A.U. after   11 cycles
 SCF Done:  E(RwB97XD) =  -2201.56907357     A.U. after   10 cycles
 SCF Done:  E(RwB97XD) =  -2201.56907375     A.U. after   10 cycles
 SCF Done:  E(RwB97XD) =  -2201.56907390     A.U. after   10 cycles
 SCF Done:  E(RwB97XD) =  -2201.56907406     A.U. after   11 cycles
 SCF Done:  E(RwB97XD) =  -2201.56907422     A.U. after   11 cycles
 SCF Done:  E(RwB97XD) =  -2201.56907441     A.U. after   11 cycles
 SCF Done:  E(RwB97XD) =  -2201.56907454     A.U. after   11 cycles
 SCF Done:  E(RwB97XD) =  -2201.56907458     A.U. after    9 cycles
 Optimization completed.
    -- Stationary point found.

                         Standard orientation:
 ---------------------------------------------------------------------
 Center     Atomic      Atomic             Coordinates (Angstroms)
 Number     Number       Type             X           Y           Z
 ---------------------------------------------------------------------
      1          6           0        2.971259   -2.983589   -0.324927
      2          6           0        2.436291   -1.596915   -0.238189
      3          6           0        3.313139   -0.509119   -0.020531
      4          6           0        4.707384   -0.708531    0.119331
      5          6           0        5.272632   -2.083088    0.038249
      6          6           0        1.092899   -1.382958   -0.381916
      7          6           0        2.778141    0.796188    0.060811
      8          6           0        1.374473    0.998710   -0.081129
      9          6           0        0.538017   -0.081839   -0.320237
     10          6           0        0.836569    2.387715    0.068026
     11          6           0        3.163309    3.262274    0.379584
     12          6           0        3.675626    1.871922    0.280684
     13          6           0        5.026584    1.654635    0.410699
     14          6           0        5.549640    0.355540    0.330225
     15          1           0        6.612451    0.173138    0.432980
     16          1           0        5.674428    2.506855    0.576957
     17          1           0        0.439397   -2.229030   -0.559904
     18          7           0        1.792036    3.383028    0.257604
     19          7           0        4.346838   -3.095003   -0.174811
     20          8           0        2.285126   -3.958590   -0.511906
     21          8           0        6.449414   -2.331204    0.146693
     22          8           0        3.865273    4.229777    0.556947
     23          8           0       -0.330566    2.687178    0.042626
     24          6           0       -0.921287    0.027147   -0.529948
     25          6           0       -1.571423    0.382029   -1.669755
     26         16           0       -2.017039   -0.447733    0.715208
     27          6           0       -2.981301    0.302511   -1.529227
     28          1           0       -1.069446    0.701456   -2.574634
     29          6           0       -3.401973   -0.127346   -0.295991
     30          8           0       -3.872387    0.593470   -2.516530
     31          6           0       -4.763457   -0.287966    0.175656
     32          6           0       -5.177316   -0.765010    1.394943
     33         16           0       -6.153498    0.150493   -0.783321
     34          6           0       -6.587726   -0.776810    1.566545
     35          8           0       -4.278139   -1.187199    2.325336
     36          6           0       -7.235207   -0.305226    0.467561
     37          1           0       -7.085378   -1.124754    2.463319
     38          1           0       -8.300011   -0.208123    0.320013
     39          1           0       -4.724223   -1.371936    3.152102
     40          1           0       -3.460348    1.157024   -3.172126
     41          1           0        4.723068   -4.033184   -0.231566
     42          1           0        1.419120    4.319133    0.354990
 ---------------------------------------------------------------------

 The electronic state is 1-A.
 Alpha  occ. eigenvalues --  -89.05003 -89.04510 -19.29100 -19.28976 -19.25979
 Alpha  occ. eigenvalues --  -19.25962 -19.25709 -19.25688 -14.50720 -14.50430
 Alpha  occ. eigenvalues --  -10.43860 -10.43847 -10.43827 -10.43548 -10.35982
 Alpha  occ. eigenvalues --  -10.35694 -10.35528 -10.35480 -10.35464 -10.35402
 Alpha  occ. eigenvalues --  -10.34903 -10.34878 -10.34846 -10.33938 -10.33865
 Alpha  occ. eigenvalues --  -10.33863 -10.33432 -10.32671 -10.32363 -10.31804
 Alpha  occ. eigenvalues --  -10.30067 -10.29731  -8.09017  -8.08534  -6.03879
 Alpha  occ. eigenvalues --   -6.03476  -6.03383  -6.03072  -6.02984  -6.02613
 Alpha  occ. eigenvalues --   -1.20329  -1.20189  -1.18533  -1.18350  -1.18126
 Alpha  occ. eigenvalues --   -1.17986  -1.07267  -1.06809  -1.03836  -1.00744
 Alpha  occ. eigenvalues --   -0.99161  -0.97865  -0.94980  -0.91096  -0.89837
 Alpha  occ. eigenvalues --   -0.87354  -0.84162  -0.83380  -0.82641  -0.81823
 Alpha  occ. eigenvalues --   -0.81073  -0.78161  -0.76920  -0.75418  -0.73013
 Alpha  occ. eigenvalues --   -0.70964  -0.70306  -0.69547  -0.68414  -0.66778
 Alpha  occ. eigenvalues --   -0.65250  -0.64582  -0.63091  -0.61923  -0.61137
 Alpha  occ. eigenvalues --   -0.60156  -0.59916  -0.59515  -0.58685  -0.58079
 Alpha  occ. eigenvalues --   -0.57251  -0.57032  -0.56461  -0.55389  -0.55237
 Alpha  occ. eigenvalues --   -0.54964  -0.54183  -0.53008  -0.52810  -0.52431
 Alpha  occ. eigenvalues --   -0.52118  -0.51917  -0.51780  -0.51525  -0.50898
 Alpha  occ. eigenvalues --   -0.49320  -0.47966  -0.47486  -0.46535  -0.45951
 Alpha  occ. eigenvalues --   -0.44925  -0.44528  -0.44232  -0.42983  -0.41730
 Alpha  occ. eigenvalues --   -0.41453  -0.40773  -0.39699  -0.39597  -0.39322
 Alpha  occ. eigenvalues --   -0.38375  -0.37733  -0.36882  -0.35630  -0.34331
 Alpha  occ. eigenvalues --   -0.32138  -0.31778  -0.26379
 Alpha virt. eigenvalues --   -0.08028  -0.00931  -0.00115   0.01717   0.02223
 Alpha virt. eigenvalues --    0.04563   0.05071   0.05545   0.06213   0.06546
 Alpha virt. eigenvalues --    0.06603   0.06905   0.07309   0.07490   0.07679

 Mulliken charges:
               1
     1  C    0.559006
     2  C   -0.153319
     3  C    0.278212
     4  C    0.150530
     5  C    0.254957
     6  C   -0.558119
     7  C    0.210153
     8  C   -0.090143
     9  C    0.272482
    10  C    0.089178
    11  C    0.289662
    12  C    0.118331
    13  C   -0.430614
    14  C   -0.684276
    15  H    0.192824
    16  H    0.192554
    17  H    0.204963
    18  N   -0.468783
    19  N   -0.454862
    20  O   -0.256007
    21  O   -0.264181
    22  O   -0.266547
    23  O   -0.121062
    24  C    0.390944
    25  C   -0.561957
    26  S   -0.294279
    27  C   -0.475898
    28  H    0.133594
    29  C    0.367194
    30  O   -0.261051
    31  C    0.593447
    32  C    0.532565
    33  S   -0.333396
    34  C   -0.329024
    35  O   -0.272339
    36  C   -0.244499
    37  H    0.141480
    38  H    0.187163
    39  H    0.282514
    40  H    0.283277
    41  H    0.398682
    42  H    0.396644
 Sum of Mulliken charges =  -0.00000

 Dipole moment (field-independent basis, Debye):
    X=             -1.1751    Y=              0.6141    Z=              0.2359  Tot=              1.3467
 Quadrupole moment (field-independent basis, Debye-Ang):
   XX=           -189.7076   YY=           -212.0775   ZZ=           -177.4043
   XY=              2.1898   XZ=            -11.8021   YZ=            -10.8524

 Normal termination of Gaussian 16 at Wed Nov 18 01:50:02 2020.
