 Gaussian 16, Revision C.01,
 Gaussian 16:  ES64L-G16RevC.01  3-Jul-2019

 --------------------------------------
 # opt=modredundant wb97xd/6-311+g(d,p)
 --------------------------------------

 -----------
 NDI_-50.pdb
 -----------
 Symbolic Z-matrix:
 Charge =  0 Multiplicity = 1

 SCF Done:  E(RwB97XD) =  -2201.52848954     A.U. after   19 cycles
 SCF Done:  E(RwB97XD) =  -2201.55857200     A.U. after   16 cycles
 SCF Done:  E(RwB97XD) =  -2201.56534197     A.U. after   16 cycles
 SCF Done:  E(RwB97XD) =  -2201.56887890     A.U. after   15 cycles
 SCF Done:  E(RwB97XD) =  -2201.56942515     A.U. after   14 cycles
 SCF Done:  E(RwB97XD) =  -2201.56954765     A.U. after   14 cycles
 SCF Done:  E(RwB97XD) =  -2201.56969948     A.U. after   13 cycles
 SCF Done:  E(RwB97XD) =  -2201.56972812     A.U. after   14 cycles
 SCF Done:  E(RwB97XD) =  -2201.56974963     A.U. after   13 cycles
 SCF Done:  E(RwB97XD) =  -2201.56976193     A.U. after   14 cycles
 SCF Done:  E(RwB97XD) =  -2201.56979229     A.U. after   13 cycles
 SCF Done:  E(RwB97XD) =  -2201.56979269     A.U. after   13 cycles
 SCF Done:  E(RwB97XD) =  -2201.56979327     A.U. after   11 cycles
 SCF Done:  E(RwB97XD) =  -2201.56979418     A.U. after   13 cycles
 SCF Done:  E(RwB97XD) =  -2201.56979508     A.U. after   13 cycles
 SCF Done:  E(RwB97XD) =  -2201.56979560     A.U. after   13 cycles
 SCF Done:  E(RwB97XD) =  -2201.56979620     A.U. after   12 cycles
 SCF Done:  E(RwB97XD) =  -2201.56979654     A.U. after   13 cycles
 SCF Done:  E(RwB97XD) =  -2201.56979661     A.U. after   10 cycles
 SCF Done:  E(RwB97XD) =  -2201.56979665     A.U. after   10 cycles
 Optimization completed.
    -- Stationary point found.

                         Standard orientation:
 ---------------------------------------------------------------------
 Center     Atomic      Atomic             Coordinates (Angstroms)
 Number     Number       Type             X           Y           Z
 ---------------------------------------------------------------------
      1          6           0        2.635268   -3.025109    0.375476
      2          6           0        2.257030   -1.593095    0.221440
      3          6           0        3.256013   -0.604462    0.061710
      4          6           0        4.627165   -0.949076    0.047905
      5          6           0        5.038270   -2.371009    0.203966
      6          6           0        0.939484   -1.242558    0.263457
      7          6           0        2.860087    0.743629   -0.092247
      8          6           0        1.474174    1.093561   -0.072403
      9          6           0        0.511290    0.107265    0.142302
     10          6           0        1.112183    2.512534   -0.376306
     11          6           0        3.536452    3.140058   -0.450398
     12          6           0        3.883805    1.711452   -0.260107
     13          6           0        5.212611    1.355189   -0.264049
     14          6           0        5.592551    0.016102   -0.108814
     15          1           0        6.635493   -0.275947   -0.113399
     16          1           0        5.954399    2.134130   -0.393053
     17          1           0        0.204048   -2.021748    0.425736
     18          7           0        2.180809    3.398258   -0.489707
     19          7           0        3.998880   -3.279449    0.349714
     20          8           0        1.837740   -3.920547    0.513990
     21          8           0        6.188134   -2.740027    0.205968
     22          8           0        4.348754    4.026427   -0.577414
     23          8           0       -0.006610    2.934670   -0.542725
     24          6           0       -0.930391    0.339793    0.296968
     25          6           0       -1.572757    1.224296    1.112821
     26         16           0       -2.058789   -0.695623   -0.515449
     27          6           0       -2.976858    1.085324    1.067910
     28          1           0       -1.063071    1.956460    1.724693
     29          6           0       -3.420157    0.091615    0.224792
     30          8           0       -3.852854    1.832718    1.793123
     31          6           0       -4.788868   -0.274031   -0.073318
     32          6           0       -5.225230   -1.302199   -0.874300
     33         16           0       -6.161690    0.595548    0.563309
     34          6           0       -6.638524   -1.395523   -0.980728
     35          8           0       -4.343175   -2.129965   -1.493462
     36          6           0       -7.264842   -0.430878   -0.254487
     37          1           0       -7.153374   -2.145384   -1.568426
     38          1           0       -8.327097   -0.269596   -0.150811
     39          1           0       -4.812756   -2.801072   -1.989461
     40          1           0       -3.444134    2.662215    2.043391
     41          1           0        4.270693   -4.248906    0.454927
     42          1           0        1.917170    4.355895   -0.684799
 ---------------------------------------------------------------------

 The electronic state is 1-A.
 Alpha  occ. eigenvalues --  -89.05422 -89.04969 -19.29606 -19.29274 -19.25793
 Alpha  occ. eigenvalues --  -19.25783 -19.25390 -19.25372 -14.50541 -14.50177
 Alpha  occ. eigenvalues --  -10.43668 -10.43665 -10.43651 -10.43199 -10.36105
 Alpha  occ. eigenvalues --  -10.36003 -10.35881 -10.35469 -10.35149 -10.35060
 Alpha  occ. eigenvalues --  -10.34615 -10.34604 -10.34442 -10.33612 -10.33594
 Alpha  occ. eigenvalues --  -10.33542 -10.33483 -10.33468 -10.32820 -10.32310
 Alpha  occ. eigenvalues --  -10.30500 -10.30169  -8.09451  -8.08991  -6.04306
 Alpha  occ. eigenvalues --   -6.03907  -6.03840  -6.03513  -6.03440  -6.03070
 Alpha  occ. eigenvalues --   -1.20147  -1.19940  -1.18674  -1.18344  -1.18337
 Alpha  occ. eigenvalues --   -1.18051  -1.07050  -1.06554  -1.03537  -1.01064
 Alpha  occ. eigenvalues --   -0.99442  -0.97845  -0.94677  -0.91055  -0.89573
 Alpha  occ. eigenvalues --   -0.87664  -0.84632  -0.83792  -0.82708  -0.81550
 Alpha  occ. eigenvalues --   -0.81168  -0.77960  -0.76773  -0.75270  -0.72745
 Alpha  occ. eigenvalues --   -0.71119  -0.70709  -0.69822  -0.68325  -0.66622
 Alpha  occ. eigenvalues --   -0.65658  -0.64496  -0.63480  -0.61661  -0.60993
 Alpha  occ. eigenvalues --   -0.59951  -0.59765  -0.59490  -0.58771  -0.57882
 Alpha  occ. eigenvalues --   -0.57480  -0.56662  -0.56498  -0.55224  -0.54956
 Alpha  occ. eigenvalues --   -0.54859  -0.54038  -0.53258  -0.53120  -0.52364
 Alpha  occ. eigenvalues --   -0.52105  -0.51790  -0.51609  -0.51477  -0.51264
 Alpha  occ. eigenvalues --   -0.49066  -0.48124  -0.47718  -0.47022  -0.46264
 Alpha  occ. eigenvalues --   -0.45411  -0.44776  -0.44262  -0.43261  -0.42042
 Alpha  occ. eigenvalues --   -0.41245  -0.40615  -0.39609  -0.39424  -0.39079
 Alpha  occ. eigenvalues --   -0.38401  -0.37766  -0.37086  -0.35411  -0.33995
 Alpha  occ. eigenvalues --   -0.32409  -0.32142  -0.26602
 Alpha virt. eigenvalues --   -0.07952  -0.01161  -0.00339   0.01684   0.02831
 Alpha virt. eigenvalues --    0.04530   0.05139   0.05489   0.06284   0.06495
 Alpha virt. eigenvalues --    0.06549   0.07077   0.07504   0.07659   0.07830

 Mulliken charges:
               1
     1  C    0.475861
     2  C   -0.189263
     3  C    0.234304
     4  C    0.189666
     5  C    0.279977
     6  C   -0.442615
     7  C    0.169149
     8  C    0.032631
     9  C    0.301745
    10  C    0.121653
    11  C    0.332431
    12  C    0.091369
    13  C   -0.454946
    14  C   -0.657293
    15  H    0.191752
    16  H    0.192236
    17  H    0.212504
    18  N   -0.442340
    19  N   -0.452749
    20  O   -0.262143
    21  O   -0.262344
    22  O   -0.272107
    23  O   -0.191508
    24  C    0.188349
    25  C   -0.440760
    26  S   -0.553914
    27  C   -0.596196
    28  H    0.147673
    29  C    0.570072
    30  O   -0.259309
    31  C    0.709123
    32  C    0.523395
    33  S   -0.325827
    34  C   -0.346840
    35  O   -0.254853
    36  C   -0.250661
    37  H    0.143285
    38  H    0.189288
    39  H    0.283595
    40  H    0.284971
    41  H    0.397710
    42  H    0.392927
 Sum of Mulliken charges =  -0.00000

 Dipole moment (field-independent basis, Debye):
    X=             -2.4575    Y=             -0.0681    Z=             -0.1230  Tot=              2.4615
 Quadrupole moment (field-independent basis, Debye-Ang):
   XX=           -186.4584   YY=           -199.7450   ZZ=           -190.8114
   XY=              7.3584   XZ=              7.8709   YZ=             14.2729

 Normal termination of Gaussian 16 at Tue Nov 17 14:11:03 2020.
