 Gaussian 16, Revision C.01,
 Gaussian 16:  ES64L-G16RevC.01  3-Jul-2019

 --------------------------------------
 # opt=modredundant wb97xd/6-311+g(d,p)
 --------------------------------------

 -----------
 NDI_-10.pdb
 -----------
 Symbolic Z-matrix:
 Charge =  0 Multiplicity = 1

 SCF Done:  E(RwB97XD) =  -2201.51778357     A.U. after   19 cycles
 SCF Done:  E(RwB97XD) =  -2201.53052973     A.U. after   19 cycles
 SCF Done:  E(RwB97XD) =  -2201.55376458     A.U. after   18 cycles
 SCF Done:  E(RwB97XD) =  -2201.56133557     A.U. after   16 cycles
 SCF Done:  E(RwB97XD) =  -2201.56463882     A.U. after   17 cycles
 SCF Done:  E(RwB97XD) =  -2201.56521875     A.U. after   15 cycles
 SCF Done:  E(RwB97XD) =  -2201.56533039     A.U. after   15 cycles
 SCF Done:  E(RwB97XD) =  -2201.56558901     A.U. after   16 cycles
 SCF Done:  E(RwB97XD) =  -2201.56571632     A.U. after   15 cycles
 SCF Done:  E(RwB97XD) =  -2201.56577810     A.U. after   16 cycles
 SCF Done:  E(RwB97XD) =  -2201.56583761     A.U. after   12 cycles
 SCF Done:  E(RwB97XD) =  -2201.56583872     A.U. after   11 cycles
 SCF Done:  E(RwB97XD) =  -2201.56583955     A.U. after   12 cycles
 SCF Done:  E(RwB97XD) =  -2201.56583993     A.U. after   12 cycles
 SCF Done:  E(RwB97XD) =  -2201.56584008     A.U. after   11 cycles
 SCF Done:  E(RwB97XD) =  -2201.56584016     A.U. after   10 cycles
 SCF Done:  E(RwB97XD) =  -2201.56584022     A.U. after   10 cycles
 SCF Done:  E(RwB97XD) =  -2201.56584025     A.U. after   10 cycles
 SCF Done:  E(RwB97XD) =  -2201.56584029     A.U. after   10 cycles
 SCF Done:  E(RwB97XD) =  -2201.56584033     A.U. after   10 cycles
 Optimization completed.
    -- Stationary point found.

                         Standard orientation:
 ---------------------------------------------------------------------
 Center     Atomic      Atomic             Coordinates (Angstroms)
 Number     Number       Type             X           Y           Z
 ---------------------------------------------------------------------
      1          6           0        2.396201   -3.059194    0.019004
      2          6           0        2.135656   -1.593969   -0.029153
      3          6           0        3.209021   -0.674737    0.024244
      4          6           0        4.543274   -1.119501    0.143450
      5          6           0        4.838230   -2.576959    0.200885
      6          6           0        0.850833   -1.151711   -0.074370
      7          6           0        2.912194    0.703995   -0.049405
      8          6           0        1.555519    1.154971   -0.163915
      9          6           0        0.496990    0.231260   -0.117258
     10          6           0        1.368508    2.599693   -0.479351
     11          6           0        3.787445    3.062840   -0.058959
     12          6           0        4.009553    1.601703    0.020881
     13          6           0        5.303686    1.149695    0.155274
     14          6           0        5.580798   -0.219679    0.212874
     15          1           0        6.595115   -0.586258    0.310228
     16          1           0        6.099060    1.883066    0.212002
     17          1           0        0.078156   -1.910663   -0.052615
     18          7           0        2.474760    3.421304   -0.289185
     19          7           0        3.732475   -3.413753    0.126186
     20          8           0        1.530417   -3.899597   -0.028659
     21          8           0        5.952025   -3.032596    0.302479
     22          8           0        4.659086    3.895352    0.037797
     23          8           0        0.355284    3.103167   -0.909780
     24          6           0       -0.932914    0.510407    0.047887
     25          6           0       -1.605897    1.661820    0.373571
     26         16           0       -2.077418   -0.780018   -0.237491
     27          6           0       -3.001184    1.500950    0.419816
     28          1           0       -1.127778    2.603855    0.585841
     29          6           0       -3.438255    0.232187    0.103263
     30          8           0       -3.883167    2.481247    0.748327
     31          6           0       -4.801526   -0.243909    0.040378
     32          6           0       -5.231268   -1.515093   -0.264407
     33         16           0       -6.178979    0.781950    0.353161
     34          6           0       -6.642593   -1.668397   -0.248930
     35          8           0       -4.344822   -2.501454   -0.550198
     36          6           0       -7.273269   -0.505565    0.069564
     37          1           0       -7.153376   -2.598430   -0.464923
     38          1           0       -8.335921   -0.335471    0.154041
     39          1           0       -4.805461   -3.324133   -0.718387
     40          1           0       -3.451369    3.335830    0.711797
     41          1           0        3.926594   -4.406573    0.162470
     42          1           0        2.310082    4.401222   -0.481968
 ---------------------------------------------------------------------

 The electronic state is 1-A.
 Alpha  occ. eigenvalues --  -89.05719 -89.05442 -19.30067 -19.29677 -19.25644
 Alpha  occ. eigenvalues --  -19.25600 -19.25328 -19.25124 -14.50375 -14.50005
 Alpha  occ. eigenvalues --  -10.43579 -10.43502 -10.43455 -10.42901 -10.36596
 Alpha  occ. eigenvalues --  -10.36484 -10.36292 -10.35244 -10.34837 -10.34629
 Alpha  occ. eigenvalues --  -10.34312 -10.34305 -10.34226 -10.34159 -10.34075
 Alpha  occ. eigenvalues --  -10.33461 -10.33292 -10.33181 -10.33085 -10.32822
 Alpha  occ. eigenvalues --  -10.30754 -10.30597  -8.09765  -8.09463  -6.04619
 Alpha  occ. eigenvalues --   -6.04312  -6.04215  -6.03911  -6.03828  -6.03542
 Alpha  occ. eigenvalues --   -1.19975  -1.19838  -1.19193  -1.18810  -1.18170
 Alpha  occ. eigenvalues --   -1.17870  -1.06869  -1.06406  -1.03284  -1.01376
 Alpha  occ. eigenvalues --   -0.99757  -0.97756  -0.94404  -0.91064  -0.89354
 Alpha  occ. eigenvalues --   -0.87987  -0.85012  -0.84210  -0.82859  -0.81338
 Alpha  occ. eigenvalues --   -0.81187  -0.77826  -0.76722  -0.75170  -0.72491
 Alpha  occ. eigenvalues --   -0.71417  -0.71051  -0.70079  -0.68309  -0.66724
 Alpha  occ. eigenvalues --   -0.65866  -0.64611  -0.63815  -0.61497  -0.60921
 Alpha  occ. eigenvalues --   -0.60005  -0.59624  -0.59478  -0.58721  -0.57879
 Alpha  occ. eigenvalues --   -0.57637  -0.56770  -0.56143  -0.55133  -0.54800
 Alpha  occ. eigenvalues --   -0.54583  -0.54031  -0.53869  -0.53221  -0.52484
 Alpha  occ. eigenvalues --   -0.52231  -0.51793  -0.51762  -0.51249  -0.51098
 Alpha  occ. eigenvalues --   -0.48905  -0.48144  -0.47719  -0.47301  -0.46652
 Alpha  occ. eigenvalues --   -0.46449  -0.45225  -0.44068  -0.43236  -0.42315
 Alpha  occ. eigenvalues --   -0.41049  -0.40473  -0.39564  -0.39281  -0.38809
 Alpha  occ. eigenvalues --   -0.38572  -0.37808  -0.37130  -0.35263  -0.33875
 Alpha  occ. eigenvalues --   -0.32708  -0.32466  -0.26765
 Alpha virt. eigenvalues --   -0.07868  -0.01908  -0.00274   0.01910   0.03172
 Alpha virt. eigenvalues --    0.04387   0.05164   0.05590   0.06012   0.06487
 Alpha virt. eigenvalues --    0.06712   0.07219   0.07539   0.07958   0.08143

 Mulliken charges:
               1
     1  C    0.401109
     2  C   -0.162408
     3  C    0.151708
     4  C    0.222695
     5  C    0.259453
     6  C   -0.165823
     7  C    0.148309
     8  C    0.179455
     9  C    0.123894
    10  C   -0.226988
    11  C    0.367061
    12  C    0.103071
    13  C   -0.455307
    14  C   -0.508255
    15  H    0.189967
    16  H    0.191941
    17  H    0.192538
    18  N   -0.356328
    19  N   -0.448102
    20  O   -0.271161
    21  O   -0.260147
    22  O   -0.273881
    23  O   -0.254977
    24  C    0.075870
    25  C    0.078112
    26  S   -0.740415
    27  C   -0.656126
    28  H    0.151098
    29  C    0.251936
    30  O   -0.240130
    31  C    0.831721
    32  C    0.600105
    33  S   -0.300038
    34  C   -0.381298
    35  O   -0.242883
    36  C   -0.267053
    37  H    0.145182
    38  H    0.191706
    39  H    0.286626
    40  H    0.290454
    41  H    0.397243
    42  H    0.380067
 Sum of Mulliken charges =  -0.00000

 Dipole moment (field-independent basis, Debye):
    X=             -3.7427    Y=             -0.4470    Z=              0.2272  Tot=              3.7761
 Quadrupole moment (field-independent basis, Debye-Ang):
   XX=           -183.6017   YY=           -193.2197   ZZ=           -198.4677
   XY=              9.2413   XZ=              0.8066   YZ=              5.8936

 Normal termination of Gaussian 16 at Tue Nov 17 14:35:55 2020.
