 Gaussian 16, Revision C.01,
 Gaussian 16:  ES64L-G16RevC.01  3-Jul-2019

 --------------------------------------
 # opt=modredundant wb97xd/6-311+g(d,p)
 --------------------------------------

 -----------
 NDI_-20.pdb
 -----------
 Symbolic Z-matrix:
 Charge =  0 Multiplicity = 1

 SCF Done:  E(RwB97XD) =  -2201.52437931     A.U. after   19 cycles
 SCF Done:  E(RwB97XD) =  -2201.54627331     A.U. after   18 cycles
 SCF Done:  E(RwB97XD) =  -2201.55062942     A.U. after   18 cycles
 SCF Done:  E(RwB97XD) =  -2201.56523118     A.U. after   18 cycles
 SCF Done:  E(RwB97XD) =  -2201.56682451     A.U. after   15 cycles
 SCF Done:  E(RwB97XD) =  -2201.56702688     A.U. after   16 cycles
 SCF Done:  E(RwB97XD) =  -2201.56716720     A.U. after   15 cycles
 SCF Done:  E(RwB97XD) =  -2201.56730268     A.U. after   14 cycles
 SCF Done:  E(RwB97XD) =  -2201.56737691     A.U. after   16 cycles
 SCF Done:  E(RwB97XD) =  -2201.56741540     A.U. after   12 cycles
 SCF Done:  E(RwB97XD) =  -2201.56743314     A.U. after   13 cycles
 SCF Done:  E(RwB97XD) =  -2201.56743635     A.U. after   13 cycles
 SCF Done:  E(RwB97XD) =  -2201.56743876     A.U. after   14 cycles
 SCF Done:  E(RwB97XD) =  -2201.56743977     A.U. after   11 cycles
 SCF Done:  E(RwB97XD) =  -2201.56744155     A.U. after   13 cycles
 SCF Done:  E(RwB97XD) =  -2201.56744281     A.U. after   13 cycles
 SCF Done:  E(RwB97XD) =  -2201.56744343     A.U. after   12 cycles
 SCF Done:  E(RwB97XD) =  -2201.56744354     A.U. after   10 cycles
 SCF Done:  E(RwB97XD) =  -2201.56744360     A.U. after    9 cycles
 SCF Done:  E(RwB97XD) =  -2201.56744364     A.U. after   10 cycles
 Optimization completed.
    -- Stationary point found.

                         Standard orientation:
 ---------------------------------------------------------------------
 Center     Atomic      Atomic             Coordinates (Angstroms)
 Number     Number       Type             X           Y           Z
 ---------------------------------------------------------------------
      1          6           0        2.476670   -3.056441    0.138796
      2          6           0        2.176241   -1.600694    0.051252
      3          6           0        3.227058   -0.653693    0.038409
      4          6           0        4.576327   -1.061766    0.121795
      5          6           0        4.910707   -2.508845    0.215276
      6          6           0        0.878756   -1.191104    0.032549
      7          6           0        2.896158    0.715862   -0.064873
      8          6           0        1.526883    1.130348   -0.142162
      9          6           0        0.498817    0.181622   -0.040980
     10          6           0        1.281599    2.563045   -0.480866
     11          6           0        3.707960    3.093731   -0.189726
     12          6           0        3.971792    1.641712   -0.068075
     13          6           0        5.280541    1.225104    0.029621
     14          6           0        5.592398   -0.135450    0.122205
     15          1           0        6.618423   -0.474734    0.192483
     16          1           0        6.059903    1.977619    0.029274
     17          1           0        0.117265   -1.958431    0.107665
     18          7           0        2.378138    3.413628   -0.375165
     19          7           0        3.824807   -3.374234    0.208314
     20          8           0        1.631961   -3.919125    0.150599
     21          8           0        6.038824   -2.933238    0.290710
     22          8           0        4.561976    3.949229   -0.158614
     23          8           0        0.232110    3.030620   -0.858929
     24          6           0       -0.930904    0.444775    0.136621
     25          6           0       -1.586098    1.555870    0.598570
     26         16           0       -2.079803   -0.790227   -0.305697
     27          6           0       -2.984632    1.409012    0.613766
     28          1           0       -1.092414    2.454153    0.935285
     29          6           0       -3.432920    0.192688    0.143540
     30          8           0       -3.858414    2.351941    1.056131
     31          6           0       -4.801829   -0.253228    0.009234
     32          6           0       -5.244039   -1.476929   -0.437490
     33         16           0       -6.170226    0.755323    0.406868
     34          6           0       -6.657584   -1.608296   -0.462729
     35          8           0       -4.366792   -2.441662   -0.813750
     36          6           0       -7.277667   -0.476361   -0.032319
     37          1           0       -7.177237   -2.501667   -0.785826
     38          1           0       -8.339145   -0.299338    0.052558
     39          1           0       -4.836640   -3.236014   -1.069656
     40          1           0       -3.431158    3.209297    1.077384
     41          1           0        4.045313   -4.360267    0.270335
     42          1           0        2.180819    4.384188   -0.583941
 ---------------------------------------------------------------------

 The electronic state is 1-A.
 Alpha  occ. eigenvalues --  -89.05691 -89.05347 -19.29980 -19.29599 -19.25667
 Alpha  occ. eigenvalues --  -19.25631 -19.25281 -19.25175 -14.50401 -14.50023
 Alpha  occ. eigenvalues --  -10.43569 -10.43528 -10.43488 -10.42958 -10.36479
 Alpha  occ. eigenvalues --  -10.36324 -10.36234 -10.35276 -10.34855 -10.34719
 Alpha  occ. eigenvalues --  -10.34381 -10.34361 -10.34140 -10.34101 -10.33968
 Alpha  occ. eigenvalues --  -10.33476 -10.33251 -10.33203 -10.33161 -10.32719
 Alpha  occ. eigenvalues --  -10.30782 -10.30513  -8.09731  -8.09368  -6.04584
 Alpha  occ. eigenvalues --   -6.04217  -6.04183  -6.03816  -6.03796  -6.03447
 Alpha  occ. eigenvalues --   -1.20002  -1.19822  -1.19092  -1.18716  -1.18198
 Alpha  occ. eigenvalues --   -1.17883  -1.06895  -1.06412  -1.03328  -1.01326
 Alpha  occ. eigenvalues --   -0.99699  -0.97777  -0.94452  -0.91059  -0.89388
 Alpha  occ. eigenvalues --   -0.87923  -0.84960  -0.84134  -0.82819  -0.81364
 Alpha  occ. eigenvalues --   -0.81191  -0.77835  -0.76717  -0.75178  -0.72534
 Alpha  occ. eigenvalues --   -0.71350  -0.70995  -0.70024  -0.68286  -0.66678
 Alpha  occ. eigenvalues --   -0.65862  -0.64553  -0.63771  -0.61518  -0.60931
 Alpha  occ. eigenvalues --   -0.59937  -0.59644  -0.59508  -0.58717  -0.57835
 Alpha  occ. eigenvalues --   -0.57631  -0.56678  -0.56246  -0.55143  -0.54807
 Alpha  occ. eigenvalues --   -0.54685  -0.53999  -0.53712  -0.53217  -0.52411
 Alpha  occ. eigenvalues --   -0.52239  -0.51787  -0.51705  -0.51272  -0.51183
 Alpha  occ. eigenvalues --   -0.48935  -0.48139  -0.47841  -0.47281  -0.46507
 Alpha  occ. eigenvalues --   -0.46212  -0.45133  -0.44119  -0.43240  -0.42325
 Alpha  occ. eigenvalues --   -0.41077  -0.40490  -0.39564  -0.39300  -0.38859
 Alpha  occ. eigenvalues --   -0.38538  -0.37798  -0.37132  -0.35268  -0.33864
 Alpha  occ. eigenvalues --   -0.32648  -0.32403  -0.26738
 Alpha virt. eigenvalues --   -0.07893  -0.01724  -0.00292   0.01862   0.03097
 Alpha virt. eigenvalues --    0.04408   0.05149   0.05558   0.06066   0.06519
 Alpha virt. eigenvalues --    0.06679   0.07196   0.07554   0.07895   0.08073

 Mulliken charges:
               1
     1  C    0.415116
     2  C   -0.187403
     3  C    0.224162
     4  C    0.185484
     5  C    0.249166
     6  C   -0.119438
     7  C    0.175946
     8  C    0.192814
     9  C    0.158859
    10  C   -0.184537
    11  C    0.347007
    12  C    0.069840
    13  C   -0.449035
    14  C   -0.532511
    15  H    0.190233
    16  H    0.191897
    17  H    0.195908
    18  N   -0.370662
    19  N   -0.449550
    20  O   -0.269136
    21  O   -0.260680
    22  O   -0.274428
    23  O   -0.240124
    24  C    0.078242
    25  C   -0.099100
    26  S   -0.720982
    27  C   -0.674951
    28  H    0.148163
    29  C    0.334199
    30  O   -0.244646
    31  C    0.845710
    32  C    0.573223
    33  S   -0.307355
    34  C   -0.374154
    35  O   -0.245603
    36  C   -0.262918
    37  H    0.144848
    38  H    0.191293
    39  H    0.285820
    40  H    0.289087
    41  H    0.397390
    42  H    0.382805
 Sum of Mulliken charges =  -0.00000

 Dipole moment (field-independent basis, Debye):
    X=             -3.5039    Y=             -0.3520    Z=              0.1273  Tot=              3.5238
 Quadrupole moment (field-independent basis, Debye-Ang):
   XX=           -183.9992   YY=           -194.4999   ZZ=           -197.0598
   XY=              8.9594   XZ=              2.9592   YZ=              8.6852

 Normal termination of Gaussian 16 at Tue Nov 17 13:50:33 2020.
