 Gaussian 16, Revision C.01,
 Gaussian 16:  ES64L-G16RevC.01  3-Jul-2019

 --------------------------------------
 # opt=modredundant wb97xd/6-311+g(d,p)
 --------------------------------------

 -----------
 NDI_130.pdb
 -----------
 Symbolic Z-matrix:
 Charge =  0 Multiplicity = 1

 SCF Done:  E(RwB97XD) =  -2201.52168223     A.U. after   19 cycles
 SCF Done:  E(RwB97XD) =  -2201.55325567     A.U. after   19 cycles
 SCF Done:  E(RwB97XD) =  -2201.55657228     A.U. after   17 cycles
 SCF Done:  E(RwB97XD) =  -2201.56743237     A.U. after   17 cycles
 SCF Done:  E(RwB97XD) =  -2201.56842789     A.U. after   16 cycles
 SCF Done:  E(RwB97XD) =  -2201.56847842     A.U. after   15 cycles
 SCF Done:  E(RwB97XD) =  -2201.56872323     A.U. after   14 cycles
 SCF Done:  E(RwB97XD) =  -2201.56879654     A.U. after   14 cycles
 SCF Done:  E(RwB97XD) =  -2201.56884134     A.U. after   14 cycles
 SCF Done:  E(RwB97XD) =  -2201.56885025     A.U. after   12 cycles
 SCF Done:  E(RwB97XD) =  -2201.56891547     A.U. after   15 cycles
 SCF Done:  E(RwB97XD) =  -2201.56891829     A.U. after   12 cycles
 SCF Done:  E(RwB97XD) =  -2201.56892037     A.U. after   13 cycles
 SCF Done:  E(RwB97XD) =  -2201.56892137     A.U. after   11 cycles
 SCF Done:  E(RwB97XD) =  -2201.56892258     A.U. after   13 cycles
 SCF Done:  E(RwB97XD) =  -2201.56892595     A.U. after   13 cycles
 SCF Done:  E(RwB97XD) =  -2201.56892760     A.U. after   11 cycles
 SCF Done:  E(RwB97XD) =  -2201.56892824     A.U. after   11 cycles
 SCF Done:  E(RwB97XD) =  -2201.56892855     A.U. after   11 cycles
 SCF Done:  E(RwB97XD) =  -2201.56892880     A.U. after   11 cycles
 Optimization completed.
    -- Stationary point found.

                         Standard orientation:
 ---------------------------------------------------------------------
 Center     Atomic      Atomic             Coordinates (Angstroms)
 Number     Number       Type             X           Y           Z
 ---------------------------------------------------------------------
      1          6           0        3.276859   -2.913966    0.258813
      2          6           0        2.599522   -1.608998    0.028054
      3          6           0        3.339173   -0.404683    0.089066
      4          6           0        4.721713   -0.406125    0.387042
      5          6           0        5.424988   -1.694165    0.633283
      6          6           0        1.253325   -1.581715   -0.207880
      7          6           0        2.673805    0.816632   -0.157139
      8          6           0        1.280766    0.820844   -0.455158
      9          6           0        0.558784   -0.366176   -0.432150
     10          6           0        0.666826    2.107065   -0.905080
     11          6           0        2.774373    3.324481   -0.333999
     12          6           0        3.428133    2.014758   -0.080676
     13          6           0        4.768991    1.990441    0.222902
     14          6           0        5.424586    0.772581    0.455582
     15          1           0        6.481672    0.742357    0.690046
     16          1           0        5.304663    2.930516    0.277308
     17          1           0        0.699384   -2.512995   -0.197020
     18          7           0        1.444118    3.244874   -0.701737
     19          7           0        4.632876   -2.831342    0.542164
     20          8           0        2.715581   -3.981817    0.208571
     21          8           0        6.601177   -1.777955    0.893368
     22          8           0        3.340816    4.388876   -0.251501
     23          8           0       -0.407963    2.208087   -1.441362
     24          6           0       -0.903677   -0.468218   -0.559294
     25          6           0       -1.589268   -1.288965   -1.407288
     26         16           0       -1.961766    0.318705    0.554401
     27          6           0       -2.988151   -1.239703   -1.193290
     28          1           0       -1.115136   -1.889985   -2.174276
     29          6           0       -3.369153   -0.418134   -0.159315
     30          8           0       -3.907702   -1.944000   -1.906730
     31          6           0       -4.711856   -0.156736    0.318314
     32          6           0       -5.086385    0.644922    1.369356
     33         16           0       -6.131646   -0.846508   -0.425802
     34          6           0       -6.490098    0.714139    1.576127
     35          8           0       -4.157601    1.287996    2.127062
     36          6           0       -7.172146   -0.041670    0.674247
     37          1           0       -6.958298    1.295060    2.361049
     38          1           0       -8.240597   -0.175599    0.599794
     39          1           0       -4.586910    1.912817    2.712023
     40          1           0       -3.505039   -2.304728   -2.697069
     41          1           0        5.105231   -3.712013    0.704022
     42          1           0        1.009521    4.115541   -0.980797
 ---------------------------------------------------------------------

 The electronic state is 1-A.
 Alpha  occ. eigenvalues --  -89.05101 -89.04763 -19.29356 -19.29321 -19.25910
 Alpha  occ. eigenvalues --  -19.25880 -19.25471 -19.25461 -14.50640 -14.50169
 Alpha  occ. eigenvalues --  -10.43790 -10.43753 -10.43538 -10.43321 -10.35915
 Alpha  occ. eigenvalues --  -10.35837 -10.35704 -10.35469 -10.35217 -10.35149
 Alpha  occ. eigenvalues --  -10.34737 -10.34717 -10.34613 -10.33804 -10.33721
 Alpha  occ. eigenvalues --  -10.33704 -10.33654 -10.33112 -10.32628 -10.32070
 Alpha  occ. eigenvalues --  -10.30552 -10.29957  -8.09124  -8.08787  -6.03987
 Alpha  occ. eigenvalues --   -6.03637  -6.03585  -6.03236  -6.03174  -6.02866
 Alpha  occ. eigenvalues --   -1.20239  -1.19940  -1.18444  -1.18426  -1.18338
 Alpha  occ. eigenvalues --   -1.18102  -1.07142  -1.06608  -1.03670  -1.00937
 Alpha  occ. eigenvalues --   -0.99310  -0.97877  -0.94799  -0.91103  -0.89675
 Alpha  occ. eigenvalues --   -0.87525  -0.84379  -0.83520  -0.82929  -0.81637
 Alpha  occ. eigenvalues --   -0.81019  -0.78006  -0.76890  -0.75252  -0.72816
 Alpha  occ. eigenvalues --   -0.71117  -0.70519  -0.69723  -0.68414  -0.66605
 Alpha  occ. eigenvalues --   -0.65496  -0.64589  -0.63361  -0.61777  -0.60920
 Alpha  occ. eigenvalues --   -0.60061  -0.59855  -0.59482  -0.58775  -0.57947
 Alpha  occ. eigenvalues --   -0.57295  -0.56813  -0.56464  -0.55249  -0.55133
 Alpha  occ. eigenvalues --   -0.54853  -0.54146  -0.53452  -0.52965  -0.52307
 Alpha  occ. eigenvalues --   -0.51999  -0.51853  -0.51685  -0.51508  -0.51188
 Alpha  occ. eigenvalues --   -0.49267  -0.47871  -0.47364  -0.46700  -0.46246
 Alpha  occ. eigenvalues --   -0.45740  -0.44669  -0.44080  -0.43170  -0.41997
 Alpha  occ. eigenvalues --   -0.41282  -0.40655  -0.39647  -0.39520  -0.38985
 Alpha  occ. eigenvalues --   -0.38248  -0.37705  -0.37018  -0.35676  -0.34062
 Alpha  occ. eigenvalues --   -0.32302  -0.31951  -0.26491
 Alpha virt. eigenvalues --   -0.07933  -0.01019  -0.00281   0.01652   0.02730
 Alpha virt. eigenvalues --    0.04540   0.05117   0.05367   0.06146   0.06395
 Alpha virt. eigenvalues --    0.06521   0.07010   0.07502   0.07631   0.07826

 Mulliken charges:
               1
     1  C    0.500139
     2  C   -0.153925
     3  C    0.190582
     4  C    0.187220
     5  C    0.291356
     6  C   -0.338371
     7  C    0.110043
     8  C   -0.181936
     9  C    0.160363
    10  C    0.141372
    11  C    0.264811
    12  C    0.098647
    13  C   -0.397496
    14  C   -0.647657
    15  H    0.192248
    16  H    0.191898
    17  H    0.195745
    18  N   -0.391845
    19  N   -0.451167
    20  O   -0.262666
    21  O   -0.263716
    22  O   -0.271615
    23  O   -0.195176
    24  C    0.511370
    25  C   -0.418049
    26  S   -0.546038
    27  C   -0.409466
    28  H    0.144291
    29  C    0.393505
    30  O   -0.240553
    31  C    0.680892
    32  C    0.375925
    33  S   -0.297668
    34  C   -0.295574
    35  O   -0.269219
    36  C   -0.281344
    37  H    0.142379
    38  H    0.188482
    39  H    0.282904
    40  H    0.282625
    41  H    0.397407
    42  H    0.389280
 Sum of Mulliken charges =  -0.00000

 Dipole moment (field-independent basis, Debye):
    X=             -1.9356    Y=              0.4299    Z=              0.1144  Tot=              1.9861
 Quadrupole moment (field-independent basis, Debye-Ang):
   XX=           -188.2798   YY=           -206.5982   ZZ=           -183.7121
   XY=             -5.8675   XZ=            -10.9301   YZ=             14.0474

 Normal termination of Gaussian 16 at Wed Nov 18 02:19:19 2020.
