 Gaussian 16, Revision C.01,
 Gaussian 16:  ES64L-G16RevC.01  3-Jul-2019

 --------------------------------------
 # opt=modredundant wb97xd/6-311+g(d,p)
 --------------------------------------

 -----------
 NDI_-70.pdb
 -----------
 Symbolic Z-matrix:
 Charge =  0 Multiplicity = 1

 SCF Done:  E(RwB97XD) =  -2201.52584409     A.U. after   19 cycles
 SCF Done:  E(RwB97XD) =  -2201.55727389     A.U. after   16 cycles
 SCF Done:  E(RwB97XD) =  -2201.56541630     A.U. after   16 cycles
 SCF Done:  E(RwB97XD) =  -2201.56854307     A.U. after   15 cycles
 SCF Done:  E(RwB97XD) =  -2201.56880761     A.U. after   14 cycles
 SCF Done:  E(RwB97XD) =  -2201.56913452     A.U. after   14 cycles
 SCF Done:  E(RwB97XD) =  -2201.56922670     A.U. after   13 cycles
 SCF Done:  E(RwB97XD) =  -2201.56925442     A.U. after   14 cycles
 SCF Done:  E(RwB97XD) =  -2201.56927859     A.U. after   14 cycles
 SCF Done:  E(RwB97XD) =  -2201.56928776     A.U. after   14 cycles
 SCF Done:  E(RwB97XD) =  -2201.56931071     A.U. after    7 cycles
 SCF Done:  E(RwB97XD) =  -2201.56810729     A.U. after   16 cycles
 SCF Done:  E(RwB97XD) =  -2201.56931112     A.U. after   11 cycles
 SCF Done:  E(RwB97XD) =  -2201.55695371     A.U. after   16 cycles
 SCF Done:  E(RwB97XD) =  -2201.56931105     A.U. after   13 cycles
 SCF Done:  E(RwB97XD) =  -2201.56930689     A.U. after   14 cycles
 SCF Done:  E(RwB97XD) =  -2201.56931147     A.U. after   14 cycles
 SCF Done:  E(RwB97XD) =  -2201.56931086     A.U. after   13 cycles
 SCF Done:  E(RwB97XD) =  -2201.56931288     A.U. after   11 cycles
 SCF Done:  E(RwB97XD) =  -2201.56931288     A.U. after   10 cycles
 Optimization completed.
    -- Stationary point found.

                         Standard orientation:
 ---------------------------------------------------------------------
 Center     Atomic      Atomic             Coordinates (Angstroms)
 Number     Number       Type             X           Y           Z
 ---------------------------------------------------------------------
      1          6           0        2.864624   -2.994858    0.393371
      2          6           0        2.378670   -1.593935    0.258982
      3          6           0        3.297041   -0.540396    0.042114
      4          6           0        4.687097   -0.788166   -0.049822
      5          6           0        5.204093   -2.177717    0.081621
      6          6           0        1.040968   -1.333174    0.365811
      7          6           0        2.806478    0.778340   -0.088689
      8          6           0        1.405943    1.029761    0.005740
      9          6           0        0.528875   -0.015905    0.262563
     10          6           0        0.919072    2.423977   -0.237451
     11          6           0        3.283611    3.220390   -0.461297
     12          6           0        3.745836    1.818029   -0.307576
     13          6           0        5.092693    1.554460   -0.388482
     14          6           0        5.570551    0.242447   -0.259697
     15          1           0        6.629401    0.023420   -0.324354
     16          1           0        5.772585    2.381327   -0.554771
     17          1           0        0.358833   -2.153888    0.554953
     18          7           0        1.912946    3.385695   -0.402489
     19          7           0        4.239556   -3.154048    0.288817
     20          8           0        2.141358   -3.942687    0.580559
     21          8           0        6.374859   -2.466227    0.016111
     22          8           0        4.022385    4.161113   -0.634054
     23          8           0       -0.237664    2.755859   -0.310712
     24          6           0       -0.924224    0.145958    0.458617
     25          6           0       -1.564877    0.720302    1.512413
     26         16           0       -2.035176   -0.563928   -0.656444
     27          6           0       -2.974172    0.615742    1.406362
     28          1           0       -1.054067    1.210652    2.331686
     29          6           0       -3.408190   -0.048220    0.285330
     30          8           0       -3.855905    1.095350    2.325960
     31          6           0       -4.774457   -0.290934   -0.132600
     32          6           0       -5.202051   -0.995726   -1.231117
     33         16           0       -6.153470    0.332024    0.736185
     34          6           0       -6.614164   -1.035993   -1.382355
     35          8           0       -4.313538   -1.591328   -2.071714
     36          6           0       -7.248874   -0.356733   -0.389684
     37          1           0       -7.122176   -1.549688   -2.189161
     38          1           0       -8.311920   -0.229136   -0.252972
     39          1           0       -4.773462   -1.968885   -2.821817
     40          1           0       -3.443631    1.788466    2.842639
     41          1           0        4.582911   -4.102134    0.379084
     42          1           0        1.573137    4.326259   -0.559544
 ---------------------------------------------------------------------

 The electronic state is 1-A.
 Alpha  occ. eigenvalues --  -89.05144 -89.04628 -19.29239 -19.29057 -19.25924
 Alpha  occ. eigenvalues --  -19.25911 -19.25636 -19.25603 -14.50668 -14.50366
 Alpha  occ. eigenvalues --  -10.43802 -10.43794 -10.43782 -10.43469 -10.35991
 Alpha  occ. eigenvalues --  -10.35628 -10.35591 -10.35562 -10.35413 -10.35360
 Alpha  occ. eigenvalues --  -10.34826 -10.34812 -10.34746 -10.33834 -10.33798
 Alpha  occ. eigenvalues --  -10.33774 -10.33476 -10.32879 -10.32479 -10.31935
 Alpha  occ. eigenvalues --  -10.30180 -10.29847  -8.09160  -8.08651  -6.04020
 Alpha  occ. eigenvalues --   -6.03619  -6.03500  -6.03218  -6.03101  -6.02730
 Alpha  occ. eigenvalues --   -1.20276  -1.20122  -1.18478  -1.18278  -1.18271
 Alpha  occ. eigenvalues --   -1.18081  -1.07206  -1.06742  -1.03760  -1.00835
 Alpha  occ. eigenvalues --   -0.99229  -0.97876  -0.94903  -0.91084  -0.89769
 Alpha  occ. eigenvalues --   -0.87436  -0.84304  -0.83484  -0.82646  -0.81749
 Alpha  occ. eigenvalues --   -0.81122  -0.78102  -0.76879  -0.75375  -0.72941
 Alpha  occ. eigenvalues --   -0.70994  -0.70425  -0.69625  -0.68391  -0.66734
 Alpha  occ. eigenvalues --   -0.65369  -0.64550  -0.63202  -0.61849  -0.61101
 Alpha  occ. eigenvalues --   -0.60098  -0.59877  -0.59502  -0.58731  -0.58024
 Alpha  occ. eigenvalues --   -0.57278  -0.56963  -0.56467  -0.55337  -0.55163
 Alpha  occ. eigenvalues --   -0.54942  -0.54146  -0.53026  -0.52932  -0.52419
 Alpha  occ. eigenvalues --   -0.52098  -0.51831  -0.51770  -0.51568  -0.50994
 Alpha  occ. eigenvalues --   -0.49253  -0.47997  -0.47593  -0.46673  -0.46043
 Alpha  occ. eigenvalues --   -0.44999  -0.44556  -0.44301  -0.43092  -0.41779
 Alpha  occ. eigenvalues --   -0.41418  -0.40735  -0.39683  -0.39546  -0.39256
 Alpha  occ. eigenvalues --   -0.38377  -0.37743  -0.36961  -0.35566  -0.34221
 Alpha  occ. eigenvalues --   -0.32231  -0.31878  -0.26440
 Alpha virt. eigenvalues --   -0.08003  -0.00952  -0.00184   0.01647   0.02423
 Alpha virt. eigenvalues --    0.04552   0.05095   0.05504   0.06307   0.06489
 Alpha virt. eigenvalues --    0.06567   0.06946   0.07356   0.07547   0.07712

 Mulliken charges:
               1
     1  C    0.541532
     2  C   -0.161524
     3  C    0.250948
     4  C    0.161138
     5  C    0.262156
     6  C   -0.525711
     7  C    0.186906
     8  C   -0.060193
     9  C    0.260159
    10  C    0.092802
    11  C    0.296847
    12  C    0.116214
    13  C   -0.420188
    14  C   -0.657347
    15  H    0.192547
    16  H    0.192330
    17  H    0.209385
    18  N   -0.456909
    19  N   -0.454125
    20  O   -0.257890
    21  O   -0.263749
    22  O   -0.268488
    23  O   -0.132476
    24  C    0.275608
    25  C   -0.479184
    26  S   -0.413145
    27  C   -0.500978
    28  H    0.137521
    29  C    0.474252
    30  O   -0.262367
    31  C    0.619736
    32  C    0.530901
    33  S   -0.331450
    34  C   -0.332757
    35  O   -0.265659
    36  C   -0.245721
    37  H    0.141842
    38  H    0.187697
    39  H    0.282576
    40  H    0.283612
    41  H    0.398395
    42  H    0.394755
 Sum of Mulliken charges =  -0.00000

 Dipole moment (field-independent basis, Debye):
    X=             -1.5105    Y=              0.4218    Z=             -0.2453  Tot=              1.5874
 Quadrupole moment (field-independent basis, Debye-Ang):
   XX=           -188.6934   YY=           -207.8390   ZZ=           -181.9773
   XY=              4.2684   XZ=             10.8650   YZ=             14.1565

 Normal termination of Gaussian 16 at Tue Nov 17 21:27:27 2020.
