 Gaussian 16, Revision C.01,
 Gaussian 16:  ES64L-G16RevC.01  3-Jul-2019

 --------------------------------------
 # opt=modredundant wb97xd/6-311+g(d,p)
 --------------------------------------

 ------------
 NDI_-140.pdb
 ------------
 Symbolic Z-matrix:
 Charge =  0 Multiplicity = 1

 SCF Done:  E(RwB97XD) =  -2201.51273993     A.U. after   19 cycles
 SCF Done:  E(RwB97XD) =  -2201.53947402     A.U. after   19 cycles
 SCF Done:  E(RwB97XD) =  -2201.55559019     A.U. after   16 cycles
 SCF Done:  E(RwB97XD) =  -2201.56421160     A.U. after   18 cycles
 SCF Done:  E(RwB97XD) =  -2201.56648589     A.U. after   16 cycles
 SCF Done:  E(RwB97XD) =  -2201.56707674     A.U. after   18 cycles
 SCF Done:  E(RwB97XD) =  -2201.56764541     A.U. after   16 cycles
 SCF Done:  E(RwB97XD) =  -2201.56797393     A.U. after   15 cycles
 SCF Done:  E(RwB97XD) =  -2201.56825253     A.U. after   16 cycles
 SCF Done:  E(RwB97XD) =  -2201.56833109     A.U. after   15 cycles
 SCF Done:  E(RwB97XD) =  -2201.56843711     A.U. after   14 cycles
 SCF Done:  E(RwB97XD) =  -2201.56844348     A.U. after   14 cycles
 SCF Done:  E(RwB97XD) =  -2201.56844092     A.U. after   14 cycles
 SCF Done:  E(RwB97XD) =  -2201.56845051     A.U. after   14 cycles
 SCF Done:  E(RwB97XD) =  -2201.56844819     A.U. after   14 cycles
 SCF Done:  E(RwB97XD) =  -2201.56845714     A.U. after   13 cycles
 SCF Done:  E(RwB97XD) =  -2201.56845733     A.U. after   11 cycles
 SCF Done:  E(RwB97XD) =  -2201.56845738     A.U. after   11 cycles
 SCF Done:  E(RwB97XD) =  -2201.56845744     A.U. after   11 cycles
 SCF Done:  E(RwB97XD) =  -2201.56845746     A.U. after    9 cycles
 Optimization completed.
    -- Stationary point found.

                         Standard orientation:
 ---------------------------------------------------------------------
 Center     Atomic      Atomic             Coordinates (Angstroms)
 Number     Number       Type             X           Y           Z
 ---------------------------------------------------------------------
      1          6           0       -3.278943   -2.910765    0.254683
      2          6           0       -2.600776   -1.607613    0.016767
      3          6           0       -3.335565   -0.400820    0.090544
      4          6           0       -4.712924   -0.397820    0.409054
      5          6           0       -5.416899   -1.683909    0.662702
      6          6           0       -1.257733   -1.584709   -0.231729
      7          6           0       -2.667840    0.817329   -0.163706
      8          6           0       -1.278604    0.816908   -0.481290
      9          6           0       -0.556975   -0.372340   -0.462993
     10          6           0       -0.678344    2.097463   -0.961981
     11          6           0       -2.763182    3.325489   -0.337507
     12          6           0       -3.416661    2.018009   -0.073924
     13          6           0       -4.752978    1.998581    0.250908
     14          6           0       -5.410320    0.783637    0.491209
     15          1           0       -6.463782    0.757302    0.741744
     16          1           0       -5.283353    2.941031    0.315347
     17          1           0       -0.710171   -2.519562   -0.219004
     18          7           0       -1.442540    3.240103   -0.736883
     19          7           0       -4.630388   -2.824036    0.556764
     20          8           0       -2.721867   -3.980546    0.194750
     21          8           0       -6.589295   -1.764678    0.940297
     22          8           0       -3.322758    4.392413   -0.240439
     23          8           0        0.374301    2.190645   -1.542545
     24          6           0        0.903852   -0.485777   -0.573793
     25          6           0        1.585025   -1.436792   -1.282646
     26         16           0        1.968577    0.423519    0.436762
     27          6           0        2.979329   -1.389665   -1.055255
     28          1           0        1.108798   -2.132517   -1.963611
     29          6           0        3.365212   -0.439513   -0.138222
     30          8           0        3.892910   -2.205134   -1.647562
     31          6           0        4.707057   -0.141765    0.317856
     32          6           0        5.085987    0.789828    1.254429
     33         16           0        6.120647   -0.954716   -0.303880
     34          6           0        6.488171    0.859803    1.469868
     35          8           0        4.161970    1.548182    1.902285
     36          6           0        7.164343   -0.026257    0.690279
     37          1           0        6.959443    1.534079    2.174106
     38          1           0        8.230527   -0.189989    0.650870
     39          1           0        4.596635    2.238128    2.404277
     40          1           0        3.492662   -2.668687   -2.383670
     41          1           0       -5.103643   -3.703198    0.723924
     42          1           0       -1.013682    4.107247   -1.035056
 ---------------------------------------------------------------------

 The electronic state is 1-A.
 Alpha  occ. eigenvalues --  -89.05202 -89.04902 -19.29502 -19.29442 -19.25871
 Alpha  occ. eigenvalues --  -19.25826 -19.25371 -19.25357 -14.50592 -14.50075
 Alpha  occ. eigenvalues --  -10.43748 -10.43695 -10.43444 -10.43218 -10.35966
 Alpha  occ. eigenvalues --  -10.35938 -10.35879 -10.35377 -10.35090 -10.34994
 Alpha  occ. eigenvalues --  -10.34656 -10.34625 -10.34495 -10.33807 -10.33758
 Alpha  occ. eigenvalues --  -10.33605 -10.33545 -10.33343 -10.32763 -10.32222
 Alpha  occ. eigenvalues --  -10.30730 -10.30086  -8.09228  -8.08926  -6.04089
 Alpha  occ. eigenvalues --   -6.03775  -6.03686  -6.03375  -6.03279  -6.03005
 Alpha  occ. eigenvalues --   -1.20189  -1.19846  -1.18574  -1.18478  -1.18393
 Alpha  occ. eigenvalues --   -1.18003  -1.07081  -1.06523  -1.03587  -1.01043
 Alpha  occ. eigenvalues --   -0.99402  -0.97869  -0.94709  -0.91109  -0.89597
 Alpha  occ. eigenvalues --   -0.87607  -0.84523  -0.83639  -0.82990  -0.81555
 Alpha  occ. eigenvalues --   -0.81011  -0.77947  -0.76856  -0.75189  -0.72727
 Alpha  occ. eigenvalues --   -0.71196  -0.70627  -0.69807  -0.68402  -0.66536
 Alpha  occ. eigenvalues --   -0.65634  -0.64582  -0.63489  -0.61707  -0.60846
 Alpha  occ. eigenvalues --   -0.60024  -0.59794  -0.59477  -0.58785  -0.57892
 Alpha  occ. eigenvalues --   -0.57390  -0.56671  -0.56447  -0.55195  -0.55067
 Alpha  occ. eigenvalues --   -0.54812  -0.54099  -0.53612  -0.53068  -0.52280
 Alpha  occ. eigenvalues --   -0.51968  -0.51903  -0.51655  -0.51450  -0.51264
 Alpha  occ. eigenvalues --   -0.49221  -0.47849  -0.47388  -0.46776  -0.46393
 Alpha  occ. eigenvalues --   -0.45983  -0.44799  -0.44054  -0.43264  -0.42088
 Alpha  occ. eigenvalues --   -0.41192  -0.40596  -0.39603  -0.39473  -0.38896
 Alpha  occ. eigenvalues --   -0.38238  -0.37766  -0.37069  -0.35586  -0.33969
 Alpha  occ. eigenvalues --   -0.32387  -0.32039  -0.26556
 Alpha virt. eigenvalues --   -0.07897  -0.01153  -0.00298   0.01677   0.02876
 Alpha virt. eigenvalues --    0.04484   0.05190   0.05294   0.06186   0.06317
 Alpha virt. eigenvalues --    0.06507   0.07091   0.07563   0.07704   0.07877

 Mulliken charges:
               1
     1  C    0.465141
     2  C   -0.142926
     3  C    0.175562
     4  C    0.204458
     5  C    0.290691
     6  C   -0.279985
     7  C    0.099825
     8  C   -0.153361
     9  C    0.190604
    10  C    0.115869
    11  C    0.273139
    12  C    0.095940
    13  C   -0.420244
    14  C   -0.619714
    15  H    0.191763
    16  H    0.191786
    17  H    0.192905
    18  N   -0.378789
    19  N   -0.452167
    20  O   -0.264812
    21  O   -0.262945
    22  O   -0.272864
    23  O   -0.206122
    24  C    0.421855
    25  C   -0.353960
    26  S   -0.635490
    27  C   -0.385591
    28  H    0.147598
    29  C    0.394485
    30  O   -0.241787
    31  C    0.705380
    32  C    0.374664
    33  S   -0.293105
    34  C   -0.304328
    35  O   -0.266092
    36  C   -0.280317
    37  H    0.142956
    38  H    0.189174
    39  H    0.283221
    40  H    0.282730
    41  H    0.396895
    42  H    0.387962
 Sum of Mulliken charges =  -0.00000

 Dipole moment (field-independent basis, Debye):
    X=              2.3187    Y=              0.3225    Z=              0.1751  Tot=              2.3475
 Quadrupole moment (field-independent basis, Debye-Ang):
   XX=           -187.2052   YY=           -203.4805   ZZ=           -187.3456
   XY=              6.5613   XZ=             10.5248   YZ=             14.5647

 Normal termination of Gaussian 16 at Tue Nov 17 19:57:14 2020.
