 Gaussian 16, Revision C.01,
 Gaussian 16:  ES64L-G16RevC.01  3-Jul-2019

 --------------------------------------
 # opt=modredundant wb97xd/6-311+g(d,p)
 --------------------------------------

 ----------
 NDI_60.pdb
 ----------
 Symbolic Z-matrix:
 Charge =  0 Multiplicity = 1

 SCF Done:  E(RwB97XD) =  -2201.52506152     A.U. after   19 cycles
 SCF Done:  E(RwB97XD) =  -2201.55608306     A.U. after   16 cycles
 SCF Done:  E(RwB97XD) =  -2201.56456173     A.U. after   15 cycles
 SCF Done:  E(RwB97XD) =  -2201.56808454     A.U. after   15 cycles
 SCF Done:  E(RwB97XD) =  -2201.56861294     A.U. after   15 cycles
 SCF Done:  E(RwB97XD) =  -2201.56893673     A.U. after   14 cycles
 SCF Done:  E(RwB97XD) =  -2201.56908310     A.U. after   14 cycles
 SCF Done:  E(RwB97XD) =  -2201.56917458     A.U. after   14 cycles
 SCF Done:  E(RwB97XD) =  -2201.56922855     A.U. after   14 cycles
 SCF Done:  E(RwB97XD) =  -2201.56927710     A.U. after   14 cycles
 SCF Done:  E(RwB97XD) =  -2201.56960401     A.U. after   11 cycles
 SCF Done:  E(RwB97XD) =  -2201.56960418     A.U. after   12 cycles
 SCF Done:  E(RwB97XD) =  -2201.56960427     A.U. after   11 cycles
 SCF Done:  E(RwB97XD) =  -2201.56960440     A.U. after   11 cycles
 SCF Done:  E(RwB97XD) =  -2201.56960451     A.U. after   11 cycles
 SCF Done:  E(RwB97XD) =  -2201.56960467     A.U. after   11 cycles
 SCF Done:  E(RwB97XD) =  -2201.56960480     A.U. after   11 cycles
 SCF Done:  E(RwB97XD) =  -2201.56960493     A.U. after   11 cycles
 SCF Done:  E(RwB97XD) =  -2201.56960500     A.U. after   11 cycles
 SCF Done:  E(RwB97XD) =  -2201.56960505     A.U. after   11 cycles
 Optimization completed.
    -- Stationary point found.

                         Standard orientation:
 ---------------------------------------------------------------------
 Center     Atomic      Atomic             Coordinates (Angstroms)
 Number     Number       Type             X           Y           Z
 ---------------------------------------------------------------------
      1          6           0        2.723714   -3.010881   -0.412501
      2          6           0        2.303354   -1.591117   -0.255254
      3          6           0        3.271724   -0.579082   -0.058524
      4          6           0        4.651174   -0.887798   -0.008560
      5          6           0        5.103640   -2.297008   -0.165720
      6          6           0        0.977085   -1.273649   -0.325233
      7          6           0        2.839614    0.757622    0.095864
      8          6           0        1.447608    1.070775    0.041623
      9          6           0        0.518425    0.063791   -0.202772
     10          6           0        1.034135    2.480470    0.325483
     11          6           0        3.437447    3.169917    0.486700
     12          6           0        3.830694    1.751716    0.299946
     13          6           0        5.167125    1.429631    0.339929
     14          6           0        5.585083    0.101061    0.184627
     15          1           0        6.634801   -0.163890    0.216907
     16          1           0        5.885502    2.225341    0.496168
     17          1           0        0.260678   -2.066305   -0.506828
     18          7           0        2.074516    3.393727    0.478197
     19          7           0        4.092618   -3.229960   -0.349976
     20          8           0        1.954633   -3.925257   -0.583329
     21          8           0        6.262362   -2.635999   -0.137946
     22          8           0        4.221509    4.075867    0.646719
     23          8           0       -0.102302    2.868086    0.442614
     24          6           0       -0.928537    0.273395   -0.369954
     25          6           0       -1.570351    1.028543   -1.304437
     26         16           0       -2.047098   -0.635984    0.586419
     27          6           0       -2.976788    0.898382   -1.231949
     28          1           0       -1.059774    1.664495   -2.016178
     29          6           0       -3.414861    0.036979   -0.253815
     30          8           0       -3.856120    1.533933   -2.053784
     31          6           0       -4.782201   -0.282014    0.102070
     32          6           0       -5.214209   -1.184708    1.043586
     33         16           0       -6.158338    0.490708   -0.642742
     34          6           0       -6.626964   -1.258900    1.171990
     35          8           0       -4.328765   -1.920020    1.767346
     36          6           0       -7.257579   -0.406116    0.320489
     37          1           0       -7.138392   -1.917148    1.863360
     38          1           0       -8.320321   -0.259329    0.201646
     39          1           0       -4.796283   -2.495569    2.373095
     40          1           0       -3.448393    2.317739   -2.423855
     41          1           0        4.392299   -4.191020   -0.456836
     42          1           0        1.780382    4.344807    0.661645
 ---------------------------------------------------------------------

 The electronic state is 1-A.
 Alpha  occ. eigenvalues --  -89.05300 -89.04801 -19.29434 -19.29167 -19.25849
 Alpha  occ. eigenvalues --  -19.25848 -19.25509 -19.25472 -14.50601 -14.50266
 Alpha  occ. eigenvalues --  -10.43726 -10.43723 -10.43720 -10.43330 -10.36042
 Alpha  occ. eigenvalues --  -10.35793 -10.35742 -10.35545 -10.35276 -10.35206
 Alpha  occ. eigenvalues --  -10.34713 -10.34709 -10.34590 -10.33687 -10.33681
 Alpha  occ. eigenvalues --  -10.33627 -10.33538 -10.33180 -10.32654 -10.32128
 Alpha  occ. eigenvalues --  -10.30347 -10.30015  -8.09323  -8.08824  -6.04181
 Alpha  occ. eigenvalues --   -6.03780  -6.03673  -6.03383  -6.03274  -6.02903
 Alpha  occ. eigenvalues --   -1.20208  -1.20023  -1.18486  -1.18408  -1.18213
 Alpha  occ. eigenvalues --   -1.18153  -1.07123  -1.06642  -1.03644  -1.00955
 Alpha  occ. eigenvalues --   -0.99335  -0.97867  -0.94785  -0.91067  -0.89665
 Alpha  occ. eigenvalues --   -0.87553  -0.84480  -0.83643  -0.82672  -0.81644
 Alpha  occ. eigenvalues --   -0.81153  -0.78026  -0.76820  -0.75318  -0.72839
 Alpha  occ. eigenvalues --   -0.71051  -0.70577  -0.69733  -0.68358  -0.66664
 Alpha  occ. eigenvalues --   -0.65526  -0.64515  -0.63348  -0.61747  -0.61041
 Alpha  occ. eigenvalues --   -0.60014  -0.59821  -0.59489  -0.58767  -0.57949
 Alpha  occ. eigenvalues --   -0.57375  -0.56806  -0.56482  -0.55269  -0.55052
 Alpha  occ. eigenvalues --   -0.54907  -0.54091  -0.53110  -0.53056  -0.52391
 Alpha  occ. eigenvalues --   -0.52075  -0.51784  -0.51709  -0.51555  -0.51133
 Alpha  occ. eigenvalues --   -0.49154  -0.48066  -0.47663  -0.46871  -0.46152
 Alpha  occ. eigenvalues --   -0.45181  -0.44636  -0.44313  -0.43208  -0.41917
 Alpha  occ. eigenvalues --   -0.41331  -0.40674  -0.39644  -0.39481  -0.39163
 Alpha  occ. eigenvalues --   -0.38385  -0.37753  -0.37034  -0.35488  -0.34091
 Alpha  occ. eigenvalues --   -0.32326  -0.32015  -0.26524
 Alpha virt. eigenvalues --   -0.07974  -0.01021  -0.00285   0.01638   0.02654
 Alpha virt. eigenvalues --    0.04554   0.05116   0.05485   0.06365   0.06433
 Alpha virt. eigenvalues --    0.06540   0.07019   0.07439   0.07599   0.07764

 Mulliken charges:
               1
     1  C    0.514129
     2  C   -0.174175
     3  C    0.233435
     4  C    0.179107
     5  C    0.272039
     6  C   -0.512930
     7  C    0.171388
     8  C   -0.029853
     9  C    0.286155
    10  C    0.130824
    11  C    0.318389
    12  C    0.102515
    13  C   -0.434872
    14  C   -0.656032
    15  H    0.192165
    16  H    0.192245
    17  H    0.213447
    18  N   -0.453697
    19  N   -0.453579
    20  O   -0.260051
    21  O   -0.263014
    22  O   -0.270684
    23  O   -0.163389
    24  C    0.176948
    25  C   -0.432286
    26  S   -0.493518
    27  C   -0.542762
    28  H    0.143784
    29  C    0.570527
    30  O   -0.261761
    31  C    0.664256
    32  C    0.527078
    33  S   -0.328261
    34  C   -0.341016
    35  O   -0.258411
    36  C   -0.248294
    37  H    0.142536
    38  H    0.188487
    39  H    0.282716
    40  H    0.284104
    41  H    0.398028
    42  H    0.394283
 Sum of Mulliken charges =  -0.00000

 Dipole moment (field-independent basis, Debye):
    X=             -1.9980    Y=              0.1124    Z=              0.1797  Tot=              2.0092
 Quadrupole moment (field-independent basis, Debye-Ang):
   XX=           -187.4920   YY=           -202.9826   ZZ=           -187.1693
   XY=              6.3164   XZ=             -9.3270   YZ=            -15.1800

 Normal termination of Gaussian 16 at Tue Nov 17 20:04:16 2020.
