 Gaussian 16, Revision C.01,
 Gaussian 16:  ES64L-G16RevC.01  3-Jul-2019

 --------------------------------------
 # opt=modredundant wb97xd/6-311+g(d,p)
 --------------------------------------

 -----------
 NDI_-80.pdb
 -----------
 Symbolic Z-matrix:
 Charge =  0 Multiplicity = 1

 SCF Done:  E(RwB97XD) =  -2201.52489756     A.U. after   19 cycles
 SCF Done:  E(RwB97XD) =  -2201.55672686     A.U. after   16 cycles
 SCF Done:  E(RwB97XD) =  -2201.56527018     A.U. after   15 cycles
 SCF Done:  E(RwB97XD) =  -2201.56836637     A.U. after   15 cycles
 SCF Done:  E(RwB97XD) =  -2201.56855445     A.U. after   15 cycles
 SCF Done:  E(RwB97XD) =  -2201.56893563     A.U. after   14 cycles
 SCF Done:  E(RwB97XD) =  -2201.56899952     A.U. after   13 cycles
 SCF Done:  E(RwB97XD) =  -2201.56902413     A.U. after   14 cycles
 SCF Done:  E(RwB97XD) =  -2201.56904090     A.U. after   14 cycles
 SCF Done:  E(RwB97XD) =  -2201.56904779     A.U. after   13 cycles
 SCF Done:  E(RwB97XD) =  -2201.56905470     A.U. after   12 cycles
 SCF Done:  E(RwB97XD) =  -2201.56905650     A.U. after   11 cycles
 SCF Done:  E(RwB97XD) =  -2201.56905811     A.U. after   12 cycles
 SCF Done:  E(RwB97XD) =  -2201.56906035     A.U. after   11 cycles
 SCF Done:  E(RwB97XD) =  -2201.56906239     A.U. after   14 cycles
 SCF Done:  E(RwB97XD) =  -2201.56906295     A.U. after   11 cycles
 SCF Done:  E(RwB97XD) =  -2201.56906407     A.U. after   14 cycles
 SCF Done:  E(RwB97XD) =  -2201.56906441     A.U. after   11 cycles
 SCF Done:  E(RwB97XD) =  -2201.56906455     A.U. after   10 cycles
 SCF Done:  E(RwB97XD) =  -2201.56906467     A.U. after   10 cycles
 Optimization completed.
    -- Stationary point found.

                         Standard orientation:
 ---------------------------------------------------------------------
 Center     Atomic      Atomic             Coordinates (Angstroms)
 Number     Number       Type             X           Y           Z
 ---------------------------------------------------------------------
      1          6           0        2.964130   -2.987107    0.322450
      2          6           0        2.432538   -1.599016    0.237810
      3          6           0        3.311919   -0.513062    0.021289
      4          6           0        4.705620   -0.715702   -0.119483
      5          6           0        5.267591   -2.091670   -0.040066
      6          6           0        1.089675   -1.381992    0.381734
      7          6           0        2.780028    0.793646   -0.058125
      8          6           0        1.376927    0.999466    0.084915
      9          6           0        0.537852   -0.079488    0.322099
     10          6           0        0.842507    2.390261   -0.060446
     11          6           0        3.170958    3.259006   -0.375854
     12          6           0        3.679969    1.867339   -0.278013
     13          6           0        5.030290    1.646911   -0.409144
     14          6           0        5.550315    0.346520   -0.329880
     15          1           0        6.612635    0.161674   -0.433345
     16          1           0        5.680030    2.497671   -0.575476
     17          1           0        0.434125   -2.226722    0.558485
     18          7           0        1.800218    3.383114   -0.251834
     19          7           0        4.339442   -3.101577    0.172575
     20          8           0        2.275602   -3.960758    0.507864
     21          8           0        6.443720   -2.342577   -0.149066
     22          8           0        3.875123    4.224758   -0.554010
     23          8           0       -0.323606    2.693091   -0.030417
     24          6           0       -0.921460    0.032098    0.530584
     25          6           0       -1.572918    0.386700    1.669665
     26         16           0       -2.016190   -0.436247   -0.718016
     27          6           0       -2.982726    0.312444    1.525778
     28          1           0       -1.072050    0.703186    2.576161
     29          6           0       -3.402266   -0.114028    0.290882
     30          8           0       -3.874600    0.602822    2.512749
     31          6           0       -4.763314   -0.278388   -0.180871
     32          6           0       -5.176294   -0.737030   -1.407586
     33         16           0       -6.155051    0.115786    0.794939
     34          6           0       -6.587425   -0.774463   -1.569440
     35          8           0       -4.275827   -1.105137   -2.359308
     36          6           0       -7.236413   -0.341670   -0.455501
     37          1           0       -7.084365   -1.106505   -2.472642
     38          1           0       -8.301839   -0.266815   -0.299708
     39          1           0       -4.730795   -1.484216   -3.111586
     40          1           0       -3.466822    1.176532    3.162234
     41          1           0        4.713377   -4.040775    0.227907
     42          1           0        1.429624    4.320346   -0.347275
 ---------------------------------------------------------------------

 The electronic state is 1-A.
 Alpha  occ. eigenvalues --  -89.05000 -89.04511 -19.29112 -19.28960 -19.25979
 Alpha  occ. eigenvalues --  -19.25966 -19.25699 -19.25677 -14.50723 -14.50418
 Alpha  occ. eigenvalues --  -10.43861 -10.43851 -10.43817 -10.43539 -10.35977
 Alpha  occ. eigenvalues --  -10.35690 -10.35525 -10.35465 -10.35461 -10.35413
 Alpha  occ. eigenvalues --  -10.34899 -10.34875 -10.34841 -10.33934 -10.33861
 Alpha  occ. eigenvalues --  -10.33860 -10.33422 -10.32679 -10.32367 -10.31806
 Alpha  occ. eigenvalues --  -10.30054 -10.29736  -8.09014  -8.08534  -6.03876
 Alpha  occ. eigenvalues --   -6.03473  -6.03384  -6.03069  -6.02984  -6.02613
 Alpha  occ. eigenvalues --   -1.20331  -1.20179  -1.18535  -1.18340  -1.18138
 Alpha  occ. eigenvalues --   -1.17969  -1.07266  -1.06801  -1.03832  -1.00740
 Alpha  occ. eigenvalues --   -0.99161  -0.97862  -0.94976  -0.91092  -0.89834
 Alpha  occ. eigenvalues --   -0.87352  -0.84157  -0.83381  -0.82639  -0.81818
 Alpha  occ. eigenvalues --   -0.81070  -0.78156  -0.76914  -0.75414  -0.73009
 Alpha  occ. eigenvalues --   -0.70962  -0.70304  -0.69552  -0.68407  -0.66772
 Alpha  occ. eigenvalues --   -0.65248  -0.64576  -0.63094  -0.61920  -0.61131
 Alpha  occ. eigenvalues --   -0.60150  -0.59911  -0.59511  -0.58681  -0.58073
 Alpha  occ. eigenvalues --   -0.57256  -0.57020  -0.56468  -0.55389  -0.55236
 Alpha  occ. eigenvalues --   -0.54976  -0.54193  -0.52980  -0.52808  -0.52425
 Alpha  occ. eigenvalues --   -0.52112  -0.51913  -0.51770  -0.51531  -0.50881
 Alpha  occ. eigenvalues --   -0.49320  -0.47977  -0.47523  -0.46614  -0.45909
 Alpha  occ. eigenvalues --   -0.44930  -0.44350  -0.44253  -0.43001  -0.41736
 Alpha  occ. eigenvalues --   -0.41454  -0.40772  -0.39698  -0.39599  -0.39311
 Alpha  occ. eigenvalues --   -0.38374  -0.37732  -0.36876  -0.35632  -0.34327
 Alpha  occ. eigenvalues --   -0.32138  -0.31783  -0.26375
 Alpha virt. eigenvalues --   -0.08025  -0.00926  -0.00110   0.01722   0.02222
 Alpha virt. eigenvalues --    0.04568   0.05058   0.05562   0.06216   0.06555
 Alpha virt. eigenvalues --    0.06578   0.06932   0.07317   0.07489   0.07674

 Mulliken charges:
               1
     1  C    0.560164
     2  C   -0.147028
     3  C    0.278817
     4  C    0.152206
     5  C    0.256568
     6  C   -0.558278
     7  C    0.215882
     8  C   -0.091692
     9  C    0.258958
    10  C    0.087981
    11  C    0.287971
    12  C    0.122478
    13  C   -0.433780
    14  C   -0.691382
    15  H    0.192816
    16  H    0.192579
    17  H    0.204719
    18  N   -0.468982
    19  N   -0.454889
    20  O   -0.256407
    21  O   -0.264304
    22  O   -0.266619
    23  O   -0.119949
    24  C    0.362637
    25  C   -0.564013
    26  S   -0.279755
    27  C   -0.530852
    28  H    0.133833
    29  C    0.396917
    30  O   -0.261449
    31  C    0.647193
    32  C    0.541925
    33  S   -0.333446
    34  C   -0.337461
    35  O   -0.267686
    36  C   -0.254385
    37  H    0.141416
    38  H    0.187135
    39  H    0.281530
    40  H    0.283209
    41  H    0.398706
    42  H    0.396716
 Sum of Mulliken charges =  -0.00000

 Dipole moment (field-independent basis, Debye):
    X=             -1.2009    Y=              0.3159    Z=             -0.1369  Tot=              1.2493
 Quadrupole moment (field-independent basis, Debye-Ang):
   XX=           -189.4984   YY=           -211.0633   ZZ=           -178.2771
   XY=              3.7234   XZ=             11.3348   YZ=             11.7604

 Normal termination of Gaussian 16 at Tue Nov 17 16:09:59 2020.
