 Gaussian 16, Revision C.01,
 Gaussian 16:  ES64L-G16RevC.01  3-Jul-2019

 --------------------------------------
 # opt=modredundant wb97xd/6-311+g(d,p)
 --------------------------------------

 -----------
 NDI_150.pdb
 -----------
 Symbolic Z-matrix:
 Charge =  0 Multiplicity = 1

 SCF Done:  E(RwB97XD) =  -2201.50557403     A.U. after   20 cycles
 SCF Done:  E(RwB97XD) =  -2201.53343808     A.U. after   20 cycles
 SCF Done:  E(RwB97XD) =  -2201.55473661     A.U. after   16 cycles
 SCF Done:  E(RwB97XD) =  -2201.56322150     A.U. after   18 cycles
 SCF Done:  E(RwB97XD) =  -2201.56628667     A.U. after   17 cycles
 SCF Done:  E(RwB97XD) =  -2201.56644366     A.U. after   17 cycles
 SCF Done:  E(RwB97XD) =  -2201.56715615     A.U. after   14 cycles
 SCF Done:  E(RwB97XD) =  -2201.56734561     A.U. after   16 cycles
 SCF Done:  E(RwB97XD) =  -2201.56742538     A.U. after   15 cycles
 SCF Done:  E(RwB97XD) =  -2201.56746554     A.U. after   13 cycles
 SCF Done:  E(RwB97XD) =  -2201.56754898     A.U. after   14 cycles
 SCF Done:  E(RwB97XD) =  -2201.56754944     A.U. after   13 cycles
 SCF Done:  E(RwB97XD) =  -2201.56755095     A.U. after   12 cycles
 SCF Done:  E(RwB97XD) =  -2201.56755221     A.U. after   12 cycles
 SCF Done:  E(RwB97XD) =  -2201.56755486     A.U. after   13 cycles
 SCF Done:  E(RwB97XD) =  -2201.56755478     A.U. after   12 cycles
 SCF Done:  E(RwB97XD) =  -2201.56755428     A.U. after   12 cycles
 SCF Done:  E(RwB97XD) =  -2201.56755494     A.U. after   12 cycles
 SCF Done:  E(RwB97XD) =  -2201.56755508     A.U. after   11 cycles
 SCF Done:  E(RwB97XD) =  -2201.56755510     A.U. after   10 cycles
 Optimization completed.
    -- Stationary point found.

                         Standard orientation:
 ---------------------------------------------------------------------
 Center     Atomic      Atomic             Coordinates (Angstroms)
 Number     Number       Type             X           Y           Z
 ---------------------------------------------------------------------
      1          6           0       -3.280218   -2.909547   -0.222956
      2          6           0       -2.602242   -1.605835    0.011907
      3          6           0       -3.331807   -0.397683   -0.087187
      4          6           0       -4.703150   -0.393756   -0.428268
      5          6           0       -5.407344   -1.680441   -0.677563
      6          6           0       -1.263235   -1.585003    0.275909
      7          6           0       -2.661568    0.819543    0.163480
      8          6           0       -1.276704    0.817605    0.502827
      9          6           0       -0.555520   -0.374518    0.505617
     10          6           0       -0.690077    2.099637    0.993903
     11          6           0       -2.752114    3.329936    0.305669
     12          6           0       -3.404586    2.021634    0.046270
     13          6           0       -4.735597    2.003639   -0.301191
     14          6           0       -5.394642    0.789332   -0.537167
     15          1           0       -6.443856    0.764274   -0.804903
     16          1           0       -5.260025    2.947779   -0.386316
     17          1           0       -0.724357   -2.524531    0.270795
     18          7           0       -1.441561    3.243685    0.735960
     19          7           0       -4.626486   -2.822121   -0.545913
     20          8           0       -2.727021   -3.980348   -0.143785
     21          8           0       -6.575474   -1.761217   -0.972608
     22          8           0       -3.304709    4.397992    0.182863
     23          8           0        0.342105    2.194509    1.610741
     24          6           0        0.904229   -0.499345    0.604049
     25          6           0        1.579041   -1.550793    1.168858
     26         16           0        1.978395    0.506539   -0.301386
     27          6           0        2.967671   -1.507136    0.922931
     28          1           0        1.101772   -2.319284    1.765690
     29          6           0        3.360600   -0.456485    0.124506
     30          8           0        3.872184   -2.408653    1.390999
     31          6           0        4.701329   -0.132001   -0.314565
     32          6           0        5.086936    0.900756   -1.135967
     33         16           0        6.105675   -1.044949    0.176099
     34          6           0        6.486692    0.967573   -1.366398
     35          8           0        4.171095    1.752406   -1.667649
     36          6           0        7.154116   -0.022402   -0.714638
     37          1           0        6.962532    1.713893   -1.990282
     38          1           0        8.216756   -0.212026   -0.715589
     39          1           0        4.613236    2.488527   -2.091547
     40          1           0        3.466786   -2.970426    2.052078
     41          1           0       -5.100175   -3.701476   -0.710734
     42          1           0       -1.017763    4.111105    1.040414
 ---------------------------------------------------------------------

 The electronic state is 1-A.
 Alpha  occ. eigenvalues --  -89.05295 -89.05042 -19.29640 -19.29566 -19.25835
 Alpha  occ. eigenvalues --  -19.25772 -19.25270 -19.25262 -14.50547 -14.49985
 Alpha  occ. eigenvalues --  -10.43707 -10.43637 -10.43358 -10.43110 -10.36092
 Alpha  occ. eigenvalues --  -10.36058 -10.35993 -10.35291 -10.34958 -10.34853
 Alpha  occ. eigenvalues --  -10.34568 -10.34531 -10.34374 -10.33923 -10.33709
 Alpha  occ. eigenvalues --  -10.33569 -10.33486 -10.33430 -10.32901 -10.32376
 Alpha  occ. eigenvalues --  -10.30911 -10.30214  -8.09320  -8.09066  -6.04181
 Alpha  occ. eigenvalues --   -6.03915  -6.03775  -6.03515  -6.03374  -6.03145
 Alpha  occ. eigenvalues --   -1.20140  -1.19761  -1.18724  -1.18617  -1.18344
 Alpha  occ. eigenvalues --   -1.17908  -1.07023  -1.06440  -1.03503  -1.01143
 Alpha  occ. eigenvalues --   -0.99498  -0.97851  -0.94618  -0.91113  -0.89520
 Alpha  occ. eigenvalues --   -0.87682  -0.84661  -0.83765  -0.83041  -0.81475
 Alpha  occ. eigenvalues --   -0.81001  -0.77896  -0.76821  -0.75132  -0.72639
 Alpha  occ. eigenvalues --   -0.71292  -0.70723  -0.69887  -0.68394  -0.66471
 Alpha  occ. eigenvalues --   -0.65766  -0.64590  -0.63609  -0.61642  -0.60779
 Alpha  occ. eigenvalues --   -0.59991  -0.59740  -0.59461  -0.58780  -0.57850
 Alpha  occ. eigenvalues --   -0.57479  -0.56558  -0.56408  -0.55148  -0.54999
 Alpha  occ. eigenvalues --   -0.54773  -0.54081  -0.53729  -0.53169  -0.52270
 Alpha  occ. eigenvalues --   -0.51993  -0.51924  -0.51640  -0.51390  -0.51275
 Alpha  occ. eigenvalues --   -0.49176  -0.47847  -0.47432  -0.46826  -0.46568
 Alpha  occ. eigenvalues --   -0.46175  -0.44923  -0.44032  -0.43348  -0.42178
 Alpha  occ. eigenvalues --   -0.41107  -0.40539  -0.39561  -0.39427  -0.38816
 Alpha  occ. eigenvalues --   -0.38256  -0.37830  -0.37083  -0.35491  -0.33896
 Alpha  occ. eigenvalues --   -0.32462  -0.32110  -0.26611
 Alpha virt. eigenvalues --   -0.07865  -0.01332  -0.00280   0.01719   0.02989
 Alpha virt. eigenvalues --    0.04416   0.05225   0.05266   0.06234   0.06256
 Alpha virt. eigenvalues --    0.06504   0.07175   0.07610   0.07771   0.07929

 Mulliken charges:
               1
     1  C    0.433272
     2  C   -0.126149
     3  C    0.175986
     4  C    0.209421
     5  C    0.290539
     6  C   -0.193402
     7  C    0.103531
     8  C   -0.125288
     9  C    0.210120
    10  C    0.080674
    11  C    0.282332
    12  C    0.097918
    13  C   -0.443159
    14  C   -0.599108
    15  H    0.191246
    16  H    0.191650
    17  H    0.188342
    18  N   -0.365259
    19  N   -0.453140
    20  O   -0.267043
    21  O   -0.262286
    22  O   -0.273883
    23  O   -0.212001
    24  C    0.336896
    25  C   -0.293380
    26  S   -0.721086
    27  C   -0.378916
    28  H    0.147926
    29  C    0.377738
    30  O   -0.240448
    31  C    0.722662
    32  C    0.372552
    33  S   -0.287587
    34  C   -0.309871
    35  O   -0.262771
    36  C   -0.280138
    37  H    0.143524
    38  H    0.189869
    39  H    0.283530
    40  H    0.282775
    41  H    0.396440
    42  H    0.385971
 Sum of Mulliken charges =  -0.00000

 Dipole moment (field-independent basis, Debye):
    X=              2.6979    Y=              0.1882    Z=             -0.2679  Tot=              2.7177
 Quadrupole moment (field-independent basis, Debye-Ang):
   XX=           -186.1613   YY=           -200.6184   ZZ=           -190.7065
   XY=              7.0038   XZ=            -10.3145   YZ=            -14.0986

 Normal termination of Gaussian 16 at Wed Nov 18 10:28:41 2020.
