 Gaussian 16, Revision C.01,
 Gaussian 16:  ES64L-G16RevC.01  3-Jul-2019

 --------------------------------------
 # opt=modredundant wb97xd/6-311+g(d,p)
 --------------------------------------

 ------------
 NDI_-130.pdb
 ------------
 Symbolic Z-matrix:
 Charge =  0 Multiplicity = 1

 SCF Done:  E(RwB97XD) =  -2201.51844061     A.U. after   19 cycles
 SCF Done:  E(RwB97XD) =  -2201.54909767     A.U. after   19 cycles
 SCF Done:  E(RwB97XD) =  -2201.55464444     A.U. after   16 cycles
 SCF Done:  E(RwB97XD) =  -2201.56612602     A.U. after   17 cycles
 SCF Done:  E(RwB97XD) =  -2201.56781254     A.U. after   16 cycles
 SCF Done:  E(RwB97XD) =  -2201.56824313     A.U. after   16 cycles
 SCF Done:  E(RwB97XD) =  -2201.56862119     A.U. after   16 cycles
 SCF Done:  E(RwB97XD) =  -2201.56876280     A.U. after   15 cycles
 SCF Done:  E(RwB97XD) =  -2201.56883298     A.U. after   13 cycles
 SCF Done:  E(RwB97XD) =  -2201.56885407     A.U. after   13 cycles
 SCF Done:  E(RwB97XD) =  -2201.56891310     A.U. after   14 cycles
 SCF Done:  E(RwB97XD) =  -2201.56870573     A.U. after   15 cycles
 SCF Done:  E(RwB97XD) =  -2201.56892080     A.U. after   15 cycles
 SCF Done:  E(RwB97XD) =  -2201.56891720     A.U. after   14 cycles
 SCF Done:  E(RwB97XD) =  -2201.56892664     A.U. after   13 cycles
 SCF Done:  E(RwB97XD) =  -2201.56892745     A.U. after   13 cycles
 SCF Done:  E(RwB97XD) =  -2201.56892753     A.U. after   11 cycles
 SCF Done:  E(RwB97XD) =  -2201.56892765     A.U. after   11 cycles
 SCF Done:  E(RwB97XD) =  -2201.56892770     A.U. after   11 cycles
 SCF Done:  E(RwB97XD) =  -2201.56892775     A.U. after   11 cycles
 Optimization completed.
    -- Stationary point found.

                         Standard orientation:
 ---------------------------------------------------------------------
 Center     Atomic      Atomic             Coordinates (Angstroms)
 Number     Number       Type             X           Y           Z
 ---------------------------------------------------------------------
      1          6           0       -3.276567   -2.914064    0.258779
      2          6           0       -2.599363   -1.609023    0.028099
      3          6           0       -3.339144   -0.404788    0.089068
      4          6           0       -4.721659   -0.406364    0.387143
      5          6           0       -5.424760   -1.694476    0.633492
      6          6           0       -1.253167   -1.581591   -0.207840
      7          6           0       -2.673889    0.816592   -0.157156
      8          6           0       -1.280861    0.820938   -0.455244
      9          6           0       -0.558742   -0.365995   -0.432212
     10          6           0       -0.667116    2.107207   -0.905268
     11          6           0       -2.774729    3.324434   -0.333991
     12          6           0       -3.428343    2.014637   -0.080705
     13          6           0       -4.769191    1.990180    0.222930
     14          6           0       -5.424656    0.772269    0.455671
     15          1           0       -6.481722    0.741943    0.690213
     16          1           0       -5.304948    2.930208    0.277335
     17          1           0       -0.699133   -2.512810   -0.196869
     18          7           0       -1.444521    3.244961   -0.701941
     19          7           0       -4.632552   -2.831585    0.542304
     20          8           0       -2.715183   -3.981859    0.208407
     21          8           0       -6.600890   -1.778374    0.893824
     22          8           0       -3.341247    4.388773   -0.251283
     23          8           0        0.407647    2.208314   -1.441586
     24          6           0        0.903722   -0.467947   -0.559371
     25          6           0        1.589259   -1.289202   -1.406956
     26         16           0        1.961925    0.319532    0.553802
     27          6           0        2.988128   -1.240003   -1.193013
     28          1           0        1.115030   -1.890472   -2.173697
     29          6           0        3.369223   -0.417962   -0.159424
     30          8           0        3.907662   -1.944279   -1.906417
     31          6           0        4.711912   -0.156570    0.318207
     32          6           0        5.086458    0.645544    1.368904
     33         16           0        6.131654   -0.847147   -0.425245
     34          6           0        6.490138    0.714457    1.575938
     35          8           0        4.157674    1.289359    2.126006
     36          6           0        7.172161   -0.042055    0.674628
     37          1           0        6.958327    1.295707    2.360618
     38          1           0        8.240591   -0.176307    0.600469
     39          1           0        4.587094    1.913728    2.711360
     40          1           0        3.503654   -2.309948   -2.693790
     41          1           0       -5.104809   -3.712280    0.704280
     42          1           0       -1.010021    4.115653   -0.981071
 ---------------------------------------------------------------------

 The electronic state is 1-A.
 Alpha  occ. eigenvalues --  -89.05100 -89.04763 -19.29356 -19.29325 -19.25910
 Alpha  occ. eigenvalues --  -19.25880 -19.25470 -19.25460 -14.50640 -14.50168
 Alpha  occ. eigenvalues --  -10.43790 -10.43753 -10.43537 -10.43320 -10.35915
 Alpha  occ. eigenvalues --  -10.35840 -10.35703 -10.35468 -10.35217 -10.35149
 Alpha  occ. eigenvalues --  -10.34737 -10.34717 -10.34612 -10.33804 -10.33721
 Alpha  occ. eigenvalues --  -10.33704 -10.33654 -10.33112 -10.32628 -10.32070
 Alpha  occ. eigenvalues --  -10.30553 -10.29957  -8.09124  -8.08787  -6.03987
 Alpha  occ. eigenvalues --   -6.03637  -6.03584  -6.03236  -6.03174  -6.02866
 Alpha  occ. eigenvalues --   -1.20239  -1.19939  -1.18444  -1.18428  -1.18340
 Alpha  occ. eigenvalues --   -1.18101  -1.07142  -1.06607  -1.03670  -1.00937
 Alpha  occ. eigenvalues --   -0.99309  -0.97877  -0.94799  -0.91103  -0.89674
 Alpha  occ. eigenvalues --   -0.87526  -0.84380  -0.83520  -0.82929  -0.81637
 Alpha  occ. eigenvalues --   -0.81019  -0.78006  -0.76891  -0.75252  -0.72816
 Alpha  occ. eigenvalues --   -0.71119  -0.70519  -0.69724  -0.68414  -0.66605
 Alpha  occ. eigenvalues --   -0.65495  -0.64589  -0.63362  -0.61777  -0.60920
 Alpha  occ. eigenvalues --   -0.60061  -0.59855  -0.59482  -0.58775  -0.57946
 Alpha  occ. eigenvalues --   -0.57295  -0.56813  -0.56464  -0.55248  -0.55132
 Alpha  occ. eigenvalues --   -0.54853  -0.54146  -0.53450  -0.52966  -0.52307
 Alpha  occ. eigenvalues --   -0.51998  -0.51853  -0.51684  -0.51507  -0.51186
 Alpha  occ. eigenvalues --   -0.49267  -0.47870  -0.47372  -0.46700  -0.46248
 Alpha  occ. eigenvalues --   -0.45738  -0.44666  -0.44081  -0.43170  -0.42001
 Alpha  occ. eigenvalues --   -0.41282  -0.40655  -0.39647  -0.39520  -0.38985
 Alpha  occ. eigenvalues --   -0.38248  -0.37705  -0.37018  -0.35675  -0.34062
 Alpha  occ. eigenvalues --   -0.32301  -0.31950  -0.26489
 Alpha virt. eigenvalues --   -0.07933  -0.01019  -0.00281   0.01652   0.02732
 Alpha virt. eigenvalues --    0.04539   0.05117   0.05367   0.06147   0.06394
 Alpha virt. eigenvalues --    0.06520   0.07010   0.07503   0.07631   0.07826

 Mulliken charges:
               1
     1  C    0.500019
     2  C   -0.153919
     3  C    0.190557
     4  C    0.187302
     5  C    0.291335
     6  C   -0.338050
     7  C    0.110029
     8  C   -0.182104
     9  C    0.160186
    10  C    0.141791
    11  C    0.264902
    12  C    0.098584
    13  C   -0.397607
    14  C   -0.647596
    15  H    0.192246
    16  H    0.191898
    17  H    0.195726
    18  N   -0.391947
    19  N   -0.451173
    20  O   -0.262691
    21  O   -0.263718
    22  O   -0.271623
    23  O   -0.195231
    24  C    0.511535
    25  C   -0.419664
    26  S   -0.546447
    27  C   -0.407920
    28  H    0.144302
    29  C    0.394204
    30  O   -0.240141
    31  C    0.681793
    32  C    0.374038
    33  S   -0.297332
    34  C   -0.295075
    35  O   -0.269197
    36  C   -0.282029
    37  H    0.142368
    38  H    0.188481
    39  H    0.282914
    40  H    0.282558
    41  H    0.397405
    42  H    0.389292
 Sum of Mulliken charges =  -0.00000

 Dipole moment (field-independent basis, Debye):
    X=              1.9352    Y=              0.4208    Z=              0.1189  Tot=              1.9840
 Quadrupole moment (field-independent basis, Debye-Ang):
   XX=           -188.2904   YY=           -206.5527   ZZ=           -183.7445
   XY=              5.8397   XZ=             10.9581   YZ=             14.0600

 Normal termination of Gaussian 16 at Tue Nov 17 19:48:27 2020.
