 Gaussian 16, Revision C.01,
 Gaussian 16:  ES64L-G16RevC.01  3-Jul-2019

 --------------------------------------
 # opt=modredundant wb97xd/6-311+g(d,p)
 --------------------------------------

 -----------
 NDI_100.pdb
 -----------
 Symbolic Z-matrix:
 Charge =  0 Multiplicity = 1

 SCF Done:  E(RwB97XD) =  -2201.52453350     A.U. after   19 cycles
 SCF Done:  E(RwB97XD) =  -2201.55618505     A.U. after   17 cycles
 SCF Done:  E(RwB97XD) =  -2201.56456704     A.U. after   16 cycles
 SCF Done:  E(RwB97XD) =  -2201.56793706     A.U. after   16 cycles
 SCF Done:  E(RwB97XD) =  -2201.56839869     A.U. after   16 cycles
 SCF Done:  E(RwB97XD) =  -2201.56868468     A.U. after   15 cycles
 SCF Done:  E(RwB97XD) =  -2201.56874915     A.U. after   14 cycles
 SCF Done:  E(RwB97XD) =  -2201.56879547     A.U. after   14 cycles
 SCF Done:  E(RwB97XD) =  -2201.56881220     A.U. after   15 cycles
 SCF Done:  E(RwB97XD) =  -2201.56882062     A.U. after   13 cycles
 SCF Done:  E(RwB97XD) =  -2201.56897449     A.U. after   14 cycles
 SCF Done:  E(RwB97XD) =  -2201.56897504     A.U. after   11 cycles
 SCF Done:  E(RwB97XD) =  -2201.56897689     A.U. after   11 cycles
 SCF Done:  E(RwB97XD) =  -2201.56897764     A.U. after   12 cycles
 SCF Done:  E(RwB97XD) =  -2201.56897820     A.U. after   13 cycles
 SCF Done:  E(RwB97XD) =  -2201.56897875     A.U. after   11 cycles
 SCF Done:  E(RwB97XD) =  -2201.56897935     A.U. after   11 cycles
 SCF Done:  E(RwB97XD) =  -2201.56897990     A.U. after   11 cycles
 SCF Done:  E(RwB97XD) =  -2201.56898027     A.U. after   11 cycles
 SCF Done:  E(RwB97XD) =  -2201.56898038     A.U. after   10 cycles
 Optimization completed.
    -- Stationary point found.

                         Standard orientation:
 ---------------------------------------------------------------------
 Center     Atomic      Atomic             Coordinates (Angstroms)
 Number     Number       Type             X           Y           Z
 ---------------------------------------------------------------------
      1          6           0        3.160582   -2.959453   -0.025508
      2          6           0        2.538131   -1.609471   -0.104752
      3          6           0        3.334934   -0.450393    0.038768
      4          6           0        4.728514   -0.542362    0.269236
      5          6           0        5.379244   -1.877910    0.359248
      6          6           0        1.189463   -1.499194   -0.308285
      7          6           0        2.720473    0.818793   -0.050673
      8          6           0        1.317963    0.913407   -0.281620
      9          6           0        0.553423   -0.237971   -0.394900
     10          6           0        0.709700    2.272697   -0.431185
     11          6           0        2.936294    3.325169    0.021728
     12          6           0        3.536172    1.968558    0.103615
     13          6           0        4.886702    1.854623    0.331203
     14          6           0        5.490620    0.590849    0.413586
     15          1           0        6.554489    0.490240    0.591085
     16          1           0        5.470992    2.759675    0.445662
     17          1           0        0.592262   -2.398814   -0.399824
     18          7           0        1.577128    3.342889   -0.228240
     19          7           0        4.530003   -2.964602    0.201981
     20          8           0        2.546407   -3.991286   -0.146912
     21          8           0        6.560483   -2.036346    0.553313
     22          8           0        3.563816    4.349342    0.153625
     23          8           0       -0.441279    2.488165   -0.715496
     24          6           0       -0.912727   -0.249544   -0.591937
     25          6           0       -1.588606   -0.433867   -1.756818
     26         16           0       -1.977129   -0.130443    0.759861
     27          6           0       -2.995612   -0.441071   -1.563390
     28          1           0       -1.108183   -0.539668   -2.721805
     29          6           0       -3.385955   -0.287639   -0.257450
     30          8           0       -3.909897   -0.609431   -2.557647
     31          6           0       -4.735879   -0.244232    0.270224
     32          6           0       -5.119906   -0.124655    1.583014
     33         16           0       -6.150409   -0.316122   -0.748488
     34          6           0       -6.527018   -0.084889    1.776196
     35          8           0       -4.197382   -0.064556    2.582495
     36          6           0       -7.202303   -0.175221    0.599204
     37          1           0       -7.002442    0.001497    2.745434
     38          1           0       -8.271251   -0.174852    0.449726
     39          1           0       -4.623315    0.170992    3.406979
     40          1           0       -3.504016   -0.437921   -3.407822
     41          1           0        4.964946   -3.876966    0.259884
     42          1           0        1.154771    4.258388   -0.319508
 ---------------------------------------------------------------------

 The electronic state is 1-A.
 Alpha  occ. eigenvalues --  -89.04882 -89.04458 -19.29033 -19.28983 -19.26005
 Alpha  occ. eigenvalues --  -19.25999 -19.25711 -19.25706 -14.50751 -14.50422
 Alpha  occ. eigenvalues --  -10.43888 -10.43884 -10.43800 -10.43559 -10.35960
 Alpha  occ. eigenvalues --  -10.35707 -10.35553 -10.35501 -10.35463 -10.35323
 Alpha  occ. eigenvalues --  -10.34928 -10.34906 -10.34880 -10.33979 -10.33894
 Alpha  occ. eigenvalues --  -10.33894 -10.33441 -10.32581 -10.32318 -10.31740
 Alpha  occ. eigenvalues --  -10.30079 -10.29674  -8.08898  -8.08483  -6.03762
 Alpha  occ. eigenvalues --   -6.03359  -6.03332  -6.02947  -6.02933  -6.02562
 Alpha  occ. eigenvalues --   -1.20358  -1.20188  -1.18562  -1.18354  -1.18065
 Alpha  occ. eigenvalues --   -1.17975  -1.07293  -1.06820  -1.03864  -1.00700
 Alpha  occ. eigenvalues --   -0.99130  -0.97854  -0.95005  -0.91103  -0.89860
 Alpha  occ. eigenvalues --   -0.87321  -0.84068  -0.83318  -0.82709  -0.81845
 Alpha  occ. eigenvalues --   -0.81010  -0.78177  -0.76950  -0.75421  -0.73033
 Alpha  occ. eigenvalues --   -0.70970  -0.70243  -0.69519  -0.68430  -0.66777
 Alpha  occ. eigenvalues --   -0.65187  -0.64614  -0.63048  -0.61956  -0.61120
 Alpha  occ. eigenvalues --   -0.60173  -0.59948  -0.59518  -0.58661  -0.58092
 Alpha  occ. eigenvalues --   -0.57225  -0.57047  -0.56467  -0.55404  -0.55273
 Alpha  occ. eigenvalues --   -0.54961  -0.54219  -0.53065  -0.52756  -0.52406
 Alpha  occ. eigenvalues --   -0.52084  -0.51978  -0.51741  -0.51510  -0.50881
 Alpha  occ. eigenvalues --   -0.49365  -0.47943  -0.47313  -0.46469  -0.45925
 Alpha  occ. eigenvalues --   -0.45097  -0.44467  -0.44134  -0.42914  -0.41767
 Alpha  occ. eigenvalues --   -0.41439  -0.40783  -0.39711  -0.39627  -0.39286
 Alpha  occ. eigenvalues --   -0.38347  -0.37700  -0.36794  -0.35751  -0.34361
 Alpha  occ. eigenvalues --   -0.32083  -0.31728  -0.26339
 Alpha virt. eigenvalues --   -0.08035  -0.00922  -0.00108   0.01751   0.02193
 Alpha virt. eigenvalues --    0.04597   0.05041   0.05562   0.06115   0.06566
 Alpha virt. eigenvalues --    0.06623   0.06866   0.07324   0.07449   0.07695

 Mulliken charges:
               1
     1  C    0.580275
     2  C   -0.152714
     3  C    0.280920
     4  C    0.162043
     5  C    0.267070
     6  C   -0.518412
     7  C    0.203824
     8  C   -0.244079
     9  C    0.221418
    10  C    0.205816
    11  C    0.275211
    12  C    0.132810
    13  C   -0.445772
    14  C   -0.739632
    15  H    0.193139
    16  H    0.192648
    17  H    0.200204
    18  N   -0.462240
    19  N   -0.452655
    20  O   -0.256037
    21  O   -0.264889
    22  O   -0.266990
    23  O   -0.144289
    24  C    0.544119
    25  C   -0.595933
    26  S   -0.241213
    27  C   -0.419050
    28  H    0.133480
    29  C    0.275463
    30  O   -0.251470
    31  C    0.593053
    32  C    0.481968
    33  S   -0.324330
    34  C   -0.317541
    35  O   -0.277226
    36  C   -0.258896
    37  H    0.141309
    38  H    0.186912
    39  H    0.282810
    40  H    0.283126
    41  H    0.398796
    42  H    0.396955
 Sum of Mulliken charges =  -0.00000

 Dipole moment (field-independent basis, Debye):
    X=             -1.0566    Y=              0.7466    Z=              0.0972  Tot=              1.2975
 Quadrupole moment (field-independent basis, Debye-Ang):
   XX=           -190.4002   YY=           -215.6444   ZZ=           -173.6801
   XY=             -2.1577   XZ=            -12.1843   YZ=              1.9622

 Normal termination of Gaussian 16 at Wed Nov 18 00:38:38 2020.
