 Gaussian 16, Revision C.01,
 Gaussian 16:  ES64L-G16RevC.01  3-Jul-2019

 --------------------------------------
 # opt=modredundant wb97xd/6-311+g(d,p)
 --------------------------------------

 ------------
 NDI_-110.pdb
 ------------
 Symbolic Z-matrix:
 Charge =  0 Multiplicity = 1

 SCF Done:  E(RwB97XD) =  -2201.52301681     A.U. after   19 cycles
 SCF Done:  E(RwB97XD) =  -2201.55513476     A.U. after   15 cycles
 SCF Done:  E(RwB97XD) =  -2201.56475189     A.U. after   17 cycles
 SCF Done:  E(RwB97XD) =  -2201.56818241     A.U. after   15 cycles
 SCF Done:  E(RwB97XD) =  -2201.56852741     A.U. after   15 cycles
 SCF Done:  E(RwB97XD) =  -2201.56891656     A.U. after   14 cycles
 SCF Done:  E(RwB97XD) =  -2201.56899293     A.U. after   14 cycles
 SCF Done:  E(RwB97XD) =  -2201.56902517     A.U. after   14 cycles
 SCF Done:  E(RwB97XD) =  -2201.56903438     A.U. after   12 cycles
 SCF Done:  E(RwB97XD) =  -2201.56903877     A.U. after   12 cycles
 SCF Done:  E(RwB97XD) =  -2201.56908034     A.U. after   14 cycles
 SCF Done:  E(RwB97XD) =  -2201.56907844     A.U. after   13 cycles
 SCF Done:  E(RwB97XD) =  -2201.56883800     A.U. after   15 cycles
 SCF Done:  E(RwB97XD) =  -2201.56906751     A.U. after   15 cycles
 SCF Done:  E(RwB97XD) =  -2201.56908077     A.U. after   14 cycles
 SCF Done:  E(RwB97XD) =  -2201.56908075     A.U. after   12 cycles
 SCF Done:  E(RwB97XD) =  -2201.56908203     A.U. after   11 cycles
 SCF Done:  E(RwB97XD) =  -2201.56908213     A.U. after   10 cycles
 SCF Done:  E(RwB97XD) =  -2201.56908221     A.U. after   10 cycles
 SCF Done:  E(RwB97XD) =  -2201.56908233     A.U. after   11 cycles
 Optimization completed.
    -- Stationary point found.

                         Standard orientation:
 ---------------------------------------------------------------------
 Center     Atomic      Atomic             Coordinates (Angstroms)
 Number     Number       Type             X           Y           Z
 ---------------------------------------------------------------------
      1          6           0       -3.228767   -2.939069    0.125622
      2          6           0       -2.574248   -1.611400   -0.031321
      3          6           0       -3.340206   -0.426571    0.064183
      4          6           0       -4.730845   -0.470401    0.323174
      5          6           0       -5.412456   -1.782394    0.493247
      6          6           0       -1.225049   -1.545832   -0.249232
      7          6           0       -2.696689    0.819781   -0.104588
      8          6           0       -1.296962    0.866353   -0.363558
      9          6           0       -0.558152   -0.307019   -0.406195
     10          6           0       -0.672415    2.194634   -0.652736
     11          6           0       -2.847854    3.331067   -0.162909
     12          6           0       -3.479793    1.996939    0.004445
     13          6           0       -4.827783    1.930040    0.264197
     14          6           0       -5.461402    0.688343    0.422893
     15          1           0       -6.523747    0.624698    0.624899
     16          1           0       -5.386752    2.854628    0.343549
     17          1           0       -0.650220   -2.463565   -0.289715
     18          7           0       -1.498146    3.299188   -0.459380
     19          7           0       -4.593420   -2.897266    0.376337
     20          8           0       -2.643060   -3.991419    0.045271
     21          8           0       -6.593294   -1.900843    0.716097
     22          8           0       -3.444432    4.377221   -0.063724
     23          8           0        0.455152    2.357003   -1.045594
     24          6           0        0.907727   -0.364114   -0.579422
     25          6           0        1.591804   -0.804965   -1.669562
     26         16           0        1.963895    0.035140    0.724660
     27          6           0        2.996559   -0.779363   -1.467020
     28          1           0        1.117431   -1.114462   -2.592981
     29          6           0        3.378157   -0.350039   -0.220767
     30          8           0        3.917142   -1.163814   -2.392682
     31          6           0        4.723968   -0.210806    0.300321
     32          6           0        5.098552    0.193697    1.558024
     33         16           0        6.146082   -0.533489   -0.657595
     34          6           0        6.504310    0.252106    1.755635
     35          8           0        4.168566    0.491263    2.506350
     36          6           0        7.188153   -0.111504    0.637789
     37          1           0        6.972777    0.546031    2.686786
     38          1           0        8.258231   -0.161750    0.505826
     39          1           0        4.591249    0.898135    3.263021
     40          1           0        3.514729   -1.197041   -3.260937
     41          1           0       -5.049945   -3.793994    0.487722
     42          1           0       -1.062675    4.195277   -0.638975
 ---------------------------------------------------------------------

 The electronic state is 1-A.
 Alpha  occ. eigenvalues --  -89.04914 -89.04528 -19.29110 -19.29065 -19.25979
 Alpha  occ. eigenvalues --  -19.25975 -19.25650 -19.25648 -14.50724 -14.50353
 Alpha  occ. eigenvalues --  -10.43863 -10.43855 -10.43725 -10.43500 -10.35932
 Alpha  occ. eigenvalues --  -10.35643 -10.35556 -10.35445 -10.35433 -10.35409
 Alpha  occ. eigenvalues --  -10.34877 -10.34868 -10.34816 -10.33920 -10.33875
 Alpha  occ. eigenvalues --  -10.33838 -10.33502 -10.32701 -10.32390 -10.31815
 Alpha  occ. eigenvalues --  -10.30197 -10.29738  -8.08932  -8.08552  -6.03797
 Alpha  occ. eigenvalues --   -6.03402  -6.03394  -6.03002  -6.02981  -6.02632
 Alpha  occ. eigenvalues --   -1.20329  -1.20123  -1.18534  -1.18290  -1.18153
 Alpha  occ. eigenvalues --   -1.18064  -1.07255  -1.06766  -1.03817  -1.00749
 Alpha  occ. eigenvalues --   -0.99168  -0.97863  -0.94956  -0.91099  -0.89815
 Alpha  occ. eigenvalues --   -0.87369  -0.84127  -0.83351  -0.82779  -0.81793
 Alpha  occ. eigenvalues --   -0.81011  -0.78130  -0.76939  -0.75374  -0.72978
 Alpha  occ. eigenvalues --   -0.70999  -0.70306  -0.69572  -0.68425  -0.66733
 Alpha  occ. eigenvalues --   -0.65257  -0.64607  -0.63122  -0.61911  -0.61064
 Alpha  occ. eigenvalues --   -0.60139  -0.59935  -0.59502  -0.58698  -0.58056
 Alpha  occ. eigenvalues --   -0.57179  -0.57041  -0.56474  -0.55365  -0.55241
 Alpha  occ. eigenvalues --   -0.54932  -0.54212  -0.53159  -0.52799  -0.52375
 Alpha  occ. eigenvalues --   -0.52056  -0.51935  -0.51689  -0.51558  -0.50964
 Alpha  occ. eigenvalues --   -0.49345  -0.47926  -0.47290  -0.46529  -0.45994
 Alpha  occ. eigenvalues --   -0.45281  -0.44486  -0.44118  -0.42971  -0.41811
 Alpha  occ. eigenvalues --   -0.41414  -0.40754  -0.39706  -0.39601  -0.39191
 Alpha  occ. eigenvalues --   -0.38313  -0.37679  -0.36835  -0.35772  -0.34277
 Alpha  occ. eigenvalues --   -0.32133  -0.31781  -0.26375
 Alpha virt. eigenvalues --   -0.08007  -0.00919  -0.00157   0.01686   0.02370
 Alpha virt. eigenvalues --    0.04606   0.05040   0.05513   0.06118   0.06531
 Alpha virt. eigenvalues --    0.06590   0.06884   0.07373   0.07493   0.07737

 Mulliken charges:
               1
     1  C    0.567861
     2  C   -0.165802
     3  C    0.250566
     4  C    0.162247
     5  C    0.282584
     6  C   -0.443784
     7  C    0.170184
     8  C   -0.258485
     9  C    0.155118
    10  C    0.212187
    11  C    0.260963
    12  C    0.132999
    13  C   -0.413250
    14  C   -0.724970
    15  H    0.193034
    16  H    0.192343
    17  H    0.198942
    18  N   -0.436548
    19  N   -0.451049
    20  O   -0.258107
    21  O   -0.264895
    22  O   -0.268869
    23  O   -0.163450
    24  C    0.597442
    25  C   -0.531276
    26  S   -0.355174
    27  C   -0.435996
    28  H    0.135880
    29  C    0.332949
    30  O   -0.245983
    31  C    0.611484
    32  C    0.437331
    33  S   -0.315502
    34  C   -0.305386
    35  O   -0.275110
    36  C   -0.267544
    37  H    0.141505
    38  H    0.187272
    39  H    0.283010
    40  H    0.282962
    41  H    0.398448
    42  H    0.393870
 Sum of Mulliken charges =  -0.00000

 Dipole moment (field-independent basis, Debye):
    X=              1.2680    Y=              0.6881    Z=              0.0551  Tot=              1.4438
 Quadrupole moment (field-independent basis, Debye-Ang):
   XX=           -189.9847   YY=           -213.5772   ZZ=           -175.9492
   XY=              3.8569   XZ=             11.8056   YZ=              8.0550

 Normal termination of Gaussian 16 at Wed Nov 18 00:56:51 2020.
