 Gaussian 16, Revision C.01,
 Gaussian 16:  ES64L-G16RevC.01  3-Jul-2019

 --------------------------------------
 # opt=modredundant wb97xd/6-311+g(d,p)
 --------------------------------------

 ----------
 NDI_20.pdb
 ----------
 Symbolic Z-matrix:
 Charge =  0 Multiplicity = 1

 SCF Done:  E(RwB97XD) =  -2201.51494014     A.U. after   19 cycles
 SCF Done:  E(RwB97XD) =  -2201.52954477     A.U. after   19 cycles
 SCF Done:  E(RwB97XD) =  -2201.55434825     A.U. after   17 cycles
 SCF Done:  E(RwB97XD) =  -2201.56192441     A.U. after   16 cycles
 SCF Done:  E(RwB97XD) =  -2201.56517161     A.U. after   17 cycles
 SCF Done:  E(RwB97XD) =  -2201.56576308     A.U. after   14 cycles
 SCF Done:  E(RwB97XD) =  -2201.56601075     A.U. after   14 cycles
 SCF Done:  E(RwB97XD) =  -2201.56611373     A.U. after   17 cycles
 SCF Done:  E(RwB97XD) =  -2201.56658460     A.U. after   14 cycles
 SCF Done:  E(RwB97XD) =  -2201.56685224     A.U. after   16 cycles
 SCF Done:  E(RwB97XD) =  -2201.56733668     A.U. after   16 cycles
 SCF Done:  E(RwB97XD) =  -2201.56742778     A.U. after   15 cycles
 SCF Done:  E(RwB97XD) =  -2201.56743858     A.U. after   13 cycles
 SCF Done:  E(RwB97XD) =  -2201.56744218     A.U. after   12 cycles
 SCF Done:  E(RwB97XD) =  -2201.56744370     A.U. after   11 cycles
 SCF Done:  E(RwB97XD) =  -2201.56744459     A.U. after   12 cycles
 SCF Done:  E(RwB97XD) =  -2201.56744559     A.U. after   12 cycles
 SCF Done:  E(RwB97XD) =  -2201.56744645     A.U. after   12 cycles
 SCF Done:  E(RwB97XD) =  -2201.56744708     A.U. after   12 cycles
 SCF Done:  E(RwB97XD) =  -2201.56744716     A.U. after   11 cycles
 Optimization completed.
    -- Stationary point found.

                         Standard orientation:
 ---------------------------------------------------------------------
 Center     Atomic      Atomic             Coordinates (Angstroms)
 Number     Number       Type             X           Y           Z
 ---------------------------------------------------------------------
      1          6           0        2.477521   -3.056411   -0.138300
      2          6           0        2.176661   -1.600757   -0.050825
      3          6           0        3.227214   -0.653417   -0.038348
      4          6           0        4.576565   -1.061101   -0.122043
      5          6           0        4.911343   -2.508079   -0.215748
      6          6           0        0.879063   -1.191561   -0.031956
      7          6           0        2.895977    0.716046    0.065085
      8          6           0        1.526578    1.130146    0.142335
      9          6           0        0.498829    0.181111    0.041184
     10          6           0        1.280834    2.562795    0.481097
     11          6           0        3.707172    3.094055    0.190751
     12          6           0        3.971354    1.642173    0.068343
     13          6           0        5.280213    1.225930   -0.029632
     14          6           0        5.592400   -0.134507   -0.122555
     15          1           0        6.618487   -0.473550   -0.193091
     16          1           0        6.059368    1.978659   -0.029159
     17          1           0        0.117659   -1.959001   -0.106775
     18          7           0        2.377156    3.413600    0.375559
     19          7           0        3.825698   -3.373743   -0.209416
     20          8           0        1.633124   -3.919407   -0.148828
     21          8           0        6.039618   -2.932130   -0.290901
     22          8           0        4.560973    3.949784    0.160403
     23          8           0        0.231170    3.030100    0.859027
     24          6           0       -0.930835    0.444005   -0.137119
     25          6           0       -1.585836    1.554678   -0.600248
     26         16           0       -2.079855   -0.790641    0.305914
     27          6           0       -2.984377    1.407789   -0.615879
     28          1           0       -1.091984    2.452585   -0.937771
     29          6           0       -3.432829    0.191920   -0.144693
     30          8           0       -3.858030    2.350375   -1.059142
     31          6           0       -4.801824   -0.253569   -0.009925
     32          6           0       -5.244302   -1.477265    0.436571
     33         16           0       -6.170036    0.756158   -0.405241
     34          6           0       -6.657906   -1.607565    0.463764
     35          8           0       -4.367213   -2.443325    0.809721
     36          6           0       -7.277768   -0.474839    0.035114
     37          1           0       -7.177783   -2.500956    0.786457
     38          1           0       -8.339229   -0.297074   -0.048397
     39          1           0       -4.837819   -3.232094    1.080941
     40          1           0       -3.429912    3.207200   -1.083767
     41          1           0        4.046508   -4.359747   -0.270863
     42          1           0        2.179577    4.384068    0.584565
 ---------------------------------------------------------------------

 The electronic state is 1-A.
 Alpha  occ. eigenvalues --  -89.05692 -89.05346 -19.29980 -19.29602 -19.25666
 Alpha  occ. eigenvalues --  -19.25630 -19.25280 -19.25175 -14.50401 -14.50023
 Alpha  occ. eigenvalues --  -10.43568 -10.43528 -10.43488 -10.42959 -10.36479
 Alpha  occ. eigenvalues --  -10.36323 -10.36236 -10.35276 -10.34855 -10.34719
 Alpha  occ. eigenvalues --  -10.34381 -10.34361 -10.34140 -10.34100 -10.33969
 Alpha  occ. eigenvalues --  -10.33477 -10.33251 -10.33202 -10.33161 -10.32718
 Alpha  occ. eigenvalues --  -10.30784 -10.30512  -8.09731  -8.09367  -6.04584
 Alpha  occ. eigenvalues --   -6.04216  -6.04183  -6.03815  -6.03796  -6.03446
 Alpha  occ. eigenvalues --   -1.20002  -1.19822  -1.19093  -1.18719  -1.18197
 Alpha  occ. eigenvalues --   -1.17883  -1.06894  -1.06412  -1.03328  -1.01326
 Alpha  occ. eigenvalues --   -0.99698  -0.97777  -0.94451  -0.91059  -0.89388
 Alpha  occ. eigenvalues --   -0.87923  -0.84960  -0.84133  -0.82819  -0.81364
 Alpha  occ. eigenvalues --   -0.81192  -0.77835  -0.76717  -0.75178  -0.72534
 Alpha  occ. eigenvalues --   -0.71351  -0.70995  -0.70025  -0.68286  -0.66678
 Alpha  occ. eigenvalues --   -0.65862  -0.64553  -0.63771  -0.61518  -0.60931
 Alpha  occ. eigenvalues --   -0.59936  -0.59644  -0.59509  -0.58716  -0.57835
 Alpha  occ. eigenvalues --   -0.57631  -0.56676  -0.56246  -0.55142  -0.54806
 Alpha  occ. eigenvalues --   -0.54684  -0.53996  -0.53715  -0.53222  -0.52410
 Alpha  occ. eigenvalues --   -0.52239  -0.51786  -0.51704  -0.51273  -0.51183
 Alpha  occ. eigenvalues --   -0.48933  -0.48138  -0.47836  -0.47280  -0.46511
 Alpha  occ. eigenvalues --   -0.46211  -0.45141  -0.44120  -0.43241  -0.42327
 Alpha  occ. eigenvalues --   -0.41078  -0.40489  -0.39565  -0.39299  -0.38858
 Alpha  occ. eigenvalues --   -0.38538  -0.37798  -0.37132  -0.35268  -0.33864
 Alpha  occ. eigenvalues --   -0.32647  -0.32401  -0.26736
 Alpha virt. eigenvalues --   -0.07893  -0.01724  -0.00292   0.01862   0.03096
 Alpha virt. eigenvalues --    0.04409   0.05149   0.05557   0.06067   0.06518
 Alpha virt. eigenvalues --    0.06679   0.07196   0.07555   0.07894   0.08072

 Mulliken charges:
               1
     1  C    0.413479
     2  C   -0.186973
     3  C    0.224533
     4  C    0.184831
     5  C    0.249629
     6  C   -0.118322
     7  C    0.176288
     8  C    0.192614
     9  C    0.157719
    10  C   -0.184537
    11  C    0.346743
    12  C    0.069114
    13  C   -0.448328
    14  C   -0.532292
    15  H    0.190237
    16  H    0.191895
    17  H    0.196027
    18  N   -0.370552
    19  N   -0.449581
    20  O   -0.269118
    21  O   -0.260681
    22  O   -0.274376
    23  O   -0.240045
    24  C    0.082214
    25  C   -0.100873
    26  S   -0.721184
    27  C   -0.673753
    28  H    0.148177
    29  C    0.332643
    30  O   -0.244529
    31  C    0.846251
    32  C    0.571398
    33  S   -0.307776
    34  C   -0.373901
    35  O   -0.245350
    36  C   -0.262811
    37  H    0.144830
    38  H    0.191290
    39  H    0.285844
    40  H    0.289050
    41  H    0.397406
    42  H    0.382768
 Sum of Mulliken charges =  -0.00000

 Dipole moment (field-independent basis, Debye):
    X=             -3.5037    Y=             -0.3438    Z=             -0.1111  Tot=              3.5223
 Quadrupole moment (field-independent basis, Debye-Ang):
   XX=           -184.0005   YY=           -194.5789   ZZ=           -196.9817
   XY=              8.9235   XZ=             -3.0849   YZ=             -8.7928

 Normal termination of Gaussian 16 at Tue Nov 17 17:33:24 2020.
