 Gaussian 16, Revision C.01,
 Gaussian 16:  ES64L-G16RevC.01  3-Jul-2019

 --------------------------------------
 # opt=modredundant wb97xd/6-311+g(d,p)
 --------------------------------------

 ----------
 NDI_70.pdb
 ----------
 Symbolic Z-matrix:
 Charge =  0 Multiplicity = 1

 SCF Done:  E(RwB97XD) =  -2201.52417550     A.U. after   19 cycles
 SCF Done:  E(RwB97XD) =  -2201.55555692     A.U. after   16 cycles
 SCF Done:  E(RwB97XD) =  -2201.56421855     A.U. after   15 cycles
 SCF Done:  E(RwB97XD) =  -2201.56792731     A.U. after   15 cycles
 SCF Done:  E(RwB97XD) =  -2201.56846645     A.U. after   15 cycles
 SCF Done:  E(RwB97XD) =  -2201.56876325     A.U. after   14 cycles
 SCF Done:  E(RwB97XD) =  -2201.56890577     A.U. after   14 cycles
 SCF Done:  E(RwB97XD) =  -2201.56896758     A.U. after   14 cycles
 SCF Done:  E(RwB97XD) =  -2201.56899653     A.U. after   14 cycles
 SCF Done:  E(RwB97XD) =  -2201.56901633     A.U. after   14 cycles
 SCF Done:  E(RwB97XD) =  -2201.56919389     A.U. after   16 cycles
 SCF Done:  E(RwB97XD) =  -2201.56920984     A.U. after   13 cycles
 SCF Done:  E(RwB97XD) =  -2201.56927506     A.U. after   15 cycles
 SCF Done:  E(RwB97XD) =  -2201.56930502     A.U. after   14 cycles
 SCF Done:  E(RwB97XD) =  -2201.56930745     A.U. after   13 cycles
 SCF Done:  E(RwB97XD) =  -2201.56930598     A.U. after   13 cycles
 SCF Done:  E(RwB97XD) =  -2201.56931268     A.U. after   14 cycles
 SCF Done:  E(RwB97XD) =  -2201.56931309     A.U. after   11 cycles
 SCF Done:  E(RwB97XD) =  -2201.56931318     A.U. after   10 cycles
 SCF Done:  E(RwB97XD) =  -2201.56931323     A.U. after   10 cycles
 Optimization completed.
    -- Stationary point found.

                         Standard orientation:
 ---------------------------------------------------------------------
 Center     Atomic      Atomic             Coordinates (Angstroms)
 Number     Number       Type             X           Y           Z
 ---------------------------------------------------------------------
      1          6           0        2.865415   -2.994597   -0.393520
      2          6           0        2.379083   -1.593829   -0.258963
      3          6           0        3.297161   -0.540065   -0.041973
      4          6           0        4.687280   -0.787480    0.050020
      5          6           0        5.204626   -2.176907   -0.081397
      6          6           0        1.041312   -1.333408   -0.365841
      7          6           0        2.806253    0.778533    0.088908
      8          6           0        1.405660    1.029583   -0.005530
      9          6           0        0.528891   -0.016297   -0.262457
     10          6           0        0.918406    2.423635    0.237808
     11          6           0        3.282749    3.220705    0.461461
     12          6           0        3.745340    1.818468    0.307800
     13          6           0        5.092260    1.555249    0.388687
     14          6           0        5.570456    0.243354    0.259921
     15          1           0        6.629360    0.024600    0.324620
     16          1           0        5.771940    2.382297    0.554944
     17          1           0        0.359394   -2.154280   -0.555088
     18          7           0        1.912021    3.385616    0.402889
     19          7           0        4.240362   -3.153473   -0.288694
     20          8           0        2.142434   -3.942541   -0.581170
     21          8           0        6.375462   -2.465114   -0.015800
     22          8           0        4.021283    4.161668    0.633876
     23          8           0       -0.238422    2.755163    0.311116
     24          6           0       -0.924218    0.145266   -0.458708
     25          6           0       -1.564751    0.719784   -1.512474
     26         16           0       -2.035238   -0.564908    0.656095
     27          6           0       -2.974055    0.615079   -1.406631
     28          1           0       -1.053893    1.210299   -2.331617
     29          6           0       -3.408148   -0.049083   -0.285776
     30          8           0       -3.855690    1.094825   -2.326267
     31          6           0       -4.774454   -0.291560    0.132175
     32          6           0       -5.202119   -0.997607    1.229832
     33         16           0       -6.153302    0.334364   -0.734709
     34          6           0       -6.614160   -1.036283    1.382127
     35          8           0       -4.313762   -1.596933    2.068025
     36          6           0       -7.248731   -0.354447    0.391148
     37          1           0       -7.122198   -1.551163    2.188152
     38          1           0       -8.311719   -0.225455    0.255299
     39          1           0       -4.771536   -1.960282    2.826399
     40          1           0       -3.443309    1.787904   -2.842889
     41          1           0        4.583975   -4.101450   -0.378962
     42          1           0        1.571972    4.326141    0.559656
 ---------------------------------------------------------------------

 The electronic state is 1-A.
 Alpha  occ. eigenvalues --  -89.05145 -89.04628 -19.29235 -19.29058 -19.25925
 Alpha  occ. eigenvalues --  -19.25911 -19.25637 -19.25605 -14.50668 -14.50367
 Alpha  occ. eigenvalues --  -10.43803 -10.43794 -10.43784 -10.43470 -10.35992
 Alpha  occ. eigenvalues --  -10.35628 -10.35593 -10.35559 -10.35414 -10.35360
 Alpha  occ. eigenvalues --  -10.34827 -10.34812 -10.34746 -10.33835 -10.33799
 Alpha  occ. eigenvalues --  -10.33775 -10.33478 -10.32880 -10.32481 -10.31935
 Alpha  occ. eigenvalues --  -10.30181 -10.29845  -8.09161  -8.08651  -6.04022
 Alpha  occ. eigenvalues --   -6.03620  -6.03501  -6.03219  -6.03101  -6.02730
 Alpha  occ. eigenvalues --   -1.20277  -1.20124  -1.18478  -1.18278  -1.18268
 Alpha  occ. eigenvalues --   -1.18082  -1.07207  -1.06744  -1.03761  -1.00837
 Alpha  occ. eigenvalues --   -0.99229  -0.97877  -0.94904  -0.91085  -0.89769
 Alpha  occ. eigenvalues --   -0.87436  -0.84305  -0.83484  -0.82647  -0.81750
 Alpha  occ. eigenvalues --   -0.81122  -0.78103  -0.76879  -0.75376  -0.72942
 Alpha  occ. eigenvalues --   -0.70993  -0.70425  -0.69622  -0.68391  -0.66735
 Alpha  occ. eigenvalues --   -0.65371  -0.64550  -0.63202  -0.61849  -0.61102
 Alpha  occ. eigenvalues --   -0.60099  -0.59878  -0.59503  -0.58731  -0.58025
 Alpha  occ. eigenvalues --   -0.57277  -0.56964  -0.56467  -0.55337  -0.55163
 Alpha  occ. eigenvalues --   -0.54942  -0.54146  -0.53028  -0.52931  -0.52420
 Alpha  occ. eigenvalues --   -0.52098  -0.51831  -0.51772  -0.51568  -0.50997
 Alpha  occ. eigenvalues --   -0.49253  -0.47996  -0.47590  -0.46666  -0.46047
 Alpha  occ. eigenvalues --   -0.45002  -0.44570  -0.44296  -0.43087  -0.41775
 Alpha  occ. eigenvalues --   -0.41418  -0.40735  -0.39684  -0.39546  -0.39257
 Alpha  occ. eigenvalues --   -0.38377  -0.37743  -0.36962  -0.35566  -0.34222
 Alpha  occ. eigenvalues --   -0.32232  -0.31879  -0.26444
 Alpha virt. eigenvalues --   -0.08004  -0.00953  -0.00185   0.01646   0.02422
 Alpha virt. eigenvalues --    0.04552   0.05097   0.05503   0.06307   0.06489
 Alpha virt. eigenvalues --    0.06567   0.06944   0.07355   0.07547   0.07711

 Mulliken charges:
               1
     1  C    0.541325
     2  C   -0.162193
     3  C    0.251137
     4  C    0.160820
     5  C    0.261923
     6  C   -0.525082
     7  C    0.186659
     8  C   -0.059412
     9  C    0.261961
    10  C    0.092343
    11  C    0.297244
    12  C    0.115406
    13  C   -0.420424
    14  C   -0.657066
    15  H    0.192549
    16  H    0.192329
    17  H    0.209392
    18  N   -0.456984
    19  N   -0.454116
    20  O   -0.257860
    21  O   -0.263742
    22  O   -0.268506
    23  O   -0.132469
    24  C    0.280517
    25  C   -0.479700
    26  S   -0.414453
    27  C   -0.496718
    28  H    0.137540
    29  C    0.473937
    30  O   -0.262364
    31  C    0.613543
    32  C    0.528242
    33  S   -0.330836
    34  C   -0.332287
    35  O   -0.266528
    36  C   -0.245222
    37  H    0.141920
    38  H    0.187705
    39  H    0.282677
    40  H    0.283614
    41  H    0.398400
    42  H    0.394781
 Sum of Mulliken charges =  -0.00000

 Dipole moment (field-independent basis, Debye):
    X=             -1.5055    Y=              0.4457    Z=              0.2575  Tot=              1.5910
 Quadrupole moment (field-independent basis, Debye-Ang):
   XX=           -188.7312   YY=           -207.9360   ZZ=           -181.9026
   XY=              4.1424   XZ=            -10.9093   YZ=            -14.1130

 Normal termination of Gaussian 16 at Tue Nov 17 21:21:57 2020.
