 Gaussian 16, Revision C.01,
 Gaussian 16:  ES64L-G16RevC.01  3-Jul-2019

 --------------------------------------
 # opt=modredundant wb97xd/6-311+g(d,p)
 --------------------------------------

 -----------
 NDI_170.pdb
 -----------
 Symbolic Z-matrix:
 Charge =  0 Multiplicity = 1

 SCF Done:  E(RwB97XD) =  -2201.48373450     A.U. after   20 cycles
 SCF Done:  E(RwB97XD) =  -2201.52220961     A.U. after   20 cycles
 SCF Done:  E(RwB97XD) =  -2201.55044279     A.U. after   17 cycles
 SCF Done:  E(RwB97XD) =  -2201.55801090     A.U. after   17 cycles
 SCF Done:  E(RwB97XD) =  -2201.56207055     A.U. after   17 cycles
 SCF Done:  E(RwB97XD) =  -2201.56292843     A.U. after   17 cycles
 SCF Done:  E(RwB97XD) =  -2201.56316232     A.U. after   17 cycles
 SCF Done:  E(RwB97XD) =  -2201.56335591     A.U. after   17 cycles
 SCF Done:  E(RwB97XD) =  -2201.56350370     A.U. after   16 cycles
 SCF Done:  E(RwB97XD) =  -2201.56380298     A.U. after   16 cycles
 SCF Done:  E(RwB97XD) =  -2201.56438474     A.U. after   14 cycles
 SCF Done:  E(RwB97XD) =  -2201.56395010     A.U. after   16 cycles
 SCF Done:  E(RwB97XD) =  -2201.56412380     A.U. after   15 cycles
 SCF Done:  E(RwB97XD) =  -2201.56432807     A.U. after   17 cycles
 SCF Done:  E(RwB97XD) =  -2201.56437726     A.U. after   15 cycles
 SCF Done:  E(RwB97XD) =  -2201.56439025     A.U. after   14 cycles
 SCF Done:  E(RwB97XD) =  -2201.56439066     A.U. after   13 cycles
 SCF Done:  E(RwB97XD) =  -2201.56439088     A.U. after   13 cycles
 SCF Done:  E(RwB97XD) =  -2201.56439093     A.U. after   10 cycles
 SCF Done:  E(RwB97XD) =  -2201.56439094     A.U. after    9 cycles
 Optimization completed.
    -- Stationary point found.

                         Standard orientation:
 ---------------------------------------------------------------------
 Center     Atomic      Atomic             Coordinates (Angstroms)
 Number     Number       Type             X           Y           Z
 ---------------------------------------------------------------------
      1          6           0       -3.310786   -2.898385   -0.097593
      2          6           0       -2.624992   -1.591485    0.091529
      3          6           0       -3.340951   -0.382520   -0.069045
      4          6           0       -4.706149   -0.380322   -0.428560
      5          6           0       -5.420113   -1.669995   -0.628302
      6          6           0       -1.290905   -1.574513    0.366133
      7          6           0       -2.654570    0.832965    0.137885
      8          6           0       -1.271576    0.829742    0.495982
      9          6           0       -0.554434   -0.369825    0.557030
     10          6           0       -0.695495    2.127334    0.948094
     11          6           0       -2.725143    3.348411    0.163073
     12          6           0       -3.383799    2.035827   -0.045700
     13          6           0       -4.710755    2.017624   -0.411915
     14          6           0       -5.383288    0.804079   -0.601383
     15          1           0       -6.428992    0.779444   -0.882201
     16          1           0       -5.220112    2.964136   -0.547421
     17          1           0       -0.784311   -2.529326    0.396165
     18          7           0       -1.425972    3.267124    0.624861
     19          7           0       -4.652297   -2.812902   -0.437514
     20          8           0       -2.766984   -3.969918    0.029856
     21          8           0       -6.585568   -1.753608   -0.932959
     22          8           0       -3.262556    4.415778   -0.020463
     23          8           0        0.320231    2.243304    1.591040
     24          6           0        0.904873   -0.533502    0.633379
     25          6           0        1.546390   -1.727179    0.888059
     26         16           0        2.031295    0.617256   -0.004376
     27          6           0        2.924096   -1.694573    0.614115
     28          1           0        1.056997   -2.605887    1.289398
     29          6           0        3.357710   -0.494747    0.092143
     30          8           0        3.787766   -2.726354    0.812353
     31          6           0        4.706429   -0.133558   -0.285354
     32          6           0        5.133404    1.051749   -0.837997
     33         16           0        6.069511   -1.203162   -0.068812
     34          6           0        6.531371    1.108089   -1.080009
     35          8           0        4.256251    2.048468   -1.119840
     36          6           0        7.155443   -0.042148   -0.708134
     37          1           0        7.036756    1.962117   -1.513315
     38          1           0        8.206942   -0.274435   -0.783456
     39          1           0        4.728449    2.842231   -1.373228
     40          1           0        3.357388   -3.430261    1.298543
     41          1           0       -5.133054   -3.693781   -0.570459
     42          1           0       -0.998757    4.140937    0.905065
 ---------------------------------------------------------------------

 The electronic state is 1-A.
 Alpha  occ. eigenvalues --  -89.05398 -89.05288 -19.29868 -19.29743 -19.25776
 Alpha  occ. eigenvalues --  -19.25676 -19.25149 -19.25089 -14.50467 -14.49856
 Alpha  occ. eigenvalues --  -10.43632 -10.43532 -10.43231 -10.42908 -10.36390
 Alpha  occ. eigenvalues --  -10.36241 -10.36240 -10.35141 -10.34681 -10.34635
 Alpha  occ. eigenvalues --  -10.34369 -10.34347 -10.34186 -10.34145 -10.33910
 Alpha  occ. eigenvalues --  -10.33589 -10.33252 -10.33198 -10.33131 -10.32665
 Alpha  occ. eigenvalues --  -10.31233 -10.30444  -8.09413  -8.09311  -6.04272
 Alpha  occ. eigenvalues --   -6.04160  -6.03856  -6.03760  -6.03474  -6.03391
 Alpha  occ. eigenvalues --   -1.20054  -1.19658  -1.18988  -1.18820  -1.18255
 Alpha  occ. eigenvalues --   -1.17769  -1.06924  -1.06324  -1.03338  -1.01276
 Alpha  occ. eigenvalues --   -0.99654  -0.97788  -0.94441  -0.91111  -0.89375
 Alpha  occ. eigenvalues --   -0.87794  -0.84879  -0.83990  -0.83124  -0.81348
 Alpha  occ. eigenvalues --   -0.80957  -0.77830  -0.76747  -0.75051  -0.72479
 Alpha  occ. eigenvalues --   -0.71475  -0.70861  -0.70019  -0.68405  -0.66365
 Alpha  occ. eigenvalues --   -0.65999  -0.64651  -0.63785  -0.61538  -0.60676
 Alpha  occ. eigenvalues --   -0.59930  -0.59679  -0.59332  -0.58753  -0.57843
 Alpha  occ. eigenvalues --   -0.57596  -0.56534  -0.56180  -0.55121  -0.54872
 Alpha  occ. eigenvalues --   -0.54724  -0.54175  -0.53815  -0.53266  -0.52382
 Alpha  occ. eigenvalues --   -0.52056  -0.51899  -0.51662  -0.51244  -0.51219
 Alpha  occ. eigenvalues --   -0.49094  -0.47939  -0.47393  -0.46972  -0.46817
 Alpha  occ. eigenvalues --   -0.46367  -0.45131  -0.43989  -0.43443  -0.42244
 Alpha  occ. eigenvalues --   -0.40938  -0.40444  -0.39492  -0.39340  -0.38748
 Alpha  occ. eigenvalues --   -0.38297  -0.37879  -0.37076  -0.35309  -0.33812
 Alpha  occ. eigenvalues --   -0.32569  -0.32200  -0.26696
 Alpha virt. eigenvalues --   -0.07801  -0.01743  -0.00191   0.01831   0.03128
 Alpha virt. eigenvalues --    0.04292   0.05120   0.05408   0.06088   0.06492
 Alpha virt. eigenvalues --    0.06540   0.07354   0.07651   0.07884   0.08026

 Mulliken charges:
               1
     1  C    0.399295
     2  C   -0.119506
     3  C    0.201808
     4  C    0.175416
     5  C    0.279200
     6  C    0.024863
     7  C    0.120027
     8  C    0.057953
     9  C    0.279703
    10  C   -0.075566
    11  C    0.318713
    12  C    0.092749
    13  C   -0.461596
    14  C   -0.566247
    15  H    0.190082
    16  H    0.191253
    17  H    0.174884
    18  N   -0.330543
    19  N   -0.454326
    20  O   -0.271138
    21  O   -0.261360
    22  O   -0.274646
    23  O   -0.214421
    24  C    0.203834
    25  C   -0.175602
    26  S   -0.836302
    27  C   -0.598191
    28  H    0.139505
    29  C    0.340164
    30  O   -0.236032
    31  C    0.707666
    32  C    0.419801
    33  S   -0.287600
    34  C   -0.305660
    35  O   -0.253703
    36  C   -0.272177
    37  H    0.144581
    38  H    0.190870
    39  H    0.283890
    40  H    0.283371
    41  H    0.395904
    42  H    0.379085
 Sum of Mulliken charges =  -0.00000

 Dipole moment (field-independent basis, Debye):
    X=              3.4118    Y=             -0.0106    Z=             -0.3951  Tot=              3.4346
 Quadrupole moment (field-independent basis, Debye-Ang):
   XX=           -183.9695   YY=           -196.0381   ZZ=           -196.4137
   XY=              8.0618   XZ=             -9.3429   YZ=            -10.4799

 Normal termination of Gaussian 16 at Wed Nov 18 14:29:21 2020.
