 Gaussian 16, Revision C.01,
 Gaussian 16:  ES64L-G16RevC.01  3-Jul-2019

 --------------------------------------
 # opt=modredundant wb97xd/6-311+g(d,p)
 --------------------------------------

 -----------
 NDI_-90.pdb
 -----------
 Symbolic Z-matrix:
 Charge =  0 Multiplicity = 1

 SCF Done:  E(RwB97XD) =  -2201.52385000     A.U. after   19 cycles
 SCF Done:  E(RwB97XD) =  -2201.55608322     A.U. after   16 cycles
 SCF Done:  E(RwB97XD) =  -2201.56504995     A.U. after   15 cycles
 SCF Done:  E(RwB97XD) =  -2201.56825290     A.U. after   14 cycles
 SCF Done:  E(RwB97XD) =  -2201.56847237     A.U. after   15 cycles
 SCF Done:  E(RwB97XD) =  -2201.56883428     A.U. after   14 cycles
 SCF Done:  E(RwB97XD) =  -2201.56889036     A.U. after   13 cycles
 SCF Done:  E(RwB97XD) =  -2201.56891122     A.U. after   14 cycles
 SCF Done:  E(RwB97XD) =  -2201.56892146     A.U. after   12 cycles
 SCF Done:  E(RwB97XD) =  -2201.56892650     A.U. after   12 cycles
 SCF Done:  E(RwB97XD) =  -2201.56893004     A.U. after   13 cycles
 SCF Done:  E(RwB97XD) =  -2201.56893169     A.U. after   11 cycles
 SCF Done:  E(RwB97XD) =  -2201.56893343     A.U. after   12 cycles
 SCF Done:  E(RwB97XD) =  -2201.56893478     A.U. after   12 cycles
 SCF Done:  E(RwB97XD) =  -2201.56893655     A.U. after   11 cycles
 SCF Done:  E(RwB97XD) =  -2201.56893836     A.U. after   13 cycles
 SCF Done:  E(RwB97XD) =  -2201.56893886     A.U. after   11 cycles
 SCF Done:  E(RwB97XD) =  -2201.56893914     A.U. after   11 cycles
 SCF Done:  E(RwB97XD) =  -2201.56893959     A.U. after   11 cycles
 SCF Done:  E(RwB97XD) =  -2201.56893972     A.U. after   12 cycles
 Optimization completed.
    -- Stationary point found.

                         Standard orientation:
 ---------------------------------------------------------------------
 Center     Atomic      Atomic             Coordinates (Angstroms)
 Number     Number       Type             X           Y           Z
 ---------------------------------------------------------------------
      1          6           0        3.058288   -2.979338    0.191744
      2          6           0        2.483296   -1.606202    0.183361
      3          6           0        3.323352   -0.485147   -0.007563
      4          6           0        4.717537   -0.638154   -0.199116
      5          6           0        5.321959   -1.998282   -0.199102
      6          6           0        1.137304   -1.437602    0.362573
      7          6           0        2.751987    0.807164   -0.007762
      8          6           0        1.348860    0.962928    0.185340
      9          6           0        0.545664   -0.152053    0.371122
     10          6           0        0.776432    2.346140    0.181121
     11          6           0        3.059260    3.295890   -0.220413
     12          6           0        3.611951    1.917230   -0.206193
     13          6           0        4.962741    1.744316   -0.391244
     14          6           0        5.522943    0.458033   -0.387389
     15          1           0        6.586311    0.310959   -0.532385
     16          1           0        5.581515    2.620971   -0.540343
     17          1           0        0.509078   -2.309060    0.505217
     18          7           0        1.693189    3.373528   -0.026472
     19          7           0        4.431346   -3.044517   -0.002175
     20          8           0        2.404919   -3.980958    0.354053
     21          8           0        6.500805   -2.207809   -0.355743
     22          8           0        3.727379    4.289077   -0.385594
     23          8           0       -0.387175    2.614916    0.341685
     24          6           0       -0.918389   -0.099331    0.580724
     25          6           0       -1.584015   -0.004410    1.761663
     26         16           0       -1.995136   -0.281831   -0.754291
     27          6           0       -2.992710   -0.044329    1.586278
     28          1           0       -1.095336    0.107773    2.721628
     29          6           0       -3.395063   -0.189989    0.283196
     30          8           0       -3.897918    0.023053    2.601096
     31          6           0       -4.749539   -0.259032   -0.229573
     32          6           0       -5.145291   -0.429962   -1.533182
     33         16           0       -6.155056   -0.118892    0.794587
     34          6           0       -6.554295   -0.449842   -1.715446
     35          8           0       -4.231414   -0.556294   -2.534041
     36          6           0       -7.219150   -0.293570   -0.539426
     37          1           0       -7.038515   -0.572490   -2.676422
     38          1           0       -8.286824   -0.270737   -0.382773
     39          1           0       -4.673429   -0.773107   -3.355132
     40          1           0       -3.493709    0.419968    3.373238
     41          1           0        4.834423   -3.973242   -0.000024
     42          1           0        1.296327    4.304826   -0.033152
 ---------------------------------------------------------------------

 The electronic state is 1-A.
 Alpha  occ. eigenvalues --  -89.04908 -89.04452 -19.29044 -19.28930 -19.26006
 Alpha  occ. eigenvalues --  -19.25996 -19.25721 -19.25707 -14.50751 -14.50435
 Alpha  occ. eigenvalues --  -10.43889 -10.43881 -10.43820 -10.43565 -10.35969
 Alpha  occ. eigenvalues --  -10.35719 -10.35577 -10.35509 -10.35414 -10.35331
 Alpha  occ. eigenvalues --  -10.34933 -10.34906 -10.34886 -10.33983 -10.33898
 Alpha  occ. eigenvalues --  -10.33889 -10.33406 -10.32571 -10.32305 -10.31739
 Alpha  occ. eigenvalues --  -10.30016 -10.29678  -8.08922  -8.08476  -6.03786
 Alpha  occ. eigenvalues --   -6.03382  -6.03325  -6.02974  -6.02926  -6.02555
 Alpha  occ. eigenvalues --   -1.20359  -1.20199  -1.18563  -1.18364  -1.18068
 Alpha  occ. eigenvalues --   -1.17933  -1.07295  -1.06826  -1.03867  -1.00692
 Alpha  occ. eigenvalues --   -0.99128  -0.97850  -0.95009  -0.91098  -0.89864
 Alpha  occ. eigenvalues --   -0.87313  -0.84074  -0.83327  -0.82658  -0.81852
 Alpha  occ. eigenvalues --   -0.81028  -0.78182  -0.76937  -0.75431  -0.73040
 Alpha  occ. eigenvalues --   -0.70956  -0.70239  -0.69519  -0.68419  -0.66785
 Alpha  occ. eigenvalues --   -0.65180  -0.64598  -0.63038  -0.61956  -0.61137
 Alpha  occ. eigenvalues --   -0.60173  -0.59934  -0.59518  -0.58650  -0.58092
 Alpha  occ. eigenvalues --   -0.57254  -0.57033  -0.56467  -0.55411  -0.55272
 Alpha  occ. eigenvalues --   -0.54982  -0.54213  -0.52993  -0.52754  -0.52420
 Alpha  occ. eigenvalues --   -0.52105  -0.51962  -0.51760  -0.51501  -0.50836
 Alpha  occ. eigenvalues --   -0.49357  -0.47968  -0.47420  -0.46551  -0.45864
 Alpha  occ. eigenvalues --   -0.44973  -0.44311  -0.44183  -0.42937  -0.41750
 Alpha  occ. eigenvalues --   -0.41455  -0.40787  -0.39702  -0.39627  -0.39322
 Alpha  occ. eigenvalues --   -0.38366  -0.37717  -0.36811  -0.35693  -0.34378
 Alpha  occ. eigenvalues --   -0.32081  -0.31729  -0.26333
 Alpha virt. eigenvalues --   -0.08037  -0.00921  -0.00086   0.01794   0.02117
 Alpha virt. eigenvalues --    0.04585   0.05039   0.05591   0.06152   0.06581
 Alpha virt. eigenvalues --    0.06588   0.06911   0.07313   0.07449   0.07664

 Mulliken charges:
               1
     1  C    0.573079
     2  C   -0.138695
     3  C    0.292450
     4  C    0.158488
     5  C    0.258171
     6  C   -0.566999
     7  C    0.221609
     8  C   -0.154168
     9  C    0.255518
    10  C    0.140224
    11  C    0.286020
    12  C    0.124434
    13  C   -0.457195
    14  C   -0.730205
    15  H    0.193009
    16  H    0.192757
    17  H    0.202072
    18  N   -0.475140
    19  N   -0.454129
    20  O   -0.255704
    21  O   -0.264732
    22  O   -0.265828
    23  O   -0.125029
    24  C    0.448985
    25  C   -0.612665
    26  S   -0.192033
    27  C   -0.483586
    28  H    0.132526
    29  C    0.292162
    30  O   -0.257842
    31  C    0.646174
    32  C    0.526967
    33  S   -0.332338
    34  C   -0.334564
    35  O   -0.272698
    36  C   -0.261117
    37  H    0.141152
    38  H    0.186868
    39  H    0.281674
    40  H    0.283283
    41  H    0.398847
    42  H    0.398200
 Sum of Mulliken charges =  -0.00000

 Dipole moment (field-independent basis, Debye):
    X=             -1.0445    Y=              0.3526    Z=             -0.1454  Tot=              1.1119
 Quadrupole moment (field-independent basis, Debye-Ang):
   XX=           -190.1243   YY=           -214.5042   ZZ=           -174.5778
   XY=              1.8638   XZ=             12.1348   YZ=              6.5573

 Normal termination of Gaussian 16 at Tue Nov 17 15:46:20 2020.
