 Gaussian 16, Revision C.01,
 Gaussian 16:  ES64L-G16RevC.01  3-Jul-2019

 --------------------------------------
 # opt=modredundant wb97xd/6-311+g(d,p)
 --------------------------------------

 -----------
 NDI_160.pdb
 -----------
 Symbolic Z-matrix:
 Charge =  0 Multiplicity = 1

 SCF Done:  E(RwB97XD) =  -2201.49372635     A.U. after   20 cycles
 SCF Done:  E(RwB97XD) =  -2201.52627281     A.U. after   20 cycles
 SCF Done:  E(RwB97XD) =  -2201.55232144     A.U. after   17 cycles
 SCF Done:  E(RwB97XD) =  -2201.56076976     A.U. after   17 cycles
 SCF Done:  E(RwB97XD) =  -2201.56439710     A.U. after   18 cycles
 SCF Done:  E(RwB97XD) =  -2201.56478458     A.U. after   16 cycles
 SCF Done:  E(RwB97XD) =  -2201.56525030     A.U. after   16 cycles
 SCF Done:  E(RwB97XD) =  -2201.56559868     A.U. after   16 cycles
 SCF Done:  E(RwB97XD) =  -2201.56567486     A.U. after   17 cycles
 SCF Done:  E(RwB97XD) =  -2201.56590481     A.U. after   16 cycles
 SCF Done:  E(RwB97XD) =  -2201.56615487     A.U. after   15 cycles
 SCF Done:  E(RwB97XD) =  -2201.56616124     A.U. after   16 cycles
 SCF Done:  E(RwB97XD) =  -2201.56616844     A.U. after   14 cycles
 SCF Done:  E(RwB97XD) =  -2201.56616564     A.U. after   14 cycles
 SCF Done:  E(RwB97XD) =  -2201.56382571     A.U. after   16 cycles
 SCF Done:  E(RwB97XD) =  -2201.56616933     A.U. after   12 cycles
 SCF Done:  E(RwB97XD) =  -2201.56616970     A.U. after   12 cycles
 SCF Done:  E(RwB97XD) =  -2201.56616980     A.U. after   10 cycles
 SCF Done:  E(RwB97XD) =  -2201.56616982     A.U. after   10 cycles
 SCF Done:  E(RwB97XD) =  -2201.56616982     A.U. after    9 cycles
 Optimization completed.
    -- Stationary point found.

                         Standard orientation:
 ---------------------------------------------------------------------
 Center     Atomic      Atomic             Coordinates (Angstroms)
 Number     Number       Type             X           Y           Z
 ---------------------------------------------------------------------
      1          6           0       -3.290482   -2.905677   -0.171159
      2          6           0       -2.609857   -1.600870    0.048962
      3          6           0       -3.332413   -0.391605   -0.080053
      4          6           0       -4.698994   -0.387313   -0.437224
      5          6           0       -5.406728   -1.675090   -0.669581
      6          6           0       -1.274205   -1.582555    0.323616
      7          6           0       -2.655853    0.824655    0.155844
      8          6           0       -1.273965    0.821148    0.511255
      9          6           0       -0.554869   -0.374772    0.542227
     10          6           0       -0.695762    2.108627    0.994433
     11          6           0       -2.736669    3.337889    0.248051
     12          6           0       -3.391264    2.028048    0.005840
     13          6           0       -4.718370    2.011039   -0.357888
     14          6           0       -5.382716    0.797251   -0.577816
     15          1           0       -6.428784    0.773226   -0.857523
     16          1           0       -5.235061    2.956878   -0.467891
     17          1           0       -0.749180   -2.529060    0.331826
     18          7           0       -1.434523    3.252314    0.702245
     19          7           0       -4.632790   -2.818123   -0.508901
     20          8           0       -2.742355   -3.977390   -0.068760
     21          8           0       -6.572128   -1.756391   -0.975105
     22          8           0       -3.280707    4.406551    0.094884
     23          8           0        0.322438    2.210127    1.634244
     24          6           0        0.904440   -0.515608    0.630270
     25          6           0        1.566878   -1.647043    1.043833
     26         16           0        1.997227    0.569740   -0.156933
     27          6           0        2.949389   -1.608574    0.779292
     28          1           0        1.086292   -2.475414    1.550695
     29          6           0        3.356778   -0.475627    0.109524
     30          8           0        3.838001   -2.581919    1.115299
     31          6           0        4.699059   -0.129438   -0.305656
     32          6           0        5.098609    0.985873   -1.003897
     33         16           0        6.088050   -1.123858    0.053946
     34          6           0        6.496776    1.050036   -1.243744
     35          8           0        4.196865    1.913590   -1.417177
     36          6           0        7.148709   -0.024600   -0.723492
     37          1           0        6.982578    1.855126   -1.780787
     38          1           0        8.206722   -0.235166   -0.762078
     39          1           0        4.650230    2.682670   -1.763735
     40          1           0        3.426797   -3.216931    1.702419
     41          1           0       -5.109136   -3.697977   -0.662950
     42          1           0       -1.011548    4.121905    1.001503
 ---------------------------------------------------------------------

 The electronic state is 1-A.
 Alpha  occ. eigenvalues --  -89.05359 -89.05174 -19.29770 -19.29662 -19.25801
 Alpha  occ. eigenvalues --  -19.25721 -19.25189 -19.25177 -14.50503 -14.49911
 Alpha  occ. eigenvalues --  -10.43666 -10.43581 -10.43284 -10.43008 -10.36234
 Alpha  occ. eigenvalues --  -10.36181 -10.36088 -10.35209 -10.34820 -10.34727
 Alpha  occ. eigenvalues --  -10.34471 -10.34437 -10.34258 -10.34045 -10.33766
 Alpha  occ. eigenvalues --  -10.33651 -10.33369 -10.33315 -10.33027 -10.32530
 Alpha  occ. eigenvalues --  -10.31080 -10.30338  -8.09382  -8.09197  -6.04242
 Alpha  occ. eigenvalues --   -6.04046  -6.03832  -6.03646  -6.03440  -6.03276
 Alpha  occ. eigenvalues --   -1.20093  -1.19695  -1.18868  -1.18728  -1.18296
 Alpha  occ. eigenvalues --   -1.17829  -1.06969  -1.06372  -1.03420  -1.01221
 Alpha  occ. eigenvalues --   -0.99584  -0.97822  -0.94528  -0.91114  -0.89445
 Alpha  occ. eigenvalues --   -0.87746  -0.84780  -0.83885  -0.83085  -0.81405
 Alpha  occ. eigenvalues --   -0.80983  -0.77856  -0.76783  -0.75083  -0.72555
 Alpha  occ. eigenvalues --   -0.71385  -0.70802  -0.69960  -0.68392  -0.66414
 Alpha  occ. eigenvalues --   -0.65890  -0.64611  -0.63710  -0.61585  -0.60721
 Alpha  occ. eigenvalues --   -0.59957  -0.59699  -0.59417  -0.58765  -0.57832
 Alpha  occ. eigenvalues --   -0.57551  -0.56519  -0.56307  -0.55121  -0.54932
 Alpha  occ. eigenvalues --   -0.54742  -0.54106  -0.53794  -0.53245  -0.52304
 Alpha  occ. eigenvalues --   -0.52039  -0.51910  -0.51656  -0.51312  -0.51252
 Alpha  occ. eigenvalues --   -0.49133  -0.47875  -0.47417  -0.46843  -0.46764
 Alpha  occ. eigenvalues --   -0.46310  -0.45040  -0.44009  -0.43407  -0.42231
 Alpha  occ. eigenvalues --   -0.41021  -0.40486  -0.39525  -0.39380  -0.38762
 Alpha  occ. eigenvalues --   -0.38291  -0.37865  -0.37081  -0.35397  -0.33845
 Alpha  occ. eigenvalues --   -0.32526  -0.32159  -0.26662
 Alpha virt. eigenvalues --   -0.07834  -0.01534  -0.00239   0.01770   0.03070
 Alpha virt. eigenvalues --    0.04350   0.05165   0.05340   0.06158   0.06364
 Alpha virt. eigenvalues --    0.06511   0.07266   0.07639   0.07833   0.07975

 Mulliken charges:
               1
     1  C    0.410410
     2  C   -0.108759
     3  C    0.190497
     4  C    0.194931
     5  C    0.286535
     6  C   -0.080458
     7  C    0.116425
     8  C   -0.064290
     9  C    0.231801
    10  C    0.007301
    11  C    0.298903
    12  C    0.095395
    13  C   -0.457148
    14  C   -0.576551
    15  H    0.190667
    16  H    0.191448
    17  H    0.181900
    18  N   -0.347312
    19  N   -0.453992
    20  O   -0.269129
    21  O   -0.261724
    22  O   -0.274387
    23  O   -0.213709
    24  C    0.249794
    25  C   -0.226036
    26  S   -0.782923
    27  C   -0.452275
    28  H    0.144672
    29  C    0.352234
    30  O   -0.238908
    31  C    0.718542
    32  C    0.398199
    33  S   -0.286819
    34  C   -0.311658
    35  O   -0.258798
    36  C   -0.274859
    37  H    0.144069
    38  H    0.190452
    39  H    0.283785
    40  H    0.283001
    41  H    0.396083
    42  H    0.382692
 Sum of Mulliken charges =  -0.00000

 Dipole moment (field-independent basis, Debye):
    X=              3.0691    Y=              0.0880    Z=             -0.3417  Tot=              3.0893
 Quadrupole moment (field-independent basis, Debye-Ang):
   XX=           -185.0504   YY=           -198.2167   ZZ=           -193.6573
   XY=              7.4877   XZ=             -9.9547   YZ=            -12.8006

 Normal termination of Gaussian 16 at Wed Nov 18 04:19:47 2020.
