 Gaussian 16, Revision C.01,
 Gaussian 16:  ES64L-G16RevC.01  3-Jul-2019

 --------------------------------------
 # opt=modredundant wb97xd/6-311+g(d,p)
 --------------------------------------

 ------------
 NDI_-170.pdb
 ------------
 Symbolic Z-matrix:
 Charge =  0 Multiplicity = 1

 SCF Done:  E(RwB97XD) =  -2201.48341929     A.U. after   19 cycles
 SCF Done:  E(RwB97XD) =  -2201.52219085     A.U. after   20 cycles
 SCF Done:  E(RwB97XD) =  -2201.55103069     A.U. after   17 cycles
 SCF Done:  E(RwB97XD) =  -2201.55788538     A.U. after   16 cycles
 SCF Done:  E(RwB97XD) =  -2201.56169247     A.U. after   18 cycles
 SCF Done:  E(RwB97XD) =  -2201.56230845     A.U. after   16 cycles
 SCF Done:  E(RwB97XD) =  -2201.56239292     A.U. after   16 cycles
 SCF Done:  E(RwB97XD) =  -2201.56262597     A.U. after   15 cycles
 SCF Done:  E(RwB97XD) =  -2201.56292857     A.U. after   18 cycles
 SCF Done:  E(RwB97XD) =  -2201.56301776     A.U. after   18 cycles
 SCF Done:  E(RwB97XD) =  -2201.56429489     A.U. after   16 cycles
 SCF Done:  E(RwB97XD) =  -2201.56438953     A.U. after    8 cycles
 SCF Done:  E(RwB97XD) =  -2201.56435356     A.U. after   14 cycles
 SCF Done:  E(RwB97XD) =  -2201.56437824     A.U. after   16 cycles
 SCF Done:  E(RwB97XD) =  -2201.56438125     A.U. after   14 cycles
 SCF Done:  E(RwB97XD) =  -2201.56438903     A.U. after   14 cycles
 SCF Done:  E(RwB97XD) =  -2201.56438978     A.U. after   12 cycles
 SCF Done:  E(RwB97XD) =  -2201.56439082     A.U. after   13 cycles
 SCF Done:  E(RwB97XD) =  -2201.56439106     A.U. after   11 cycles
 SCF Done:  E(RwB97XD) =  -2201.56439113     A.U. after    9 cycles
 Optimization completed.
    -- Stationary point found.

                         Standard orientation:
 ---------------------------------------------------------------------
 Center     Atomic      Atomic             Coordinates (Angstroms)
 Number     Number       Type             X           Y           Z
 ---------------------------------------------------------------------
      1          6           0       -3.311063   -2.898302    0.097670
      2          6           0       -2.625132   -1.591477   -0.091460
      3          6           0       -3.341006   -0.382444    0.068993
      4          6           0       -4.706237   -0.380103    0.428400
      5          6           0       -5.420340   -1.669703    0.628116
      6          6           0       -1.291013   -1.574633   -0.365936
      7          6           0       -2.654507    0.832973   -0.137910
      8          6           0       -1.271515    0.829606   -0.495984
      9          6           0       -0.554452   -0.370012   -0.556893
     10          6           0       -0.695364    2.127117   -0.948248
     11          6           0       -2.724730    3.348434   -0.162930
     12          6           0       -3.383600    2.035922    0.045667
     13          6           0       -4.710580    2.017853    0.411784
     14          6           0       -5.383261    0.804369    0.601163
     15          1           0       -6.428992    0.779853    0.881889
     16          1           0       -5.219850    2.964410    0.547311
     17          1           0       -0.784473   -2.529479   -0.395826
     18          7           0       -1.425597    3.267011   -0.624801
     19          7           0       -4.652622   -2.812685    0.437392
     20          8           0       -2.767340   -3.969894   -0.029623
     21          8           0       -6.585821   -1.753195    0.932709
     22          8           0       -3.261983    4.415854    0.020763
     23          8           0        0.320221    2.242922   -1.591444
     24          6           0        0.904847   -0.533694   -0.633186
     25          6           0        1.546369   -1.727408   -0.887755
     26         16           0        2.031249    0.617108    0.004493
     27          6           0        2.924075   -1.694743   -0.613864
     28          1           0        1.056959   -2.606127   -1.289044
     29          6           0        3.357692   -0.494836   -0.092056
     30          8           0        3.787787   -2.726516   -0.811938
     31          6           0        4.706425   -0.133594    0.285322
     32          6           0        5.133387    1.051768    0.837865
     33         16           0        6.069527   -1.203148    0.068742
     34          6           0        6.531367    1.108186    1.079765
     35          8           0        4.256200    2.048467    1.119664
     36          6           0        7.155461   -0.042043    0.707892
     37          1           0        7.036762    1.962254    1.512980
     38          1           0        8.206980   -0.274260    0.783159
     39          1           0        4.728356    2.842155    1.373367
     40          1           0        3.357664   -3.430236   -1.298624
     41          1           0       -5.133451   -3.693518    0.570375
     42          1           0       -0.998309    4.140780   -0.905038
 ---------------------------------------------------------------------

 The electronic state is 1-A.
 Alpha  occ. eigenvalues --  -89.05399 -89.05288 -19.29868 -19.29743 -19.25775
 Alpha  occ. eigenvalues --  -19.25676 -19.25149 -19.25089 -14.50467 -14.49856
 Alpha  occ. eigenvalues --  -10.43631 -10.43532 -10.43231 -10.42908 -10.36391
 Alpha  occ. eigenvalues --  -10.36241 -10.36240 -10.35141 -10.34681 -10.34634
 Alpha  occ. eigenvalues --  -10.34368 -10.34347 -10.34185 -10.34145 -10.33910
 Alpha  occ. eigenvalues --  -10.33589 -10.33252 -10.33198 -10.33131 -10.32665
 Alpha  occ. eigenvalues --  -10.31233 -10.30444  -8.09413  -8.09311  -6.04272
 Alpha  occ. eigenvalues --   -6.04160  -6.03857  -6.03760  -6.03475  -6.03391
 Alpha  occ. eigenvalues --   -1.20054  -1.19658  -1.18988  -1.18820  -1.18255
 Alpha  occ. eigenvalues --   -1.17769  -1.06924  -1.06324  -1.03338  -1.01276
 Alpha  occ. eigenvalues --   -0.99654  -0.97788  -0.94441  -0.91111  -0.89374
 Alpha  occ. eigenvalues --   -0.87794  -0.84879  -0.83991  -0.83124  -0.81348
 Alpha  occ. eigenvalues --   -0.80957  -0.77830  -0.76747  -0.75051  -0.72479
 Alpha  occ. eigenvalues --   -0.71475  -0.70861  -0.70020  -0.68404  -0.66365
 Alpha  occ. eigenvalues --   -0.65999  -0.64651  -0.63785  -0.61538  -0.60676
 Alpha  occ. eigenvalues --   -0.59930  -0.59679  -0.59333  -0.58753  -0.57843
 Alpha  occ. eigenvalues --   -0.57596  -0.56534  -0.56179  -0.55121  -0.54872
 Alpha  occ. eigenvalues --   -0.54723  -0.54175  -0.53815  -0.53267  -0.52382
 Alpha  occ. eigenvalues --   -0.52056  -0.51899  -0.51662  -0.51243  -0.51219
 Alpha  occ. eigenvalues --   -0.49094  -0.47939  -0.47393  -0.46972  -0.46817
 Alpha  occ. eigenvalues --   -0.46367  -0.45131  -0.43989  -0.43443  -0.42244
 Alpha  occ. eigenvalues --   -0.40938  -0.40444  -0.39492  -0.39340  -0.38748
 Alpha  occ. eigenvalues --   -0.38297  -0.37879  -0.37076  -0.35309  -0.33812
 Alpha  occ. eigenvalues --   -0.32569  -0.32200  -0.26695
 Alpha virt. eigenvalues --   -0.07800  -0.01743  -0.00191   0.01831   0.03128
 Alpha virt. eigenvalues --    0.04292   0.05120   0.05408   0.06088   0.06492
 Alpha virt. eigenvalues --    0.06540   0.07354   0.07651   0.07884   0.08025

 Mulliken charges:
               1
     1  C    0.399341
     2  C   -0.119564
     3  C    0.201653
     4  C    0.175552
     5  C    0.279205
     6  C    0.024690
     7  C    0.119877
     8  C    0.058204
     9  C    0.279759
    10  C   -0.075616
    11  C    0.318501
    12  C    0.092872
    13  C   -0.461709
    14  C   -0.566246
    15  H    0.190082
    16  H    0.191251
    17  H    0.174892
    18  N   -0.330373
    19  N   -0.454327
    20  O   -0.271137
    21  O   -0.261362
    22  O   -0.274654
    23  O   -0.214399
    24  C    0.203854
    25  C   -0.175569
    26  S   -0.836074
    27  C   -0.598592
    28  H    0.139511
    29  C    0.339972
    30  O   -0.236075
    31  C    0.707713
    32  C    0.420288
    33  S   -0.287673
    34  C   -0.305781
    35  O   -0.253682
    36  C   -0.272062
    37  H    0.144579
    38  H    0.190868
    39  H    0.283893
    40  H    0.283374
    41  H    0.395903
    42  H    0.379064
 Sum of Mulliken charges =  -0.00000

 Dipole moment (field-independent basis, Debye):
    X=              3.4124    Y=             -0.0102    Z=              0.3947  Tot=              3.4352
 Quadrupole moment (field-independent basis, Debye-Ang):
   XX=           -183.9666   YY=           -196.0394   ZZ=           -196.4127
   XY=              8.0605   XZ=              9.3416   YZ=             10.4822

 Normal termination of Gaussian 16 at Wed Nov 18 02:00:58 2020.
