 Gaussian 16, Revision C.01,
 Gaussian 16:  ES64L-G16RevC.01  3-Jul-2019

 --------------------------------------
 # opt=modredundant wb97xd/6-311+g(d,p)
 --------------------------------------

 -------------
 pBTTT_175.pdb
 -------------
 Symbolic Z-matrix:
 Charge =  0 Multiplicity = 1

 SCF Done:  E(RwB97XD) =  -1618.46080552     A.U. after   19 cycles
 SCF Done:  E(RwB97XD) =  -1618.49396489     A.U. after   17 cycles
 SCF Done:  E(RwB97XD) =  -1618.50327708     A.U. after   14 cycles
 SCF Done:  E(RwB97XD) =  -1618.50571165     A.U. after   15 cycles
 SCF Done:  E(RwB97XD) =  -1618.50643380     A.U. after   14 cycles
 SCF Done:  E(RwB97XD) =  -1618.50645033     A.U. after   13 cycles
 SCF Done:  E(RwB97XD) =  -1618.50667402     A.U. after   13 cycles
 SCF Done:  E(RwB97XD) =  -1618.50667285     A.U. after   12 cycles
 SCF Done:  E(RwB97XD) =  -1618.50669655     A.U. after   11 cycles
 SCF Done:  E(RwB97XD) =  -1618.50669913     A.U. after   11 cycles
 SCF Done:  E(RwB97XD) =  -1618.50670014     A.U. after   11 cycles
 SCF Done:  E(RwB97XD) =  -1618.50670083     A.U. after   10 cycles
 SCF Done:  E(RwB97XD) =  -1618.50670114     A.U. after   10 cycles
 Optimization completed.
    -- Stationary point found.

                         Standard orientation:
 ---------------------------------------------------------------------
 Center     Atomic      Atomic             Coordinates (Angstroms)
 Number     Number       Type             X           Y           Z
 ---------------------------------------------------------------------
      1          6           0       -3.950613    0.787327   -0.009448
      2          6           0       -2.572894    1.151252    0.045925
      3          6           0       -1.747084    0.048114    0.015512
      4          6           0       -2.132073    2.581744    0.144034
      5          6           0       -4.160347   -0.553086   -0.084416
      6          1           0       -4.752632    1.514435    0.010733
      7         16           0       -2.680362   -1.418768   -0.094915
      8          1           0       -5.098998   -1.083559   -0.132592
      9          6           0       -0.291023   -0.015151    0.024915
     10         16           0        0.510932   -1.580201    0.112684
     11          6           0        2.070671   -0.836906    0.048022
     12          6           0        1.954554    0.534714   -0.033184
     13          6           0        0.615690    1.009776   -0.051117
     14          1           0        0.347475    2.050108   -0.133198
     15         16           0        3.515459    1.282007   -0.096453
     16          6           0        4.290680   -0.270405   -0.011236
     17          6           0        3.414287   -1.307391    0.061755
     18          1           0        5.369071   -0.322509   -0.020433
     19          1           0        3.713553   -2.344178    0.121407
     20          1           0       -2.995620    3.234526    0.281157
     21          1           0       -1.613173    2.906402   -0.763595
     22          1           0       -1.457248    2.736228    0.990897
 ---------------------------------------------------------------------

 The electronic state is 1-A.
 Alpha  occ. eigenvalues --  -89.05101 -89.04976 -89.04855 -10.34133 -10.33118
 Alpha  occ. eigenvalues --  -10.32413 -10.32350 -10.32332 -10.31827 -10.30655
 Alpha  occ. eigenvalues --  -10.30549 -10.30452 -10.29379 -10.29161  -8.09147
 Alpha  occ. eigenvalues --   -8.09040  -8.08960  -6.03995  -6.03902  -6.03793
 Alpha  occ. eigenvalues --   -6.03623  -6.03527  -6.03405  -6.03209  -6.03069
 Alpha  occ. eigenvalues --   -6.03057  -1.02290  -0.99869  -0.95317  -0.88228
 Alpha  occ. eigenvalues --   -0.86808  -0.85922  -0.81065  -0.80293  -0.78009
 Alpha  occ. eigenvalues --   -0.70736  -0.66728  -0.66568  -0.62977  -0.61197
 Alpha  occ. eigenvalues --   -0.58949  -0.58565  -0.52897  -0.52741  -0.52226
 Alpha  occ. eigenvalues --   -0.50833  -0.50105  -0.48416  -0.47762  -0.47080
 Alpha  occ. eigenvalues --   -0.46672  -0.45978  -0.44150  -0.43155  -0.43081
 Alpha  occ. eigenvalues --   -0.41403  -0.37226  -0.34449  -0.32969  -0.30778
 Alpha  occ. eigenvalues --   -0.27284
 Alpha virt. eigenvalues --    0.00227   0.05119   0.05695   0.06040   0.06384
 Alpha virt. eigenvalues --    0.06650   0.07105   0.07728   0.08319   0.08849
 Alpha virt. eigenvalues --    0.09240   0.09347   0.09582   0.10450   0.10823

 Mulliken charges:
               1
     1  C    0.104983
     2  C    0.392010
     3  C    0.848946
     4  C   -1.188231
     5  C   -0.222756
     6  H    0.144762
     7  S   -0.616730
     8  H    0.185889
     9  C    0.152964
    10  S   -0.614551
    11  C    0.407598
    12  C    0.176261
    13  C    0.089579
    14  H    0.155623
    15  S   -0.456117
    16  C   -0.115823
    17  C   -0.329072
    18  H    0.193126
    19  H    0.161862
    20  H    0.167474
    21  H    0.184339
    22  H    0.177865
 Sum of Mulliken charges =  -0.00000

 Dipole moment (field-independent basis, Debye):
    X=             -0.3795    Y=              0.9095    Z=              0.0024  Tot=              0.9855
 Quadrupole moment (field-independent basis, Debye-Ang):
   XX=            -86.1967   YY=            -95.8237   ZZ=           -109.3160
   XY=             -5.4233   XZ=              0.2059   YZ=             -0.0863

 Normal termination of Gaussian 16 at Tue Oct 26 02:10:30 2021.
