 Gaussian 16, Revision C.01,
 Gaussian 16:  ES64L-G16RevC.01  3-Jul-2019

 --------------------------------------
 # opt=modredundant wb97xd/6-311+g(d,p)
 --------------------------------------

 -------------
 pBTTT_-70.pdb
 -------------
 Symbolic Z-matrix:
 Charge =  0 Multiplicity = 1

 SCF Done:  E(RwB97XD) =  -1618.45971962     A.U. after   18 cycles
 SCF Done:  E(RwB97XD) =  -1618.49448613     A.U. after   16 cycles
 SCF Done:  E(RwB97XD) =  -1618.50511025     A.U. after   16 cycles
 SCF Done:  E(RwB97XD) =  -1618.50738809     A.U. after   16 cycles
 SCF Done:  E(RwB97XD) =  -1618.50760222     A.U. after   14 cycles
 SCF Done:  E(RwB97XD) =  -1618.50828596     A.U. after   14 cycles
 SCF Done:  E(RwB97XD) =  -1618.50824072     A.U. after   14 cycles
 SCF Done:  E(RwB97XD) =  -1618.50835356     A.U. after   14 cycles
 SCF Done:  E(RwB97XD) =  -1618.50843118     A.U. after   12 cycles
 SCF Done:  E(RwB97XD) =  -1618.50865386     A.U. after   13 cycles
 SCF Done:  E(RwB97XD) =  -1618.50854131     A.U. after   16 cycles
 SCF Done:  E(RwB97XD) =  -1618.50895988     A.U. after   14 cycles
 SCF Done:  E(RwB97XD) =  -1618.50900104     A.U. after   12 cycles
 SCF Done:  E(RwB97XD) =  -1618.50901159     A.U. after   11 cycles
 SCF Done:  E(RwB97XD) =  -1618.50902594     A.U. after   12 cycles
 SCF Done:  E(RwB97XD) =  -1618.50902604     A.U. after   11 cycles
 SCF Done:  E(RwB97XD) =  -1618.50902624     A.U. after   10 cycles
 SCF Done:  E(RwB97XD) =  -1618.50902626     A.U. after    9 cycles
 Optimization completed.
    -- Stationary point found.

                         Standard orientation:
 ---------------------------------------------------------------------
 Center     Atomic      Atomic             Coordinates (Angstroms)
 Number     Number       Type             X           Y           Z
 ---------------------------------------------------------------------
      1          6           0       -3.988476    0.340038    0.412837
      2          6           0       -2.636200    0.769155    0.579754
      3          6           0       -1.749765   -0.115469    0.023585
      4          6           0       -2.252324    2.032216    1.293167
      5          6           0       -4.102216   -0.841069   -0.251720
      6          1           0       -4.838735    0.895369    0.788686
      7         16           0       -2.567518   -1.465606   -0.703050
      8          1           0       -5.003768   -1.382098   -0.497307
      9          6           0       -0.287706   -0.041135   -0.006733
     10         16           0        0.510227    1.166378   -0.998741
     11          6           0        2.066891    0.585909   -0.516506
     12          6           0        1.946335   -0.487402    0.344987
     13          6           0        0.602200   -0.850040    0.636224
     14          1           0        0.295773   -1.654489    1.290600
     15         16           0        3.503664   -1.067507    0.830576
     16          6           0        4.285287    0.146480   -0.134681
     17          6           0        3.414834    0.955702   -0.794141
     18          1           0        5.364038    0.187528   -0.157524
     19          1           0        3.719853    1.765611   -1.441571
     20          1           0       -2.839048    2.149610    2.207674
     21          1           0       -2.438253    2.909069    0.665653
     22          1           0       -1.194995    2.030842    1.562598
 ---------------------------------------------------------------------

 The electronic state is 1-A.
 Alpha  occ. eigenvalues --  -89.05109 -89.04978 -89.04642 -10.33569 -10.32471
 Alpha  occ. eigenvalues --  -10.32437 -10.32384 -10.32369 -10.31703 -10.30558
 Alpha  occ. eigenvalues --  -10.30550 -10.30384 -10.29165 -10.28431  -8.09154
 Alpha  occ. eigenvalues --   -8.09019  -8.08720  -6.04003  -6.03871  -6.03630
 Alpha  occ. eigenvalues --   -6.03546  -6.03499  -6.03218  -6.03163  -6.03071
 Alpha  occ. eigenvalues --   -6.02831  -1.02209  -0.99617  -0.95284  -0.87483
 Alpha  occ. eigenvalues --   -0.87112  -0.85471  -0.81072  -0.80238  -0.77466
 Alpha  occ. eigenvalues --   -0.70528  -0.66689  -0.65847  -0.63077  -0.60978
 Alpha  occ. eigenvalues --   -0.58752  -0.58455  -0.52879  -0.52262  -0.52223
 Alpha  occ. eigenvalues --   -0.50451  -0.50186  -0.47908  -0.47492  -0.47029
 Alpha  occ. eigenvalues --   -0.46080  -0.45187  -0.44881  -0.42974  -0.42194
 Alpha  occ. eigenvalues --   -0.41967  -0.36932  -0.32882  -0.32120  -0.30863
 Alpha  occ. eigenvalues --   -0.29141
 Alpha virt. eigenvalues --    0.01907   0.04508   0.05567   0.05875   0.06581
 Alpha virt. eigenvalues --    0.06889   0.07012   0.07149   0.08016   0.08780
 Alpha virt. eigenvalues --    0.08919   0.09490   0.09570   0.09927   0.10323

 Mulliken charges:
               1
     1  C    0.046328
     2  C   -0.353478
     3  C    0.351547
     4  C   -0.922853
     5  C   -0.197636
     6  H    0.151781
     7  S   -0.234451
     8  H    0.186387
     9  C    0.755955
    10  S   -0.536133
    11  C    0.344853
    12  C   -0.538384
    13  C    0.478876
    14  H    0.169585
    15  S   -0.426531
    16  C   -0.212123
    17  C    0.040137
    18  H    0.193519
    19  H    0.162503
    20  H    0.164688
    21  H    0.190757
    22  H    0.184673
 Sum of Mulliken charges =  -0.00000

 Dipole moment (field-independent basis, Debye):
    X=             -0.2722    Y=              0.7965    Z=              0.5129  Tot=              0.9857
 Quadrupole moment (field-independent basis, Debye-Ang):
   XX=            -86.5681   YY=           -100.3496   ZZ=           -104.7013
   XY=              1.7048   XZ=             -3.3591   YZ=             -1.1753

 Normal termination of Gaussian 16 at Tue Oct 26 02:10:43 2021.
