 Gaussian 16, Revision C.01,
 Gaussian 16:  ES64L-G16RevC.01  3-Jul-2019

 --------------------------------------
 # opt=modredundant wb97xd/6-311+g(d,p)
 --------------------------------------

 --------------
 pBTTT_-165.pdb
 --------------
 Symbolic Z-matrix:
 Charge =  0 Multiplicity = 1

 SCF Done:  E(RwB97XD) =  -1618.46051930     A.U. after   19 cycles
 SCF Done:  E(RwB97XD) =  -1618.49374737     A.U. after   16 cycles
 SCF Done:  E(RwB97XD) =  -1618.50336079     A.U. after   15 cycles
 SCF Done:  E(RwB97XD) =  -1618.50608522     A.U. after   14 cycles
 SCF Done:  E(RwB97XD) =  -1618.50691862     A.U. after   14 cycles
 SCF Done:  E(RwB97XD) =  -1618.50721570     A.U. after   14 cycles
 SCF Done:  E(RwB97XD) =  -1618.50742203     A.U. after   13 cycles
 SCF Done:  E(RwB97XD) =  -1618.50742579     A.U. after   13 cycles
 SCF Done:  E(RwB97XD) =  -1618.50750322     A.U. after   12 cycles
 SCF Done:  E(RwB97XD) =  -1618.50752116     A.U. after   12 cycles
 SCF Done:  E(RwB97XD) =  -1618.50752741     A.U. after   11 cycles
 SCF Done:  E(RwB97XD) =  -1618.50752842     A.U. after   10 cycles
 SCF Done:  E(RwB97XD) =  -1618.50752873     A.U. after   10 cycles
 SCF Done:  E(RwB97XD) =  -1618.50752882     A.U. after    9 cycles
 Optimization completed.
    -- Stationary point found.

                         Standard orientation:
 ---------------------------------------------------------------------
 Center     Atomic      Atomic             Coordinates (Angstroms)
 Number     Number       Type             X           Y           Z
 ---------------------------------------------------------------------
      1          6           0        3.945512    0.789231   -0.005545
      2          6           0        2.568977    1.138687    0.127022
      3          6           0        1.747628    0.038119    0.024865
      4          6           0        2.121502    2.547482    0.384313
      5          6           0        4.155104   -0.537915   -0.209565
      6          1           0        4.746740    1.514570    0.060385
      7         16           0        2.677047   -1.407272   -0.257914
      8          1           0        5.093537   -1.057019   -0.331230
      9          6           0        0.292333   -0.022123    0.048348
     10         16           0       -0.516026   -1.565015    0.295115
     11          6           0       -2.070940   -0.826104    0.130605
     12          6           0       -1.947194    0.529376   -0.094126
     13          6           0       -0.605200    0.992668   -0.151299
     14          1           0       -0.322053    2.011198   -0.364877
     15         16           0       -3.503296    1.271184   -0.257040
     16          6           0       -4.287347   -0.260480   -0.016932
     17          6           0       -3.417304   -1.286965    0.177589
     18          1           0       -5.365795   -0.309205   -0.034579
     19          1           0       -3.722605   -2.310420    0.343208
     20          1           0        2.956528    3.149555    0.747111
     21          1           0        1.326129    2.583417    1.133144
     22          1           0        1.745490    3.023715   -0.527382
 ---------------------------------------------------------------------

 The electronic state is 1-A.
 Alpha  occ. eigenvalues --  -89.05110 -89.04993 -89.04828 -10.34041 -10.33024
 Alpha  occ. eigenvalues --  -10.32430 -10.32365 -10.32340 -10.31808 -10.30600
 Alpha  occ. eigenvalues --  -10.30553 -10.30472 -10.29357 -10.29053  -8.09155
 Alpha  occ. eigenvalues --   -8.09053  -8.08927  -6.04004  -6.03914  -6.03760
 Alpha  occ. eigenvalues --   -6.03631  -6.03540  -6.03372  -6.03218  -6.03087
 Alpha  occ. eigenvalues --   -6.03026  -1.02293  -0.99837  -0.95325  -0.88166
 Alpha  occ. eigenvalues --   -0.86809  -0.85882  -0.81080  -0.80288  -0.77928
 Alpha  occ. eigenvalues --   -0.70716  -0.66685  -0.66516  -0.63004  -0.61138
 Alpha  occ. eigenvalues --   -0.58915  -0.58561  -0.52951  -0.52614  -0.52234
 Alpha  occ. eigenvalues --   -0.50804  -0.50059  -0.48337  -0.47741  -0.47103
 Alpha  occ. eigenvalues --   -0.46547  -0.45957  -0.44215  -0.43125  -0.42971
 Alpha  occ. eigenvalues --   -0.41545  -0.37189  -0.34310  -0.32896  -0.30809
 Alpha  occ. eigenvalues --   -0.27416
 Alpha virt. eigenvalues --    0.00385   0.05134   0.05697   0.06017   0.06419
 Alpha virt. eigenvalues --    0.06705   0.07119   0.07721   0.08177   0.08941
 Alpha virt. eigenvalues --    0.09208   0.09380   0.09608   0.10184   0.10766

 Mulliken charges:
               1
     1  C    0.089485
     2  C    0.501691
     3  C    0.577800
     4  C   -1.182366
     5  C   -0.130924
     6  H    0.146435
     7  S   -0.571311
     8  H    0.185813
     9  C    0.226177
    10  S   -0.567675
    11  C    0.491402
    12  C    0.185560
    13  C   -0.021309
    14  H    0.158735
    15  S   -0.456663
    16  C   -0.108376
    17  C   -0.410874
    18  H    0.193112
    19  H    0.162368
    20  H    0.165978
    21  H    0.177306
    22  H    0.187635
 Sum of Mulliken charges =  -0.00000

 Dipole moment (field-independent basis, Debye):
    X=              0.3452    Y=              0.9001    Z=              0.0414  Tot=              0.9649
 Quadrupole moment (field-independent basis, Debye-Ang):
   XX=            -86.2786   YY=            -96.2029   ZZ=           -108.9515
   XY=              5.4082   XZ=             -0.5379   YZ=             -0.2702

 Normal termination of Gaussian 16 at Tue Oct 26 01:06:02 2021.
