 Gaussian 16, Revision C.01,
 Gaussian 16:  ES64L-G16RevC.01  3-Jul-2019

 --------------------------------------
 # opt=modredundant wb97xd/6-311+g(d,p)
 --------------------------------------

 -------------
 pBTTT_-20.pdb
 -------------
 Symbolic Z-matrix:
 Charge =  0 Multiplicity = 1

 SCF Done:  E(RwB97XD) =  -1618.46201027     A.U. after   18 cycles
 SCF Done:  E(RwB97XD) =  -1618.49529016     A.U. after   16 cycles
 SCF Done:  E(RwB97XD) =  -1618.50462221     A.U. after   16 cycles
 SCF Done:  E(RwB97XD) =  -1618.50679959     A.U. after   16 cycles
 SCF Done:  E(RwB97XD) =  -1618.50715471     A.U. after   14 cycles
 SCF Done:  E(RwB97XD) =  -1618.50748689     A.U. after   13 cycles
 SCF Done:  E(RwB97XD) =  -1618.50756904     A.U. after   12 cycles
 SCF Done:  E(RwB97XD) =  -1618.50757441     A.U. after   12 cycles
 SCF Done:  E(RwB97XD) =  -1618.50759787     A.U. after   11 cycles
 SCF Done:  E(RwB97XD) =  -1618.50760657     A.U. after   11 cycles
 SCF Done:  E(RwB97XD) =  -1618.50762277     A.U. after   11 cycles
 SCF Done:  E(RwB97XD) =  -1618.50763222     A.U. after   12 cycles
 SCF Done:  E(RwB97XD) =  -1618.50763044     A.U. after   11 cycles
 SCF Done:  E(RwB97XD) =  -1618.50762964     A.U. after   12 cycles
 SCF Done:  E(RwB97XD) =  -1618.50763414     A.U. after   11 cycles
 SCF Done:  E(RwB97XD) =  -1618.50763472     A.U. after   11 cycles
 SCF Done:  E(RwB97XD) =  -1618.50763492     A.U. after    9 cycles
 Optimization completed.
    -- Stationary point found.

                         Standard orientation:
 ---------------------------------------------------------------------
 Center     Atomic      Atomic             Coordinates (Angstroms)
 Number     Number       Type             X           Y           Z
 ---------------------------------------------------------------------
      1          6           0       -4.026148    0.273597    0.110154
      2          6           0       -2.714014    0.830927    0.184833
      3          6           0       -1.740464   -0.128310    0.024518
      4          6           0       -2.485504    2.295165    0.432800
      5          6           0       -4.040105   -1.067074   -0.109216
      6          1           0       -4.924608    0.866677    0.225727
      7         16           0       -2.449634   -1.696252   -0.246556
      8          1           0       -4.893341   -1.722117   -0.198650
      9          6           0       -0.286983   -0.017390    0.012265
     10         16           0        0.522726    1.512524   -0.295338
     11          6           0        2.076520    0.766437   -0.160335
     12          6           0        1.952645   -0.582286    0.105021
     13          6           0        0.610844   -1.031692    0.211106
     14          1           0        0.317282   -2.048309    0.434364
     15         16           0        3.509054   -1.325837    0.254969
     16          6           0        4.293469    0.195803   -0.043147
     17          6           0        3.423634    1.220779   -0.245160
     18          1           0        5.372238    0.239457   -0.053785
     19          1           0        3.729433    2.237893   -0.445507
     20          1           0       -3.412060    2.767637    0.763886
     21          1           0       -2.158080    2.812003   -0.474397
     22          1           0       -1.728572    2.464069    1.202128
 ---------------------------------------------------------------------

 The electronic state is 1-A.
 Alpha  occ. eigenvalues --  -89.05148 -89.05058 -89.04767 -10.34001 -10.33004
 Alpha  occ. eigenvalues --  -10.32413 -10.32324 -10.32303 -10.31788 -10.30598
 Alpha  occ. eigenvalues --  -10.30545 -10.30349 -10.29313 -10.28777  -8.09197
 Alpha  occ. eigenvalues --   -8.09102  -8.08865  -6.04055  -6.03952  -6.03700
 Alpha  occ. eigenvalues --   -6.03680  -6.03578  -6.03312  -6.03237  -6.03163
 Alpha  occ. eigenvalues --   -6.02962  -1.02278  -0.99783  -0.95320  -0.87857
 Alpha  occ. eigenvalues --   -0.87193  -0.85657  -0.81074  -0.80191  -0.77833
 Alpha  occ. eigenvalues --   -0.70689  -0.67116  -0.66120  -0.62426  -0.61240
 Alpha  occ. eigenvalues --   -0.59006  -0.58559  -0.52841  -0.52551  -0.52249
 Alpha  occ. eigenvalues --   -0.50699  -0.50116  -0.48185  -0.47548  -0.47022
 Alpha  occ. eigenvalues --   -0.46586  -0.45797  -0.44655  -0.43106  -0.42523
 Alpha  occ. eigenvalues --   -0.41648  -0.37193  -0.34208  -0.32852  -0.30862
 Alpha  occ. eigenvalues --   -0.27372
 Alpha virt. eigenvalues --    0.00478   0.05383   0.05556   0.06033   0.06417
 Alpha virt. eigenvalues --    0.06637   0.07242   0.07956   0.08390   0.08696
 Alpha virt. eigenvalues --    0.09110   0.09323   0.09748   0.10127   0.10830

 Mulliken charges:
               1
     1  C    0.040218
     2  C    0.305694
     3  C    0.615204
     4  C   -1.053484
     5  C   -0.152288
     6  H    0.146131
     7  S   -0.588700
     8  H    0.186513
     9  C    0.439432
    10  S   -0.600224
    11  C    0.349513
    12  C    0.168704
    13  C   -0.022415
    14  H    0.167944
    15  S   -0.452628
    16  C   -0.142566
    17  C   -0.307353
    18  H    0.193105
    19  H    0.161197
    20  H    0.162389
    21  H    0.197122
    22  H    0.186493
 Sum of Mulliken charges =  -0.00000

 Dipole moment (field-independent basis, Debye):
    X=             -0.4705    Y=              0.9425    Z=              0.1836  Tot=              1.0693
 Quadrupole moment (field-independent basis, Debye-Ang):
   XX=            -86.0677   YY=            -96.4166   ZZ=           -108.8609
   XY=              2.0758   XZ=             -1.0784   YZ=             -0.4402

 Normal termination of Gaussian 16 at Tue Oct 26 01:44:58 2021.
