 Gaussian 16, Revision C.01,
 Gaussian 16:  ES64L-G16RevC.01  3-Jul-2019

 --------------------------------------
 # opt=modredundant wb97xd/6-311+g(d,p)
 --------------------------------------

 --------------
 pBTTT_-105.pdb
 --------------
 Symbolic Z-matrix:
 Charge =  0 Multiplicity = 1

 SCF Done:  E(RwB97XD) =  -1618.45834853     A.U. after   18 cycles
 SCF Done:  E(RwB97XD) =  -1618.49345534     A.U. after   15 cycles
 SCF Done:  E(RwB97XD) =  -1618.50454065     A.U. after   15 cycles
 SCF Done:  E(RwB97XD) =  -1618.50699649     A.U. after   16 cycles
 SCF Done:  E(RwB97XD) =  -1618.50721361     A.U. after   15 cycles
 SCF Done:  E(RwB97XD) =  -1618.50796036     A.U. after   14 cycles
 SCF Done:  E(RwB97XD) =  -1618.50782752     A.U. after   14 cycles
 SCF Done:  E(RwB97XD) =  -1618.50802669     A.U. after   14 cycles
 SCF Done:  E(RwB97XD) =  -1618.50805376     A.U. after   12 cycles
 SCF Done:  E(RwB97XD) =  -1618.50807496     A.U. after   13 cycles
 SCF Done:  E(RwB97XD) =  -1618.50823648     A.U. after   13 cycles
 SCF Done:  E(RwB97XD) =  -1618.50845282     A.U. after   16 cycles
 SCF Done:  E(RwB97XD) =  -1618.50716842     A.U. after   16 cycles
 SCF Done:  E(RwB97XD) =  -1618.50873268     A.U. after   14 cycles
 SCF Done:  E(RwB97XD) =  -1618.50892792     A.U. after   14 cycles
 SCF Done:  E(RwB97XD) =  -1618.50898968     A.U. after   13 cycles
 SCF Done:  E(RwB97XD) =  -1618.50899422     A.U. after   12 cycles
 SCF Done:  E(RwB97XD) =  -1618.50899530     A.U. after   11 cycles
 SCF Done:  E(RwB97XD) =  -1618.50899546     A.U. after   10 cycles
 SCF Done:  E(RwB97XD) =  -1618.50899546     A.U. after    9 cycles
 Optimization completed.
    -- Stationary point found.

                         Standard orientation:
 ---------------------------------------------------------------------
 Center     Atomic      Atomic             Coordinates (Angstroms)
 Number     Number       Type             X           Y           Z
 ---------------------------------------------------------------------
      1          6           0        3.938955    0.714173    0.205482
      2          6           0        2.553913    0.974062    0.442968
      3          6           0        1.753645    0.004647   -0.101784
      4          6           0        2.055968    2.163407    1.209019
      5          6           0        4.160209   -0.430264   -0.494166
      6          1           0        4.733951    1.361072    0.554877
      7         16           0        2.691530   -1.225993   -0.894652
      8          1           0        5.106604   -0.851558   -0.798639
      9          6           0        0.291504   -0.069797   -0.064803
     10         16           0       -0.511935   -1.207745    1.001343
     11          6           0       -2.064975   -0.632555    0.502319
     12          6           0       -1.939524    0.384984   -0.423736
     13          6           0       -0.593418    0.708230   -0.750560
     14          1           0       -0.280414    1.466183   -1.455220
     15         16           0       -3.494179    0.962078   -0.921829
     16          6           0       -4.281332   -0.177606    0.126242
     17          6           0       -3.414732   -0.960787    0.820995
     18          1           0       -5.360180   -0.199418    0.165307
     19          1           0       -3.723475   -1.725630    1.519447
     20          1           0        2.559411    2.236448    2.176751
     21          1           0        0.981246    2.098049    1.384671
     22          1           0        2.254927    3.090453    0.663144
 ---------------------------------------------------------------------

 The electronic state is 1-A.
 Alpha  occ. eigenvalues --  -89.05123 -89.04970 -89.04605 -10.33531 -10.32468
 Alpha  occ. eigenvalues --  -10.32441 -10.32391 -10.32375 -10.31742 -10.30560
 Alpha  occ. eigenvalues --  -10.30550 -10.30428 -10.29165 -10.28427  -8.09168
 Alpha  occ. eigenvalues --   -8.09009  -8.08686  -6.04016  -6.03860  -6.03643
 Alpha  occ. eigenvalues --   -6.03511  -6.03488  -6.03231  -6.03129  -6.03063
 Alpha  occ. eigenvalues --   -6.02795  -1.02210  -0.99608  -0.95286  -0.87637
 Alpha  occ. eigenvalues --   -0.86925  -0.85498  -0.81077  -0.80268  -0.77451
 Alpha  occ. eigenvalues --   -0.70527  -0.66577  -0.65836  -0.63312  -0.60904
 Alpha  occ. eigenvalues --   -0.58733  -0.58458  -0.52937  -0.52312  -0.52161
 Alpha  occ. eigenvalues --   -0.50441  -0.50184  -0.47897  -0.47556  -0.47013
 Alpha  occ. eigenvalues --   -0.45961  -0.45402  -0.44698  -0.42977  -0.42140
 Alpha  occ. eigenvalues --   -0.42047  -0.36924  -0.32810  -0.32048  -0.30785
 Alpha  occ. eigenvalues --   -0.29375
 Alpha virt. eigenvalues --    0.02117   0.04231   0.05542   0.05893   0.06526
 Alpha virt. eigenvalues --    0.07018   0.07087   0.07160   0.07904   0.08897
 Alpha virt. eigenvalues --    0.09063   0.09257   0.09537   0.09955   0.10130

 Mulliken charges:
               1
     1  C   -0.139508
     2  C    0.091311
     3  C    0.163373
     4  C   -0.761033
     5  C   -0.077963
     6  H    0.153216
     7  S   -0.291552
     8  H    0.186382
     9  C    0.178441
    10  S   -0.596725
    11  C    0.255659
    12  C   -0.519676
    13  C    0.629829
    14  H    0.163993
    15  S   -0.440297
    16  C   -0.212575
    17  C    0.314001
    18  H    0.193546
    19  H    0.162725
    20  H    0.171663
    21  H    0.194022
    22  H    0.181169
 Sum of Mulliken charges =  -0.00000

 Dipole moment (field-independent basis, Debye):
    X=              0.2106    Y=              0.8688    Z=              0.5085  Tot=              1.0284
 Quadrupole moment (field-independent basis, Debye-Ang):
   XX=            -86.7317   YY=           -100.8755   ZZ=           -104.1943
   XY=              4.2709   XZ=             -1.8832   YZ=             -1.2362

 Normal termination of Gaussian 16 at Tue Oct 26 01:44:59 2021.
