 Gaussian 16, Revision C.01,
 Gaussian 16:  ES64L-G16RevC.01  3-Jul-2019

 --------------------------------------
 # opt=modredundant wb97xd/6-311+g(d,p)
 --------------------------------------

 -------------
 pBTTT_110.pdb
 -------------
 Symbolic Z-matrix:
 Charge =  0 Multiplicity = 1

 SCF Done:  E(RwB97XD) =  -1618.45953943     A.U. after   18 cycles
 SCF Done:  E(RwB97XD) =  -1618.49430662     A.U. after   16 cycles
 SCF Done:  E(RwB97XD) =  -1618.50487061     A.U. after   17 cycles
 SCF Done:  E(RwB97XD) =  -1618.50727004     A.U. after   17 cycles
 SCF Done:  E(RwB97XD) =  -1618.50741755     A.U. after   15 cycles
 SCF Done:  E(RwB97XD) =  -1618.50812563     A.U. after   15 cycles
 SCF Done:  E(RwB97XD) =  -1618.50805430     A.U. after   14 cycles
 SCF Done:  E(RwB97XD) =  -1618.50819913     A.U. after   14 cycles
 SCF Done:  E(RwB97XD) =  -1618.50828270     A.U. after   13 cycles
 SCF Done:  E(RwB97XD) =  -1618.50854256     A.U. after   14 cycles
 SCF Done:  E(RwB97XD) =  -1618.50837396     A.U. after   16 cycles
 SCF Done:  E(RwB97XD) =  -1618.50896068     A.U. after   14 cycles
 SCF Done:  E(RwB97XD) =  -1618.50905928     A.U. after   14 cycles
 SCF Done:  E(RwB97XD) =  -1618.50909405     A.U. after   13 cycles
 SCF Done:  E(RwB97XD) =  -1618.50910074     A.U. after   13 cycles
 SCF Done:  E(RwB97XD) =  -1618.50910369     A.U. after   11 cycles
 SCF Done:  E(RwB97XD) =  -1618.50910382     A.U. after   11 cycles
 Optimization completed.
    -- Stationary point found.

                         Standard orientation:
 ---------------------------------------------------------------------
 Center     Atomic      Atomic             Coordinates (Angstroms)
 Number     Number       Type             X           Y           Z
 ---------------------------------------------------------------------
      1          6           0       -3.934566    0.731885    0.206527
      2          6           0       -2.547595    0.992568    0.430977
      3          6           0       -1.753144    0.008808   -0.097360
      4          6           0       -2.043715    2.197055    1.169301
      5          6           0       -4.163614   -0.427132   -0.466056
      6          1           0       -4.725546    1.388295    0.547199
      7         16           0       -2.699704   -1.235742   -0.857933
      8          1           0       -5.113085   -0.852694   -0.754505
      9          6           0       -0.292172   -0.070464   -0.066319
     10         16           0        0.512039   -1.277028    0.921232
     11          6           0        2.064800   -0.669032    0.461552
     12          6           0        1.938757    0.409822   -0.392250
     13          6           0        0.592657    0.753343   -0.697090
     14          1           0        0.279699    1.555721   -1.350717
     15         16           0        3.493109    1.019460   -0.850673
     16          6           0        4.280957   -0.189942    0.115603
     17          6           0        3.414643   -1.018987    0.755414
     18          1           0        5.359821   -0.214429    0.152392
     19          1           0        3.723705   -1.830254    1.399217
     20          1           0       -2.584942    2.325396    2.110307
     21          1           0       -2.188953    3.106839    0.578975
     22          1           0       -0.979842    2.106539    1.393302
 ---------------------------------------------------------------------

 The electronic state is 1-A.
 Alpha  occ. eigenvalues --  -89.05122 -89.04979 -89.04621 -10.33553 -10.32500
 Alpha  occ. eigenvalues --  -10.32440 -10.32385 -10.32376 -10.31748 -10.30550
 Alpha  occ. eigenvalues --  -10.30549 -10.30440 -10.29180 -10.28452  -8.09167
 Alpha  occ. eigenvalues --   -8.09018  -8.08703  -6.04016  -6.03869  -6.03643
 Alpha  occ. eigenvalues --   -6.03529  -6.03498  -6.03230  -6.03147  -6.03071
 Alpha  occ. eigenvalues --   -6.02812  -1.02215  -0.99623  -0.95290  -0.87679
 Alpha  occ. eigenvalues --   -0.86902  -0.85526  -0.81080  -0.80269  -0.77473
 Alpha  occ. eigenvalues --   -0.70540  -0.66571  -0.65886  -0.63299  -0.60907
 Alpha  occ. eigenvalues --   -0.58741  -0.58463  -0.52939  -0.52328  -0.52161
 Alpha  occ. eigenvalues --   -0.50474  -0.50149  -0.47907  -0.47581  -0.47031
 Alpha  occ. eigenvalues --   -0.45968  -0.45458  -0.44669  -0.42980  -0.42188
 Alpha  occ. eigenvalues --   -0.42039  -0.36932  -0.32860  -0.32252  -0.30772
 Alpha  occ. eigenvalues --   -0.29164
 Alpha virt. eigenvalues --    0.01960   0.04356   0.05540   0.05908   0.06511
 Alpha virt. eigenvalues --    0.07012   0.07117   0.07171   0.07920   0.08933
 Alpha virt. eigenvalues --    0.09075   0.09254   0.09546   0.09961   0.10106

 Mulliken charges:
               1
     1  C   -0.184000
     2  C    0.159023
     3  C    0.126946
     4  C   -0.761655
     5  C   -0.056840
     6  H    0.153255
     7  S   -0.303095
     8  H    0.186503
     9  C    0.176996
    10  S   -0.608235
    11  C    0.265988
    12  C   -0.482676
    13  C    0.621226
    14  H    0.163187
    15  S   -0.440728
    16  C   -0.208465
    17  C    0.292167
    18  H    0.193589
    19  H    0.162675
    20  H    0.168835
    21  H    0.183093
    22  H    0.192210
 Sum of Mulliken charges =  -0.00000

 Dipole moment (field-independent basis, Debye):
    X=             -0.2139    Y=              0.8724    Z=              0.4947  Tot=              1.0255
 Quadrupole moment (field-independent basis, Debye-Ang):
   XX=            -86.7435   YY=           -100.2646   ZZ=           -104.8075
   XY=             -4.4384   XZ=              1.7132   YZ=             -1.2181

 Normal termination of Gaussian 16 at Tue Oct 26 02:16:23 2021.
