 Gaussian 16, Revision C.01,
 Gaussian 16:  ES64L-G16RevC.01  3-Jul-2019

 --------------------------------------
 # opt=modredundant wb97xd/6-311+g(d,p)
 --------------------------------------

 -------------
 pBTTT_-80.pdb
 -------------
 Symbolic Z-matrix:
 Charge =  0 Multiplicity = 1

 SCF Done:  E(RwB97XD) =  -1618.45905694     A.U. after   18 cycles
 SCF Done:  E(RwB97XD) =  -1618.49406100     A.U. after   16 cycles
 SCF Done:  E(RwB97XD) =  -1618.50472561     A.U. after   15 cycles
 SCF Done:  E(RwB97XD) =  -1618.50719537     A.U. after   16 cycles
 SCF Done:  E(RwB97XD) =  -1618.50741742     A.U. after   16 cycles
 SCF Done:  E(RwB97XD) =  -1618.50808305     A.U. after   15 cycles
 SCF Done:  E(RwB97XD) =  -1618.50812402     A.U. after   13 cycles
 SCF Done:  E(RwB97XD) =  -1618.50814304     A.U. after   13 cycles
 SCF Done:  E(RwB97XD) =  -1618.50816549     A.U. after   13 cycles
 SCF Done:  E(RwB97XD) =  -1618.50831242     A.U. after   14 cycles
 SCF Done:  E(RwB97XD) =  -1618.50881619     A.U. after   14 cycles
 SCF Done:  E(RwB97XD) =  -1618.50832598     A.U. after   14 cycles
 SCF Done:  E(RwB97XD) =  -1618.50487103     A.U. after   17 cycles
 SCF Done:  E(RwB97XD) =  -1618.50777680     A.U. after   15 cycles
 SCF Done:  E(RwB97XD) =  -1618.50882553     A.U. after   12 cycles
 SCF Done:  E(RwB97XD) =  -1618.50887222     A.U. after   13 cycles
 SCF Done:  E(RwB97XD) =  -1618.50888108     A.U. after   12 cycles
 SCF Done:  E(RwB97XD) =  -1618.50888217     A.U. after   13 cycles
 SCF Done:  E(RwB97XD) =  -1618.50888217     A.U. after   11 cycles
 SCF Done:  E(RwB97XD) =  -1618.50888307     A.U. after   11 cycles
 Optimization completed.
    -- Stationary point found.

                         Standard orientation:
 ---------------------------------------------------------------------
 Center     Atomic      Atomic             Coordinates (Angstroms)
 Number     Number       Type             X           Y           Z
 ---------------------------------------------------------------------
      1          6           0        3.974557    0.384831   -0.464304
      2          6           0        2.610615    0.782986   -0.614796
      3          6           0        1.752213   -0.110382   -0.030949
      4          6           0        2.184783    2.029275   -1.332614
      5          6           0        4.122846   -0.781842    0.218378
      6          1           0        4.807256    0.952366   -0.860638
      7         16           0        2.608969   -1.432157    0.703201
      8          1           0        5.039337   -1.299137    0.459965
      9          6           0        0.288379   -0.053617    0.018644
     10         16           0       -0.510653    0.973917    1.195019
     11          6           0       -2.066347    0.485070    0.618070
     12          6           0       -1.944728   -0.425122   -0.414195
     13          6           0       -0.599851   -0.736639   -0.757622
     14          1           0       -0.291141   -1.420425   -1.536262
     15         16           0       -3.501358   -0.912202   -0.995190
     16          6           0       -4.284235    0.119516    0.161933
     17          6           0       -3.414873    0.802633    0.952367
     18          1           0       -5.363011    0.157784    0.188650
     19          1           0       -3.720894    1.490059    1.728214
     20          1           0        2.674117    2.099083   -2.307653
     21          1           0        2.457742    2.921175   -0.760834
     22          1           0        1.105115    2.045926   -1.489404
 ---------------------------------------------------------------------

 The electronic state is 1-A.
 Alpha  occ. eigenvalues --  -89.05116 -89.04957 -89.04608 -10.33524 -10.32438
 Alpha  occ. eigenvalues --  -10.32423 -10.32394 -10.32367 -10.31712 -10.30581
 Alpha  occ. eigenvalues --  -10.30550 -10.30389 -10.29147 -10.28406  -8.09162
 Alpha  occ. eigenvalues --   -8.08997  -8.08687  -6.04010  -6.03848  -6.03637
 Alpha  occ. eigenvalues --   -6.03512  -6.03475  -6.03225  -6.03130  -6.03050
 Alpha  occ. eigenvalues --   -6.02798  -1.02201  -0.99595  -0.95279  -0.87493
 Alpha  occ. eigenvalues --   -0.87063  -0.85447  -0.81069  -0.80253  -0.77431
 Alpha  occ. eigenvalues --   -0.70511  -0.66640  -0.65785  -0.63199  -0.60942
 Alpha  occ. eigenvalues --   -0.58730  -0.58449  -0.52900  -0.52263  -0.52199
 Alpha  occ. eigenvalues --   -0.50375  -0.50261  -0.47891  -0.47498  -0.46995
 Alpha  occ. eigenvalues --   -0.46013  -0.45208  -0.44840  -0.42974  -0.42140
 Alpha  occ. eigenvalues --   -0.41976  -0.36920  -0.32796  -0.31698  -0.30932
 Alpha  occ. eigenvalues --   -0.29543
 Alpha virt. eigenvalues --    0.02221   0.04190   0.05539   0.05861   0.06572
 Alpha virt. eigenvalues --    0.06936   0.07016   0.07124   0.07932   0.08808
 Alpha virt. eigenvalues --    0.08826   0.09415   0.09485   0.09988   0.10181

 Mulliken charges:
               1
     1  C   -0.123231
     2  C   -0.085559
     3  C    0.066566
     4  C   -0.682928
     5  C   -0.132609
     6  H    0.152996
     7  S   -0.233557
     8  H    0.186297
     9  C    0.445507
    10  S   -0.593076
    11  C    0.280189
    12  C   -0.599844
    13  C    0.595916
    14  H    0.168823
    15  S   -0.428428
    16  C   -0.217301
    17  C    0.295799
    18  H    0.193562
    19  H    0.162576
    20  H    0.169334
    21  H    0.187347
    22  H    0.191621
 Sum of Mulliken charges =  -0.00000

 Dipole moment (field-independent basis, Debye):
    X=              0.2415    Y=              0.8076    Z=             -0.5379  Tot=              1.0000
 Quadrupole moment (field-independent basis, Debye-Ang):
   XX=            -86.6165   YY=           -101.7052   ZZ=           -103.3532
   XY=             -1.2397   XZ=             -3.8537   YZ=              1.1855

 Normal termination of Gaussian 16 at Tue Oct 26 02:16:42 2021.
