 Gaussian 16, Revision C.01,
 Gaussian 16:  ES64L-G16RevC.01  3-Jul-2019

 --------------------------------------
 # opt=modredundant wb97xd/6-311+g(d,p)
 --------------------------------------

 ------------
 pBTTT_35.pdb
 ------------
 Symbolic Z-matrix:
 Charge =  0 Multiplicity = 1

 SCF Done:  E(RwB97XD) =  -1618.46056989     A.U. after   19 cycles
 SCF Done:  E(RwB97XD) =  -1618.49441040     A.U. after   16 cycles
 SCF Done:  E(RwB97XD) =  -1618.50460749     A.U. after   16 cycles
 SCF Done:  E(RwB97XD) =  -1618.50699424     A.U. after   16 cycles
 SCF Done:  E(RwB97XD) =  -1618.50747013     A.U. after   15 cycles
 SCF Done:  E(RwB97XD) =  -1618.50816547     A.U. after   13 cycles
 SCF Done:  E(RwB97XD) =  -1618.50827632     A.U. after   12 cycles
 SCF Done:  E(RwB97XD) =  -1618.50833686     A.U. after   12 cycles
 SCF Done:  E(RwB97XD) =  -1618.50839053     A.U. after   12 cycles
 SCF Done:  E(RwB97XD) =  -1618.50845489     A.U. after   13 cycles
 SCF Done:  E(RwB97XD) =  -1618.50849886     A.U. after   13 cycles
 SCF Done:  E(RwB97XD) =  -1618.50850442     A.U. after   12 cycles
 SCF Done:  E(RwB97XD) =  -1618.50850459     A.U. after   11 cycles
 SCF Done:  E(RwB97XD) =  -1618.50850561     A.U. after   10 cycles
 SCF Done:  E(RwB97XD) =  -1618.50850580     A.U. after   10 cycles
 SCF Done:  E(RwB97XD) =  -1618.50850583     A.U. after    9 cycles
 Optimization completed.
    -- Stationary point found.

                         Standard orientation:
 ---------------------------------------------------------------------
 Center     Atomic      Atomic             Coordinates (Angstroms)
 Number     Number       Type             X           Y           Z
 ---------------------------------------------------------------------
      1          6           0        4.018375    0.285564    0.193258
      2          6           0        2.698937    0.817503    0.311782
      3          6           0        1.741524   -0.127325    0.029366
      4          6           0        2.440654    2.237575    0.729409
      5          6           0        4.049513   -1.022720   -0.174498
      6          1           0        4.909054    0.868746    0.391008
      7         16           0        2.468026   -1.647556   -0.406383
      8          1           0        4.911996   -1.655114   -0.321094
      9          6           0        0.286706   -0.023163    0.013203
     10         16           0       -0.516115    1.449160   -0.507621
     11          6           0       -2.072303    0.733493   -0.268012
     12          6           0       -1.951292   -0.567748    0.177499
     13          6           0       -0.609433   -1.001737    0.344761
     14          1           0       -0.311967   -1.976792    0.705687
     15         16           0       -3.509244   -1.279407    0.430674
     16          6           0       -4.290489    0.189881   -0.068649
     17          6           0       -3.418852    1.175741   -0.409633
     18          1           0       -5.369191    0.234625   -0.082931
     19          1           0       -3.722830    2.157148   -0.745182
     20          1           0        3.294623    2.625905    1.288132
     21          1           0        1.555782    2.318657    1.363402
     22          1           0        2.289831    2.889283   -0.136647
 ---------------------------------------------------------------------

 The electronic state is 1-A.
 Alpha  occ. eigenvalues --  -89.05106 -89.05078 -89.04739 -10.33864 -10.32830
 Alpha  occ. eigenvalues --  -10.32428 -10.32363 -10.32336 -10.31729 -10.30555
 Alpha  occ. eigenvalues --  -10.30503 -10.30410 -10.29261 -10.28644  -8.09155
 Alpha  occ. eigenvalues --   -8.09122  -8.08829  -6.04011  -6.03972  -6.03660
 Alpha  occ. eigenvalues --   -6.03638  -6.03598  -6.03274  -6.03198  -6.03185
 Alpha  occ. eigenvalues --   -6.02932  -1.02267  -0.99730  -0.95319  -0.87709
 Alpha  occ. eigenvalues --   -0.87179  -0.85612  -0.81085  -0.80191  -0.77708
 Alpha  occ. eigenvalues --   -0.70638  -0.66975  -0.66072  -0.62597  -0.61156
 Alpha  occ. eigenvalues --   -0.58907  -0.58523  -0.52846  -0.52418  -0.52241
 Alpha  occ. eigenvalues --   -0.50656  -0.50087  -0.48079  -0.47518  -0.47083
 Alpha  occ. eigenvalues --   -0.46425  -0.45569  -0.44743  -0.43013  -0.42468
 Alpha  occ. eigenvalues --   -0.41821  -0.37088  -0.33855  -0.32750  -0.30843
 Alpha  occ. eigenvalues --   -0.27762
 Alpha virt. eigenvalues --    0.00789   0.05313   0.05545   0.06010   0.06481
 Alpha virt. eigenvalues --    0.06674   0.07223   0.07557   0.08291   0.08719
 Alpha virt. eigenvalues --    0.09229   0.09305   0.09727   0.09933   0.10809

 Mulliken charges:
               1
     1  C   -0.032080
     2  C    0.204156
     3  C    0.617816
     4  C   -0.997320
     5  C   -0.115576
     6  H    0.148088
     7  S   -0.485750
     8  H    0.186471
     9  C    0.541586
    10  S   -0.553507
    11  C    0.474058
    12  C    0.089523
    13  C   -0.207526
    14  H    0.172340
    15  S   -0.450632
    16  C   -0.136967
    17  C   -0.351421
    18  H    0.193240
    19  H    0.161972
    20  H    0.160338
    21  H    0.183977
    22  H    0.197213
 Sum of Mulliken charges =  -0.00000

 Dipole moment (field-independent basis, Debye):
    X=              0.3924    Y=              0.9080    Z=              0.2946  Tot=              1.0321
 Quadrupole moment (field-independent basis, Debye-Ang):
   XX=            -86.2843   YY=            -97.2071   ZZ=           -107.9632
   XY=             -2.1042   XZ=              1.7946   YZ=             -0.7312

 Normal termination of Gaussian 16 at Tue Oct 26 01:54:18 2021.
