 Gaussian 16, Revision C.01,
 Gaussian 16:  ES64L-G16RevC.01  3-Jul-2019

 --------------------------------------
 # opt=modredundant wb97xd/6-311+g(d,p)
 --------------------------------------

 -------------
 pBTTT_130.pdb
 -------------
 Symbolic Z-matrix:
 Charge =  0 Multiplicity = 1

 SCF Done:  E(RwB97XD) =  -1618.46041897     A.U. after   18 cycles
 SCF Done:  E(RwB97XD) =  -1618.49490461     A.U. after   16 cycles
 SCF Done:  E(RwB97XD) =  -1618.50519321     A.U. after   16 cycles
 SCF Done:  E(RwB97XD) =  -1618.50757287     A.U. after   16 cycles
 SCF Done:  E(RwB97XD) =  -1618.50788373     A.U. after   15 cycles
 SCF Done:  E(RwB97XD) =  -1618.50869009     A.U. after   14 cycles
 SCF Done:  E(RwB97XD) =  -1618.50872081     A.U. after   14 cycles
 SCF Done:  E(RwB97XD) =  -1618.50900837     A.U. after   13 cycles
 SCF Done:  E(RwB97XD) =  -1618.50925859     A.U. after   13 cycles
 SCF Done:  E(RwB97XD) =  -1618.50936807     A.U. after   13 cycles
 SCF Done:  E(RwB97XD) =  -1618.50943528     A.U. after   13 cycles
 SCF Done:  E(RwB97XD) =  -1618.50945533     A.U. after   12 cycles
 SCF Done:  E(RwB97XD) =  -1618.50945717     A.U. after   11 cycles
 SCF Done:  E(RwB97XD) =  -1618.50945736     A.U. after   10 cycles
 SCF Done:  E(RwB97XD) =  -1618.50945739     A.U. after   10 cycles
 Optimization completed.
    -- Stationary point found.

                         Standard orientation:
 ---------------------------------------------------------------------
 Center     Atomic      Atomic             Coordinates (Angstroms)
 Number     Number       Type             X           Y           Z
 ---------------------------------------------------------------------
      1          6           0       -3.930495    0.778031    0.150526
      2          6           0       -2.543553    1.065001    0.334568
      3          6           0       -1.750392    0.017897   -0.063444
      4          6           0       -2.045253    2.356269    0.914045
      5          6           0       -4.164489   -0.457610   -0.365696
      6          1           0       -4.719327    1.472716    0.410749
      7         16           0       -2.702832   -1.310081   -0.658986
      8          1           0       -5.115222   -0.917835   -0.588864
      9          6           0       -0.293725   -0.059193   -0.040143
     10         16           0        0.515103   -1.441790    0.676863
     11          6           0        2.066492   -0.756639    0.334657
     12          6           0        1.937135    0.473435   -0.280106
     13          6           0        0.590685    0.873136   -0.500973
     14          1           0        0.279795    1.784733   -0.991629
     15         16           0        3.490187    1.158444   -0.621800
     16          6           0        4.281446   -0.224408    0.070618
     17          6           0        3.416719   -1.163332    0.537767
     18          1           0        5.360444   -0.258867    0.090624
     19          1           0        3.727591   -2.089253    1.000548
     20          1           0       -2.717659    2.706804    1.700521
     21          1           0       -1.995801    3.139488    0.150881
     22          1           0       -1.046572    2.241526    1.339021
 ---------------------------------------------------------------------

 The electronic state is 1-A.
 Alpha  occ. eigenvalues --  -89.05116 -89.05010 -89.04712 -10.33686 -10.32667
 Alpha  occ. eigenvalues --  -10.32447 -10.32379 -10.32359 -10.31767 -10.30547
 Alpha  occ. eigenvalues --  -10.30521 -10.30480 -10.29251 -10.28622  -8.09161
 Alpha  occ. eigenvalues --   -8.09055  -8.08798  -6.04010  -6.03909  -6.03637
 Alpha  occ. eigenvalues --   -6.03626  -6.03536  -6.03242  -6.03224  -6.03102
 Alpha  occ. eigenvalues --   -6.02904  -1.02247  -0.99702  -0.95311  -0.87867
 Alpha  occ. eigenvalues --   -0.86837  -0.85663  -0.81093  -0.80274  -0.77611
 Alpha  occ. eigenvalues --   -0.70607  -0.66579  -0.66140  -0.63192  -0.60952
 Alpha  occ. eigenvalues --   -0.58796  -0.58499  -0.52938  -0.52408  -0.52186
 Alpha  occ. eigenvalues --   -0.50603  -0.50043  -0.48002  -0.47699  -0.47099
 Alpha  occ. eigenvalues --   -0.46057  -0.45713  -0.44529  -0.43013  -0.42466
 Alpha  occ. eigenvalues --   -0.41956  -0.36996  -0.33396  -0.32666  -0.30806
 Alpha  occ. eigenvalues --   -0.28335
 Alpha virt. eigenvalues --    0.01298   0.04835   0.05566   0.05951   0.06474
 Alpha virt. eigenvalues --    0.06944   0.07158   0.07328   0.08010   0.09058
 Alpha virt. eigenvalues --    0.09101   0.09405   0.09622   0.09799   0.10373

 Mulliken charges:
               1
     1  C   -0.010925
     2  C   -0.097141
     3  C    0.640077
     4  C   -1.037153
     5  C   -0.133522
     6  H    0.151108
     7  S   -0.385847
     8  H    0.186430
     9  C    0.451348
    10  S   -0.604691
    11  C    0.402244
    12  C   -0.239227
    13  C    0.334457
    14  H    0.164213
    15  S   -0.446625
    16  C   -0.176165
    17  C   -0.091704
    18  H    0.193513
    19  H    0.162709
    20  H    0.162325
    21  H    0.188878
    22  H    0.185695
 Sum of Mulliken charges =  -0.00000

 Dipole moment (field-independent basis, Debye):
    X=             -0.2478    Y=              0.8819    Z=              0.3658  Tot=              0.9864
 Quadrupole moment (field-independent basis, Debye-Ang):
   XX=            -86.6788   YY=            -98.3289   ZZ=           -106.7840
   XY=             -4.9082   XZ=              1.2290   YZ=             -0.9903

 Normal termination of Gaussian 16 at Tue Oct 26 02:13:02 2021.
