 Gaussian 16, Revision C.01,
 Gaussian 16:  ES64L-G16RevC.01  3-Jul-2019

 --------------------------------------
 # opt=modredundant wb97xd/6-311+g(d,p)
 --------------------------------------

 --------------
 pBTTT_-140.pdb
 --------------
 Symbolic Z-matrix:
 Charge =  0 Multiplicity = 1

 SCF Done:  E(RwB97XD) =  -1618.45966042     A.U. after   18 cycles
 SCF Done:  E(RwB97XD) =  -1618.49393382     A.U. after   15 cycles
 SCF Done:  E(RwB97XD) =  -1618.50457904     A.U. after   15 cycles
 SCF Done:  E(RwB97XD) =  -1618.50717974     A.U. after   15 cycles
 SCF Done:  E(RwB97XD) =  -1618.50782939     A.U. after   16 cycles
 SCF Done:  E(RwB97XD) =  -1618.50869580     A.U. after   14 cycles
 SCF Done:  E(RwB97XD) =  -1618.50874740     A.U. after   14 cycles
 SCF Done:  E(RwB97XD) =  -1618.50913977     A.U. after   14 cycles
 SCF Done:  E(RwB97XD) =  -1618.50928765     A.U. after   14 cycles
 SCF Done:  E(RwB97XD) =  -1618.50935348     A.U. after   13 cycles
 SCF Done:  E(RwB97XD) =  -1618.50936489     A.U. after   12 cycles
 SCF Done:  E(RwB97XD) =  -1618.50936693     A.U. after   11 cycles
 SCF Done:  E(RwB97XD) =  -1618.50936769     A.U. after   11 cycles
 SCF Done:  E(RwB97XD) =  -1618.50936776     A.U. after   10 cycles
 Optimization completed.
    -- Stationary point found.

                         Standard orientation:
 ---------------------------------------------------------------------
 Center     Atomic      Atomic             Coordinates (Angstroms)
 Number     Number       Type             X           Y           Z
 ---------------------------------------------------------------------
      1          6           0        3.933904    0.787782    0.103549
      2          6           0        2.550094    1.091527    0.279988
      3          6           0        1.749420    0.020956   -0.035946
      4          6           0        2.064304    2.420657    0.779136
      5          6           0        4.160603   -0.480180   -0.330904
      6          1           0        4.726556    1.496042    0.309979
      7         16           0        2.694041   -1.344921   -0.554288
      8          1           0        5.107821   -0.958075   -0.530277
      9          6           0        0.294068   -0.048713   -0.010836
     10         16           0       -0.517806   -1.490382    0.576761
     11          6           0       -2.068435   -0.782888    0.279202
     12          6           0       -1.937298    0.494919   -0.227603
     13          6           0       -0.590839    0.915613   -0.402722
     14          1           0       -0.283298    1.862612   -0.822485
     15         16           0       -3.489472    1.202866   -0.523532
     16          6           0       -4.282492   -0.235653    0.041981
     17          6           0       -3.418705   -1.208490    0.436049
     18          1           0       -5.361490   -0.274478    0.049071
     19          1           0       -3.730561   -2.171000    0.816118
     20          1           0        2.787845    2.855344    1.472307
     21          1           0        1.106566    2.324818    1.294497
     22          1           0        1.930607    3.130548   -0.043622
 ---------------------------------------------------------------------

 The electronic state is 1-A.
 Alpha  occ. eigenvalues --  -89.05116 -89.05018 -89.04754 -10.33778 -10.32759
 Alpha  occ. eigenvalues --  -10.32452 -10.32379 -10.32352 -10.31776 -10.30549
 Alpha  occ. eigenvalues --  -10.30514 -10.30499 -10.29286 -10.28729  -8.09161
 Alpha  occ. eigenvalues --   -8.09066  -8.08842  -6.04010  -6.03921  -6.03672
 Alpha  occ. eigenvalues --   -6.03637  -6.03549  -6.03287  -6.03224  -6.03110
 Alpha  occ. eigenvalues --   -6.02946  -1.02266  -0.99743  -0.95321  -0.87960
 Alpha  occ. eigenvalues --   -0.86821  -0.85733  -0.81097  -0.80278  -0.77693
 Alpha  occ. eigenvalues --   -0.70644  -0.66599  -0.66265  -0.63131  -0.60992
 Alpha  occ. eigenvalues --   -0.58825  -0.58522  -0.52941  -0.52452  -0.52211
 Alpha  occ. eigenvalues --   -0.50666  -0.50018  -0.48087  -0.47727  -0.47121
 Alpha  occ. eigenvalues --   -0.46151  -0.45819  -0.44442  -0.43041  -0.42618
 Alpha  occ. eigenvalues --   -0.41878  -0.37049  -0.33711  -0.32733  -0.30828
 Alpha  occ. eigenvalues --   -0.28005
 Alpha virt. eigenvalues --    0.00999   0.04998   0.05590   0.05961   0.06453
 Alpha virt. eigenvalues --    0.06882   0.07140   0.07452   0.08029   0.09058
 Alpha virt. eigenvalues --    0.09138   0.09384   0.09619   0.09827   0.10488

 Mulliken charges:
               1
     1  C    0.018124
     2  C   -0.050844
     3  C    0.616317
     4  C   -1.073350
     5  C   -0.134203
     6  H    0.150625
     7  S   -0.428821
     8  H    0.186328
     9  C    0.474686
    10  S   -0.617522
    11  C    0.448207
    12  C   -0.223240
    13  C    0.355399
    14  H    0.165332
    15  S   -0.448412
    16  C   -0.163861
    17  C   -0.166253
    18  H    0.193425
    19  H    0.162758
    20  H    0.162551
    21  H    0.183819
    22  H    0.188934
 Sum of Mulliken charges =  -0.00000

 Dipole moment (field-independent basis, Debye):
    X=              0.2688    Y=              0.8829    Z=              0.2725  Tot=              0.9623
 Quadrupole moment (field-independent basis, Debye-Ang):
   XX=            -86.5803   YY=            -97.6103   ZZ=           -107.5346
   XY=              5.0958   XZ=             -1.0400   YZ=             -0.8055

 Normal termination of Gaussian 16 at Tue Oct 26 01:33:19 2021.
