 Gaussian 16, Revision C.01,
 Gaussian 16:  ES64L-G16RevC.01  3-Jul-2019

 --------------------------------------
 # opt=modredundant wb97xd/6-311+g(d,p)
 --------------------------------------

 --------------
 pBTTT_-170.pdb
 --------------
 Symbolic Z-matrix:
 Charge =  0 Multiplicity = 1

 SCF Done:  E(RwB97XD) =  -1618.46062861     A.U. after   19 cycles
 SCF Done:  E(RwB97XD) =  -1618.49374259     A.U. after   16 cycles
 SCF Done:  E(RwB97XD) =  -1618.50316292     A.U. after   15 cycles
 SCF Done:  E(RwB97XD) =  -1618.50579475     A.U. after   15 cycles
 SCF Done:  E(RwB97XD) =  -1618.50660357     A.U. after   14 cycles
 SCF Done:  E(RwB97XD) =  -1618.50674647     A.U. after   14 cycles
 SCF Done:  E(RwB97XD) =  -1618.50697602     A.U. after   13 cycles
 SCF Done:  E(RwB97XD) =  -1618.50698342     A.U. after   13 cycles
 SCF Done:  E(RwB97XD) =  -1618.50703941     A.U. after   11 cycles
 SCF Done:  E(RwB97XD) =  -1618.50705437     A.U. after   12 cycles
 SCF Done:  E(RwB97XD) =  -1618.50706024     A.U. after   11 cycles
 SCF Done:  E(RwB97XD) =  -1618.50706177     A.U. after   11 cycles
 SCF Done:  E(RwB97XD) =  -1618.50706227     A.U. after   10 cycles
 Optimization completed.
    -- Stationary point found.

                         Standard orientation:
 ---------------------------------------------------------------------
 Center     Atomic      Atomic             Coordinates (Angstroms)
 Number     Number       Type             X           Y           Z
 ---------------------------------------------------------------------
      1          6           0        3.948458    0.787456   -0.013469
      2          6           0        2.571807    1.145759    0.088569
      3          6           0        1.747297    0.043740    0.024690
      4          6           0        2.129530    2.567162    0.274953
      5          6           0        4.157073   -0.547581   -0.157584
      6          1           0        4.750573    1.513578    0.028092
      7         16           0        2.677525   -1.414413   -0.182034
      8          1           0        5.095143   -1.073626   -0.247877
      9          6           0        0.291574   -0.017601    0.043210
     10         16           0       -0.513345   -1.573464    0.213779
     11          6           0       -2.070778   -0.832123    0.092560
     12          6           0       -1.951222    0.532881   -0.064331
     13          6           0       -0.610961    1.003114   -0.100507
     14          1           0       -0.336165    2.033939   -0.255083
     15         16           0       -3.509802    1.277808   -0.184149
     16          6           0       -4.289093   -0.266078   -0.018488
     17          6           0       -3.415621   -1.298704    0.120873
     18          1           0       -5.367460   -0.316919   -0.034974
     19          1           0       -3.717626   -2.330083    0.235418
     20          1           0        2.981873    3.197139    0.535014
     21          1           0        1.389003    2.654182    1.074611
     22          1           0        1.686220    2.974743   -0.639600
 ---------------------------------------------------------------------

 The electronic state is 1-A.
 Alpha  occ. eigenvalues --  -89.05106 -89.04984 -89.04842 -10.34093 -10.33077
 Alpha  occ. eigenvalues --  -10.32421 -10.32357 -10.32336 -10.31818 -10.30630
 Alpha  occ. eigenvalues --  -10.30552 -10.30463 -10.29369 -10.29113  -8.09151
 Alpha  occ. eigenvalues --   -8.09046  -8.08944  -6.04000  -6.03908  -6.03777
 Alpha  occ. eigenvalues --   -6.03627  -6.03534  -6.03389  -6.03213  -6.03078
 Alpha  occ. eigenvalues --   -6.03042  -1.02292  -0.99854  -0.95321  -0.88199
 Alpha  occ. eigenvalues --   -0.86809  -0.85905  -0.81072  -0.80290  -0.77972
 Alpha  occ. eigenvalues --   -0.70727  -0.66707  -0.66548  -0.62988  -0.61169
 Alpha  occ. eigenvalues --   -0.58934  -0.58563  -0.52935  -0.52670  -0.52229
 Alpha  occ. eigenvalues --   -0.50822  -0.50083  -0.48379  -0.47752  -0.47088
 Alpha  occ. eigenvalues --   -0.46621  -0.45969  -0.44179  -0.43142  -0.43032
 Alpha  occ. eigenvalues --   -0.41466  -0.37211  -0.34390  -0.32935  -0.30792
 Alpha  occ. eigenvalues --   -0.27339
 Alpha virt. eigenvalues --    0.00293   0.05128   0.05699   0.06027   0.06403
 Alpha virt. eigenvalues --    0.06674   0.07114   0.07736   0.08245   0.08901
 Alpha virt. eigenvalues --    0.09219   0.09368   0.09602   0.10304   0.10819

 Mulliken charges:
               1
     1  C    0.116976
     2  C    0.454494
     3  C    0.692819
     4  C   -1.186361
     5  C   -0.170783
     6  H    0.145460
     7  S   -0.597316
     8  H    0.185749
     9  C    0.170449
    10  S   -0.588722
    11  C    0.455462
    12  C    0.194396
    13  C    0.029136
    14  H    0.156733
    15  S   -0.456611
    16  C   -0.111371
    17  C   -0.376046
    18  H    0.193105
    19  H    0.162107
    20  H    0.166789
    21  H    0.176944
    22  H    0.186591
 Sum of Mulliken charges =  -0.00000

 Dipole moment (field-independent basis, Debye):
    X=              0.3642    Y=              0.9044    Z=              0.0134  Tot=              0.9751
 Quadrupole moment (field-independent basis, Debye-Ang):
   XX=            -86.2276   YY=            -95.9849   ZZ=           -109.1598
   XY=              5.4225   XZ=             -0.3809   YZ=             -0.1718

 Normal termination of Gaussian 16 at Tue Oct 26 01:04:43 2021.
