 Gaussian 16, Revision C.01,
 Gaussian 16:  ES64L-G16RevC.01  3-Jul-2019

 --------------------------------------
 # opt=modredundant wb97xd/6-311+g(d,p)
 --------------------------------------

 -------------
 pBTTT_-85.pdb
 -------------
 Symbolic Z-matrix:
 Charge =  0 Multiplicity = 1

 SCF Done:  E(RwB97XD) =  -1618.45874845     A.U. after   17 cycles
 SCF Done:  E(RwB97XD) =  -1618.49382759     A.U. after   16 cycles
 SCF Done:  E(RwB97XD) =  -1618.50458959     A.U. after   16 cycles
 SCF Done:  E(RwB97XD) =  -1618.50710502     A.U. after   16 cycles
 SCF Done:  E(RwB97XD) =  -1618.50732294     A.U. after   15 cycles
 SCF Done:  E(RwB97XD) =  -1618.50797923     A.U. after   14 cycles
 SCF Done:  E(RwB97XD) =  -1618.50797962     A.U. after   14 cycles
 SCF Done:  E(RwB97XD) =  -1618.50802537     A.U. after   13 cycles
 SCF Done:  E(RwB97XD) =  -1618.50803631     A.U. after   13 cycles
 SCF Done:  E(RwB97XD) =  -1618.50806414     A.U. after   13 cycles
 SCF Done:  E(RwB97XD) =  -1618.50876814     A.U. after   13 cycles
 SCF Done:  E(RwB97XD) =  -1618.50781019     A.U. after   15 cycles
 SCF Done:  E(RwB97XD) =  -1618.50875204     A.U. after   15 cycles
 SCF Done:  E(RwB97XD) =  -1618.50880322     A.U. after   14 cycles
 SCF Done:  E(RwB97XD) =  -1618.50881861     A.U. after   13 cycles
 SCF Done:  E(RwB97XD) =  -1618.50882069     A.U. after   11 cycles
 SCF Done:  E(RwB97XD) =  -1618.50882096     A.U. after   11 cycles
 SCF Done:  E(RwB97XD) =  -1618.50882121     A.U. after   11 cycles
 SCF Done:  E(RwB97XD) =  -1618.50882124     A.U. after   11 cycles
 SCF Done:  E(RwB97XD) =  -1618.50882115     A.U. after   11 cycles
 Optimization completed.
    -- Stationary point found.

                         Standard orientation:
 ---------------------------------------------------------------------
 Center     Atomic      Atomic             Coordinates (Angstroms)
 Number     Number       Type             X           Y           Z
 ---------------------------------------------------------------------
      1          6           0        3.965536    0.468262   -0.436430
      2          6           0        2.595036    0.860717   -0.534494
      3          6           0        1.753121   -0.104236   -0.049406
      4          6           0        2.146668    2.173938   -1.103424
      5          6           0        4.134419   -0.763682    0.113759
      6          1           0        4.787723    1.088589   -0.770718
      7         16           0        2.633011   -1.486111    0.530967
      8          1           0        5.059663   -1.290526    0.293532
      9          6           0        0.288898   -0.067760    0.017026
     10         16           0       -0.509795    0.697922    1.378451
     11          6           0       -2.065526    0.342629    0.711107
     12          6           0       -1.944132   -0.331386   -0.488878
     13          6           0       -0.599225   -0.568886   -0.887276
     14          1           0       -0.290218   -1.076438   -1.790602
     15         16           0       -3.500987   -0.683379   -1.160027
     16          6           0       -4.283522    0.083263    0.187637
     17          6           0       -3.414012    0.583987    1.104392
     18          1           0       -5.362270    0.117066    0.220916
     19          1           0       -3.719742    1.093693    2.007086
     20          1           0        2.577366    2.332520   -2.095802
     21          1           0        2.468279    3.003525   -0.467037
     22          1           0        1.059957    2.215595   -1.191701
 ---------------------------------------------------------------------

 The electronic state is 1-A.
 Alpha  occ. eigenvalues --  -89.05120 -89.04953 -89.04596 -10.33512 -10.32441
 Alpha  occ. eigenvalues --  -10.32414 -10.32399 -10.32370 -10.31719 -10.30585
 Alpha  occ. eigenvalues --  -10.30552 -10.30394 -10.29142 -10.28399  -8.09165
 Alpha  occ. eigenvalues --   -8.08993  -8.08674  -6.04013  -6.03843  -6.03640
 Alpha  occ. eigenvalues --   -6.03499  -6.03471  -6.03228  -6.03118  -6.03047
 Alpha  occ. eigenvalues --   -6.02785  -1.02199  -0.99589  -0.95278  -0.87511
 Alpha  occ. eigenvalues --   -0.87033  -0.85444  -0.81070  -0.80259  -0.77423
 Alpha  occ. eigenvalues --   -0.70507  -0.66620  -0.65768  -0.63249  -0.60928
 Alpha  occ. eigenvalues --   -0.58724  -0.58449  -0.52912  -0.52271  -0.52186
 Alpha  occ. eigenvalues --   -0.50336  -0.50298  -0.47887  -0.47504  -0.46986
 Alpha  occ. eigenvalues --   -0.45988  -0.45234  -0.44813  -0.42975  -0.42121
 Alpha  occ. eigenvalues --   -0.41985  -0.36917  -0.32775  -0.31545  -0.30966
 Alpha  occ. eigenvalues --   -0.29677
 Alpha virt. eigenvalues --    0.02329   0.04077   0.05539   0.05860   0.06568
 Alpha virt. eigenvalues --    0.06947   0.07054   0.07113   0.07911   0.08827
 Alpha virt. eigenvalues --    0.08861   0.09377   0.09490   0.09991   0.10182

 Mulliken charges:
               1
     1  C   -0.087893
     2  C   -0.093809
     3  C    0.172730
     4  C   -0.713577
     5  C   -0.137333
     6  H    0.153008
     7  S   -0.242168
     8  H    0.186156
     9  C    0.353785
    10  S   -0.585688
    11  C    0.249694
    12  C   -0.591653
    13  C    0.584497
    14  H    0.168161
    15  S   -0.433275
    16  C   -0.219796
    17  C    0.330414
    18  H    0.193521
    19  H    0.162626
    20  H    0.171548
    21  H    0.184670
    22  H    0.194383
 Sum of Mulliken charges =  -0.00000

 Dipole moment (field-independent basis, Debye):
    X=              0.2277    Y=              0.8793    Z=             -0.4476  Tot=              1.0126
 Quadrupole moment (field-independent basis, Debye-Ang):
   XX=            -86.6530   YY=           -102.6577   ZZ=           -102.4052
   XY=             -0.4708   XZ=             -4.1561   YZ=              1.0199

 Normal termination of Gaussian 16 at Tue Oct 26 01:45:10 2021.
