 Gaussian 16, Revision C.01,
 Gaussian 16:  ES64L-G16RevC.01  3-Jul-2019

 --------------------------------------
 # opt=modredundant wb97xd/6-311+g(d,p)
 --------------------------------------

 ------------
 pBTTT_20.pdb
 ------------
 Symbolic Z-matrix:
 Charge =  0 Multiplicity = 1

 SCF Done:  E(RwB97XD) =  -1618.46096715     A.U. after   19 cycles
 SCF Done:  E(RwB97XD) =  -1618.49427627     A.U. after   16 cycles
 SCF Done:  E(RwB97XD) =  -1618.50405616     A.U. after   16 cycles
 SCF Done:  E(RwB97XD) =  -1618.50642127     A.U. after   15 cycles
 SCF Done:  E(RwB97XD) =  -1618.50697700     A.U. after   15 cycles
 SCF Done:  E(RwB97XD) =  -1618.50744492     A.U. after   13 cycles
 SCF Done:  E(RwB97XD) =  -1618.50753256     A.U. after   13 cycles
 SCF Done:  E(RwB97XD) =  -1618.50754950     A.U. after   13 cycles
 SCF Done:  E(RwB97XD) =  -1618.50758856     A.U. after   12 cycles
 SCF Done:  E(RwB97XD) =  -1618.50762055     A.U. after   12 cycles
 SCF Done:  E(RwB97XD) =  -1618.50762801     A.U. after   13 cycles
 SCF Done:  E(RwB97XD) =  -1618.50763261     A.U. after   11 cycles
 SCF Done:  E(RwB97XD) =  -1618.50763346     A.U. after   10 cycles
 Optimization completed.
    -- Stationary point found.

                         Standard orientation:
 ---------------------------------------------------------------------
 Center     Atomic      Atomic             Coordinates (Angstroms)
 Number     Number       Type             X           Y           Z
 ---------------------------------------------------------------------
      1          6           0        4.026256    0.273085    0.110186
      2          6           0        2.714339    0.830862    0.184442
      3          6           0        1.740483   -0.128126    0.024352
      4          6           0        2.486281    2.295171    0.432370
      5          6           0        4.039825   -1.067573   -0.109354
      6          1           0        4.924961    0.865763    0.225915
      7         16           0        2.449262   -1.696285   -0.246414
      8          1           0        4.892980   -1.722748   -0.198632
      9          6           0        0.287034   -0.017116    0.012248
     10         16           0       -0.522938    1.512960   -0.294809
     11          6           0       -2.076623    0.766582   -0.160171
     12          6           0       -1.952619   -0.582107    0.105051
     13          6           0       -0.610766   -1.031398    0.211030
     14          1           0       -0.317252   -2.048025    0.434340
     15         16           0       -3.508900   -1.326004    0.254829
     16          6           0       -4.293495    0.195554   -0.043235
     17          6           0       -3.423855    1.220641   -0.245332
     18          1           0       -5.372266    0.239228   -0.053771
     19          1           0       -3.729865    2.237771   -0.445256
     20          1           0        3.413057    2.767352    0.763231
     21          1           0        1.729525    2.464398    1.201770
     22          1           0        2.158913    2.812089   -0.474805
 ---------------------------------------------------------------------

 The electronic state is 1-A.
 Alpha  occ. eigenvalues --  -89.05149 -89.05058 -89.04766 -10.34002 -10.33004
 Alpha  occ. eigenvalues --  -10.32413 -10.32324 -10.32303 -10.31787 -10.30598
 Alpha  occ. eigenvalues --  -10.30545 -10.30348 -10.29312 -10.28777  -8.09197
 Alpha  occ. eigenvalues --   -8.09102  -8.08865  -6.04055  -6.03952  -6.03700
 Alpha  occ. eigenvalues --   -6.03680  -6.03578  -6.03312  -6.03237  -6.03163
 Alpha  occ. eigenvalues --   -6.02962  -1.02278  -0.99785  -0.95319  -0.87857
 Alpha  occ. eigenvalues --   -0.87193  -0.85658  -0.81074  -0.80191  -0.77834
 Alpha  occ. eigenvalues --   -0.70689  -0.67116  -0.66121  -0.62425  -0.61241
 Alpha  occ. eigenvalues --   -0.59007  -0.58559  -0.52841  -0.52551  -0.52248
 Alpha  occ. eigenvalues --   -0.50699  -0.50115  -0.48185  -0.47547  -0.47022
 Alpha  occ. eigenvalues --   -0.46586  -0.45798  -0.44656  -0.43106  -0.42524
 Alpha  occ. eigenvalues --   -0.41648  -0.37193  -0.34208  -0.32853  -0.30862
 Alpha  occ. eigenvalues --   -0.27372
 Alpha virt. eigenvalues --    0.00477   0.05383   0.05556   0.06033   0.06417
 Alpha virt. eigenvalues --    0.06637   0.07241   0.07956   0.08389   0.08695
 Alpha virt. eigenvalues --    0.09109   0.09323   0.09749   0.10128   0.10829

 Mulliken charges:
               1
     1  C    0.040004
     2  C    0.306176
     3  C    0.615220
     4  C   -1.053617
     5  C   -0.152382
     6  H    0.146124
     7  S   -0.588770
     8  H    0.186502
     9  C    0.439158
    10  S   -0.600331
    11  C    0.349707
    12  C    0.168672
    13  C   -0.022114
    14  H    0.167938
    15  S   -0.452638
    16  C   -0.142405
    17  C   -0.307477
    18  H    0.193088
    19  H    0.161196
    20  H    0.162386
    21  H    0.186450
    22  H    0.197113
 Sum of Mulliken charges =  -0.00000

 Dipole moment (field-independent basis, Debye):
    X=              0.4706    Y=              0.9418    Z=              0.1844  Tot=              1.0689
 Quadrupole moment (field-independent basis, Debye-Ang):
   XX=            -86.0636   YY=            -96.4171   ZZ=           -108.8616
   XY=             -2.0770   XZ=              1.0780   YZ=             -0.4400

 Normal termination of Gaussian 16 at Tue Oct 26 01:43:03 2021.
