 Gaussian 16, Revision C.01,
 Gaussian 16:  ES64L-G16RevC.01  3-Jul-2019

 --------------------------------------
 # opt=modredundant wb97xd/6-311+g(d,p)
 --------------------------------------

 -------------
 pBTTT_155.pdb
 -------------
 Symbolic Z-matrix:
 Charge =  0 Multiplicity = 1

 SCF Done:  E(RwB97XD) =  -1618.46107396     A.U. after   18 cycles
 SCF Done:  E(RwB97XD) =  -1618.49469789     A.U. after   17 cycles
 SCF Done:  E(RwB97XD) =  -1618.50456324     A.U. after   16 cycles
 SCF Done:  E(RwB97XD) =  -1618.50716703     A.U. after   14 cycles
 SCF Done:  E(RwB97XD) =  -1618.50785474     A.U. after   14 cycles
 SCF Done:  E(RwB97XD) =  -1618.50819980     A.U. after   14 cycles
 SCF Done:  E(RwB97XD) =  -1618.50834415     A.U. after   13 cycles
 SCF Done:  E(RwB97XD) =  -1618.50840746     A.U. after   12 cycles
 SCF Done:  E(RwB97XD) =  -1618.50845510     A.U. after   12 cycles
 SCF Done:  E(RwB97XD) =  -1618.50847541     A.U. after   13 cycles
 SCF Done:  E(RwB97XD) =  -1618.50848059     A.U. after   11 cycles
 SCF Done:  E(RwB97XD) =  -1618.50848220     A.U. after   10 cycles
 SCF Done:  E(RwB97XD) =  -1618.50848252     A.U. after   10 cycles
 Optimization completed.
    -- Stationary point found.

                         Standard orientation:
 ---------------------------------------------------------------------
 Center     Atomic      Atomic             Coordinates (Angstroms)
 Number     Number       Type             X           Y           Z
 ---------------------------------------------------------------------
      1          6           0       -3.941619    0.788331    0.027836
      2          6           0       -2.564133    1.121411    0.193562
      3          6           0       -1.748123    0.029617    0.008123
      4          6           0       -2.106288    2.501501    0.564429
      5          6           0       -4.153421   -0.518933   -0.278243
      6          1           0       -4.741724    1.508012    0.147840
      7         16           0       -2.677396   -1.387680   -0.389098
      8          1           0       -5.093374   -1.023694   -0.441963
      9          6           0       -0.293232   -0.030425    0.036736
     10         16           0        0.518935   -1.539636    0.426150
     11          6           0        2.070641   -0.810555    0.196176
     12          6           0        1.941466    0.519512   -0.149097
     13          6           0        0.596847    0.967779   -0.251201
     14          1           0        0.300872    1.959363   -0.558680
     15         16           0        3.494548    1.250187   -0.377609
     16          6           0        4.284907   -0.250325   -0.000708
     17          6           0        3.419287   -1.259123    0.284397
     18          1           0        5.363589   -0.295591   -0.013060
     19          1           0        3.729000   -2.262196    0.541386
     20          1           0       -2.905455    3.041643    1.075943
     21          1           0       -1.830836    3.084942   -0.320434
     22          1           0       -1.237449    2.468861    1.225824
 ---------------------------------------------------------------------

 The electronic state is 1-A.
 Alpha  occ. eigenvalues --  -89.05115 -89.05009 -89.04799 -10.33932 -10.32914
 Alpha  occ. eigenvalues --  -10.32446 -10.32375 -10.32346 -10.31789 -10.30553
 Alpha  occ. eigenvalues --  -10.30548 -10.30496 -10.29329 -10.28922  -8.09161
 Alpha  occ. eigenvalues --   -8.09065  -8.08893  -6.04010  -6.03923  -6.03725
 Alpha  occ. eigenvalues --   -6.03637  -6.03550  -6.03338  -6.03223  -6.03102
 Alpha  occ. eigenvalues --   -6.02995  -1.02288  -0.99800  -0.95329  -0.88084
 Alpha  occ. eigenvalues --   -0.86813  -0.85828  -0.81093  -0.80282  -0.77830
 Alpha  occ. eigenvalues --   -0.70690  -0.66644  -0.66431  -0.63051  -0.61070
 Alpha  occ. eigenvalues --   -0.58878  -0.58550  -0.52953  -0.52532  -0.52228
 Alpha  occ. eigenvalues --   -0.50758  -0.50026  -0.48235  -0.47734  -0.47127
 Alpha  occ. eigenvalues --   -0.46375  -0.45919  -0.44307  -0.43089  -0.42834
 Alpha  occ. eigenvalues --   -0.41700  -0.37136  -0.34102  -0.32824  -0.30833
 Alpha  occ. eigenvalues --   -0.27615
 Alpha virt. eigenvalues --    0.00605   0.05117   0.05676   0.06004   0.06443
 Alpha virt. eigenvalues --    0.06775   0.07127   0.07638   0.08089   0.09003
 Alpha virt. eigenvalues --    0.09213   0.09388   0.09606   0.10004   0.10648

 Mulliken charges:
               1
     1  C    0.013980
     2  C    0.502202
     3  C    0.482615
     4  C   -1.152687
     5  C   -0.094125
     6  H    0.148059
     7  S   -0.522197
     8  H    0.186028
     9  C    0.346483
    10  S   -0.550192
    11  C    0.524977
    12  C    0.152774
    13  C   -0.105652
    14  H    0.162342
    15  S   -0.454638
    16  C   -0.108520
    17  C   -0.418603
    18  H    0.193191
    19  H    0.162720
    20  H    0.164156
    21  H    0.187667
    22  H    0.179421
 Sum of Mulliken charges =  -0.00000

 Dipole moment (field-independent basis, Debye):
    X=             -0.3089    Y=              0.8893    Z=              0.1241  Tot=              0.9495
 Quadrupole moment (field-independent basis, Debye-Ang):
   XX=            -86.4001   YY=            -96.7132   ZZ=           -108.4457
   XY=             -5.3209   XZ=              0.7677   YZ=             -0.4793

 Normal termination of Gaussian 16 at Tue Oct 26 02:07:14 2021.
