 Gaussian 16, Revision C.01,
 Gaussian 16:  ES64L-G16RevC.01  3-Jul-2019

 --------------------------------------
 # opt=modredundant wb97xd/6-311+g(d,p)
 --------------------------------------

 -------------
 pBTTT_-15.pdb
 -------------
 Symbolic Z-matrix:
 Charge =  0 Multiplicity = 1

 SCF Done:  E(RwB97XD) =  -1618.46182957     A.U. after   18 cycles
 SCF Done:  E(RwB97XD) =  -1618.49508053     A.U. after   16 cycles
 SCF Done:  E(RwB97XD) =  -1618.50433579     A.U. after   16 cycles
 SCF Done:  E(RwB97XD) =  -1618.50648559     A.U. after   14 cycles
 SCF Done:  E(RwB97XD) =  -1618.50694445     A.U. after   14 cycles
 SCF Done:  E(RwB97XD) =  -1618.50722180     A.U. after   13 cycles
 SCF Done:  E(RwB97XD) =  -1618.50732745     A.U. after   13 cycles
 SCF Done:  E(RwB97XD) =  -1618.50731891     A.U. after   12 cycles
 SCF Done:  E(RwB97XD) =  -1618.50733363     A.U. after   12 cycles
 SCF Done:  E(RwB97XD) =  -1618.50734610     A.U. after   12 cycles
 SCF Done:  E(RwB97XD) =  -1618.50735828     A.U. after   10 cycles
 SCF Done:  E(RwB97XD) =  -1618.50735099     A.U. after   12 cycles
 SCF Done:  E(RwB97XD) =  -1618.50713738     A.U. after   13 cycles
 SCF Done:  E(RwB97XD) =  -1618.50734312     A.U. after   13 cycles
 SCF Done:  E(RwB97XD) =  -1618.50735726     A.U. after   11 cycles
 SCF Done:  E(RwB97XD) =  -1618.50735822     A.U. after   10 cycles
 SCF Done:  E(RwB97XD) =  -1618.50735773     A.U. after   11 cycles
 SCF Done:  E(RwB97XD) =  -1618.50736166     A.U. after   11 cycles
 SCF Done:  E(RwB97XD) =  -1618.50736169     A.U. after   11 cycles
 SCF Done:  E(RwB97XD) =  -1618.50736201     A.U. after   10 cycles
 Optimization completed.
    -- Stationary point found.

                         Standard orientation:
 ---------------------------------------------------------------------
 Center     Atomic      Atomic             Coordinates (Angstroms)
 Number     Number       Type             X           Y           Z
 ---------------------------------------------------------------------
      1          6           0       -4.027761    0.273006    0.084171
      2          6           0       -2.716326    0.834304    0.142422
      3          6           0       -1.740372   -0.128761    0.021242
      4          6           0       -2.493105    2.307870    0.332143
      5          6           0       -4.039703   -1.074631   -0.084621
      6          1           0       -4.927045    0.869414    0.172853
      7         16           0       -2.448086   -1.707206   -0.190041
      8          1           0       -4.891660   -1.733796   -0.153311
      9          6           0       -0.286991   -0.017063    0.008958
     10         16           0        0.524575    1.525530   -0.225987
     11          6           0        2.077824    0.773506   -0.123710
     12          6           0        1.953255   -0.585656    0.079734
     13          6           0        0.611447   -1.039122    0.162050
     14          1           0        0.319423   -2.065817    0.335685
     15         16           0        3.509291   -1.336099    0.195792
     16          6           0        4.294534    0.197293   -0.032787
     17          6           0        3.425092    1.230660   -0.188324
     18          1           0        5.373318    0.241041   -0.040481
     19          1           0        3.731328    2.255749   -0.341901
     20          1           0       -3.428555    2.794873    0.613108
     21          1           0       -2.136504    2.783706   -0.586443
     22          1           0       -1.760152    2.510791    1.116596
 ---------------------------------------------------------------------

 The electronic state is 1-A.
 Alpha  occ. eigenvalues --  -89.05160 -89.05050 -89.04771 -10.34039 -10.33055
 Alpha  occ. eigenvalues --  -10.32410 -10.32308 -10.32295 -10.31812 -10.30629
 Alpha  occ. eigenvalues --  -10.30542 -10.30335 -10.29326 -10.28809  -8.09208
 Alpha  occ. eigenvalues --   -8.09095  -8.08872  -6.04067  -6.03945  -6.03708
 Alpha  occ. eigenvalues --   -6.03691  -6.03571  -6.03320  -6.03248  -6.03155
 Alpha  occ. eigenvalues --   -6.02967  -1.02279  -0.99797  -0.95319  -0.87897
 Alpha  occ. eigenvalues --   -0.87196  -0.85668  -0.81069  -0.80195  -0.77866
 Alpha  occ. eigenvalues --   -0.70703  -0.67153  -0.66131  -0.62384  -0.61265
 Alpha  occ. eigenvalues --   -0.59035  -0.58570  -0.52843  -0.52592  -0.52257
 Alpha  occ. eigenvalues --   -0.50704  -0.50127  -0.48215  -0.47560  -0.46995
 Alpha  occ. eigenvalues --   -0.46624  -0.45862  -0.44631  -0.43143  -0.42526
 Alpha  occ. eigenvalues --   -0.41590  -0.37224  -0.34289  -0.32875  -0.30870
 Alpha  occ. eigenvalues --   -0.27286
 Alpha virt. eigenvalues --    0.00414   0.05390   0.05563   0.06036   0.06395
 Alpha virt. eigenvalues --    0.06628   0.07240   0.08083   0.08400   0.08686
 Alpha virt. eigenvalues --    0.09053   0.09337   0.09740   0.10199   0.10834

 Mulliken charges:
               1
     1  C    0.055051
     2  C    0.319749
     3  C    0.633870
     4  C   -1.058583
     5  C   -0.177409
     6  H    0.145802
     7  S   -0.613719
     8  H    0.186686
     9  C    0.433053
    10  S   -0.631170
    11  C    0.314304
    12  C    0.174638
    13  C    0.027372
    14  H    0.167044
    15  S   -0.450717
    16  C   -0.145071
    17  C   -0.280130
    18  H    0.193099
    19  H    0.160905
    20  H    0.163372
    21  H    0.197876
    22  H    0.183979
 Sum of Mulliken charges =  -0.00000

 Dipole moment (field-independent basis, Debye):
    X=             -0.4950    Y=              0.9518    Z=              0.1432  Tot=              1.0824
 Quadrupole moment (field-independent basis, Debye-Ang):
   XX=            -85.9988   YY=            -96.2425   ZZ=           -109.0735
   XY=              2.0588   XZ=             -0.8194   YZ=             -0.3394

 Normal termination of Gaussian 16 at Tue Oct 26 02:14:30 2021.
