 Gaussian 16, Revision C.01,
 Gaussian 16:  ES64L-G16RevC.01  3-Jul-2019

 --------------------------------------
 # opt=modredundant wb97xd/6-311+g(d,p)
 --------------------------------------

 --------------
 pBTTT_-100.pdb
 --------------
 Symbolic Z-matrix:
 Charge =  0 Multiplicity = 1

 SCF Done:  E(RwB97XD) =  -1618.45850927     A.U. after   18 cycles
 SCF Done:  E(RwB97XD) =  -1618.49359045     A.U. after   16 cycles
 SCF Done:  E(RwB97XD) =  -1618.50444521     A.U. after   14 cycles
 SCF Done:  E(RwB97XD) =  -1618.50698889     A.U. after   16 cycles
 SCF Done:  E(RwB97XD) =  -1618.50720497     A.U. after   15 cycles
 SCF Done:  E(RwB97XD) =  -1618.50791780     A.U. after   14 cycles
 SCF Done:  E(RwB97XD) =  -1618.50779339     A.U. after   14 cycles
 SCF Done:  E(RwB97XD) =  -1618.50796353     A.U. after   14 cycles
 SCF Done:  E(RwB97XD) =  -1618.50799168     A.U. after   13 cycles
 SCF Done:  E(RwB97XD) =  -1618.50799557     A.U. after   12 cycles
 SCF Done:  E(RwB97XD) =  -1618.50822190     A.U. after   14 cycles
 SCF Done:  E(RwB97XD) =  -1618.50849973     A.U. after   14 cycles
 SCF Done:  E(RwB97XD) =  -1618.50871091     A.U. after   15 cycles
 SCF Done:  E(RwB97XD) =  -1618.50861906     A.U. after   16 cycles
 SCF Done:  E(RwB97XD) =  -1618.50889613     A.U. after   14 cycles
 SCF Done:  E(RwB97XD) =  -1618.50889020     A.U. after   12 cycles
 SCF Done:  E(RwB97XD) =  -1618.50890151     A.U. after   12 cycles
 SCF Done:  E(RwB97XD) =  -1618.50890208     A.U. after   11 cycles
 SCF Done:  E(RwB97XD) =  -1618.50890227     A.U. after   10 cycles
 SCF Done:  E(RwB97XD) =  -1618.50890230     A.U. after    9 cycles
 Optimization completed.
    -- Stationary point found.

                         Standard orientation:
 ---------------------------------------------------------------------
 Center     Atomic      Atomic             Coordinates (Angstroms)
 Number     Number       Type             X           Y           Z
 ---------------------------------------------------------------------
      1          6           0        3.943220    0.698488    0.195424
      2          6           0        2.559998    0.963536    0.437823
      3          6           0        1.753912    0.000044   -0.108116
      4          6           0        2.067629    2.153408    1.206458
      5          6           0        4.157008   -0.444071   -0.509701
      6          1           0        4.742132    1.341363    0.543307
      7         16           0        2.683590   -1.232177   -0.907838
      8          1           0        5.100515   -0.867401   -0.820311
      9          6           0        0.290904   -0.069592   -0.064292
     10         16           0       -0.510563   -1.117176    1.092132
     11          6           0       -2.064565   -0.585902    0.549450
     12          6           0       -1.940799    0.350778   -0.458551
     13          6           0       -0.595172    0.647337   -0.811982
     14          1           0       -0.283336    1.346386   -1.575597
     15         16           0       -3.496332    0.884935   -1.000002
     16          6           0       -4.281588   -0.163488    0.140586
     17          6           0       -3.413819   -0.885971    0.896935
     18          1           0       -5.360374   -0.181959    0.183076
     19          1           0       -3.721357   -1.589778    1.657339
     20          1           0        2.533476    2.194290    2.194836
     21          1           0        0.985290    2.117454    1.338530
     22          1           0        2.316167    3.082933    0.685967
 ---------------------------------------------------------------------

 The electronic state is 1-A.
 Alpha  occ. eigenvalues --  -89.05123 -89.04963 -89.04594 -10.33516 -10.32443
 Alpha  occ. eigenvalues --  -10.32441 -10.32396 -10.32373 -10.31737 -10.30569
 Alpha  occ. eigenvalues --  -10.30552 -10.30419 -10.29154 -10.28411  -8.09169
 Alpha  occ. eigenvalues --   -8.09002  -8.08674  -6.04017  -6.03852  -6.03644
 Alpha  occ. eigenvalues --   -6.03500  -6.03480  -6.03232  -6.03118  -6.03056
 Alpha  occ. eigenvalues --   -6.02785  -1.02206  -0.99598  -0.95283  -0.87600
 Alpha  occ. eigenvalues --   -0.86949  -0.85476  -0.81074  -0.80268  -0.77435
 Alpha  occ. eigenvalues --   -0.70517  -0.66584  -0.65800  -0.63315  -0.60906
 Alpha  occ. eigenvalues --   -0.58726  -0.58455  -0.52934  -0.52302  -0.52162
 Alpha  occ. eigenvalues --   -0.50405  -0.50221  -0.47891  -0.47538  -0.46999
 Alpha  occ. eigenvalues --   -0.45958  -0.45352  -0.44728  -0.42976  -0.42112
 Alpha  occ. eigenvalues --   -0.42041  -0.36920  -0.32783  -0.31849  -0.30814
 Alpha  occ. eigenvalues --   -0.29548
 Alpha virt. eigenvalues --    0.02243   0.04125   0.05541   0.05882   0.06538
 Alpha virt. eigenvalues --    0.07007   0.07077   0.07147   0.07897   0.08869
 Alpha virt. eigenvalues --    0.09030   0.09273   0.09530   0.09940   0.10181

 Mulliken charges:
               1
     1  C   -0.102576
     2  C    0.030323
     3  C    0.208289
     4  C   -0.762540
     5  C   -0.098970
     6  H    0.153144
     7  S   -0.280139
     8  H    0.186267
     9  C    0.188909
    10  S   -0.585152
    11  C    0.243167
    12  C   -0.544082
    13  C    0.619475
    14  H    0.164966
    15  S   -0.440429
    16  C   -0.215584
    17  C    0.329303
    18  H    0.193512
    19  H    0.162743
    20  H    0.174330
    21  H    0.195643
    22  H    0.179401
 Sum of Mulliken charges =  -0.00000

 Dipole moment (field-independent basis, Debye):
    X=              0.2088    Y=              0.8730    Z=              0.5081  Tot=              1.0315
 Quadrupole moment (field-independent basis, Debye-Ang):
   XX=            -86.7251   YY=           -101.5056   ZZ=           -103.5620
   XY=              4.0487   XZ=             -2.0963   YZ=             -1.2335

 Normal termination of Gaussian 16 at Tue Oct 26 01:46:10 2021.
