 Gaussian 16, Revision C.01,
 Gaussian 16:  ES64L-G16RevC.01  3-Jul-2019

 --------------------------------------
 # opt=modredundant wb97xd/6-311+g(d,p)
 --------------------------------------

 ------------
 pBTTT_60.pdb
 ------------
 Symbolic Z-matrix:
 Charge =  0 Multiplicity = 1

 SCF Done:  E(RwB97XD) =  -1618.45981003     A.U. after   18 cycles
 SCF Done:  E(RwB97XD) =  -1618.49445065     A.U. after   16 cycles
 SCF Done:  E(RwB97XD) =  -1618.50492861     A.U. after   16 cycles
 SCF Done:  E(RwB97XD) =  -1618.50734149     A.U. after   15 cycles
 SCF Done:  E(RwB97XD) =  -1618.50766947     A.U. after   14 cycles
 SCF Done:  E(RwB97XD) =  -1618.50837187     A.U. after   14 cycles
 SCF Done:  E(RwB97XD) =  -1618.50843250     A.U. after   14 cycles
 SCF Done:  E(RwB97XD) =  -1618.50851782     A.U. after   13 cycles
 SCF Done:  E(RwB97XD) =  -1618.50860650     A.U. after   13 cycles
 SCF Done:  E(RwB97XD) =  -1618.50871814     A.U. after   14 cycles
 SCF Done:  E(RwB97XD) =  -1618.50889335     A.U. after   13 cycles
 SCF Done:  E(RwB97XD) =  -1618.50904579     A.U. after   14 cycles
 SCF Done:  E(RwB97XD) =  -1618.50915314     A.U. after   13 cycles
 SCF Done:  E(RwB97XD) =  -1618.50914397     A.U. after   13 cycles
 SCF Done:  E(RwB97XD) =  -1618.50916496     A.U. after   13 cycles
 SCF Done:  E(RwB97XD) =  -1618.50916439     A.U. after   11 cycles
 SCF Done:  E(RwB97XD) =  -1618.50916532     A.U. after   10 cycles
 Optimization completed.
    -- Stationary point found.

                         Standard orientation:
 ---------------------------------------------------------------------
 Center     Atomic      Atomic             Coordinates (Angstroms)
 Number     Number       Type             X           Y           Z
 ---------------------------------------------------------------------
      1          6           0        3.998692    0.323024    0.346766
      2          6           0        2.656608    0.783222    0.509873
      3          6           0        1.746966   -0.121211    0.025081
      4          6           0        2.310676    2.092730    1.157416
      5          6           0        4.084767   -0.898770   -0.244362
      6          1           0        4.862954    0.886961    0.674843
      7         16           0        2.533739   -1.524146   -0.633165
      8          1           0        4.973970   -1.468360   -0.469266
      9          6           0        0.287256   -0.036196    0.003986
     10         16           0       -0.509169    1.273474   -0.850414
     11          6           0       -2.067018    0.642562   -0.440503
     12          6           0       -1.948274   -0.521225    0.294290
     13          6           0       -0.605275   -0.912960    0.548897
     14          1           0       -0.302138   -1.783639    1.114008
     15         16           0       -3.506800   -1.151051    0.708696
     16          6           0       -4.286158    0.164805   -0.114421
     17          6           0       -3.413970    1.043028   -0.676295
     18          1           0       -5.364838    0.208655   -0.134824
     19          1           0       -3.717309    1.921325   -1.228314
     20          1           0        2.986904    2.295973    1.991137
     21          1           0        1.288285    2.092108    1.538572
     22          1           0        2.402209    2.920481    0.447603
 ---------------------------------------------------------------------

 The electronic state is 1-A.
 Alpha  occ. eigenvalues --  -89.05103 -89.05011 -89.04677 -10.33636 -10.32548
 Alpha  occ. eigenvalues --  -10.32438 -10.32373 -10.32371 -10.31696 -10.30551
 Alpha  occ. eigenvalues --  -10.30524 -10.30396 -10.29188 -10.28469  -8.09148
 Alpha  occ. eigenvalues --   -8.09055  -8.08757  -6.03997  -6.03908  -6.03624
 Alpha  occ. eigenvalues --   -6.03584  -6.03536  -6.03211  -6.03201  -6.03104
 Alpha  occ. eigenvalues --   -6.02867  -1.02223  -0.99646  -0.95294  -0.87511
 Alpha  occ. eigenvalues --   -0.87144  -0.85507  -0.81078  -0.80222  -0.77518
 Alpha  occ. eigenvalues --   -0.70554  -0.66753  -0.65919  -0.62940  -0.61021
 Alpha  occ. eigenvalues --   -0.58781  -0.58466  -0.52863  -0.52280  -0.52235
 Alpha  occ. eigenvalues --   -0.50517  -0.50128  -0.47936  -0.47494  -0.47066
 Alpha  occ. eigenvalues --   -0.46165  -0.45231  -0.44881  -0.42975  -0.42267
 Alpha  occ. eigenvalues --   -0.41956  -0.36958  -0.33075  -0.32443  -0.30838
 Alpha  occ. eigenvalues --   -0.28701
 Alpha virt. eigenvalues --    0.01556   0.04827   0.05559   0.05899   0.06560
 Alpha virt. eigenvalues --    0.06811   0.07097   0.07171   0.08086   0.08742
 Alpha virt. eigenvalues --    0.09002   0.09509   0.09602   0.09835   0.10516

 Mulliken charges:
               1
     1  C    0.008568
     2  C   -0.346097
     3  C    0.406399
     4  C   -0.917711
     5  C   -0.198502
     6  H    0.151526
     7  S   -0.272362
     8  H    0.186403
     9  C    0.706971
    10  S   -0.560864
    11  C    0.348524
    12  C   -0.602984
    13  C    0.605153
    14  H    0.171326
    15  S   -0.425755
    16  C   -0.215010
    17  C    0.061227
    18  H    0.193496
    19  H    0.162318
    20  H    0.161395
    21  H    0.182092
    22  H    0.193887
 Sum of Mulliken charges =  -0.00000

 Dipole moment (field-independent basis, Debye):
    X=              0.2996    Y=              0.8248    Z=              0.4510  Tot=              0.9866
 Quadrupole moment (field-independent basis, Debye-Ang):
   XX=            -86.5320   YY=            -99.2482   ZZ=           -105.8062
   XY=             -1.9073   XZ=              2.8941   YZ=             -1.0976

 Normal termination of Gaussian 16 at Tue Oct 26 02:25:13 2021.
