 Gaussian 16, Revision C.01,
 Gaussian 16:  ES64L-G16RevC.01  3-Jul-2019

 --------------------------------------
 # opt=modredundant wb97xd/6-311+g(d,p)
 --------------------------------------

 ------------
 pBTTT_95.pdb
 ------------
 Symbolic Z-matrix:
 Charge =  0 Multiplicity = 1

 SCF Done:  E(RwB97XD) =  -1618.45881115     A.U. after   18 cycles
 SCF Done:  E(RwB97XD) =  -1618.49381438     A.U. after   17 cycles
 SCF Done:  E(RwB97XD) =  -1618.50458408     A.U. after   17 cycles
 SCF Done:  E(RwB97XD) =  -1618.50709443     A.U. after   17 cycles
 SCF Done:  E(RwB97XD) =  -1618.50729895     A.U. after   15 cycles
 SCF Done:  E(RwB97XD) =  -1618.50791553     A.U. after   14 cycles
 SCF Done:  E(RwB97XD) =  -1618.50784526     A.U. after   13 cycles
 SCF Done:  E(RwB97XD) =  -1618.50790383     A.U. after   13 cycles
 SCF Done:  E(RwB97XD) =  -1618.50793457     A.U. after   13 cycles
 SCF Done:  E(RwB97XD) =  -1618.50797787     A.U. after   13 cycles
 SCF Done:  E(RwB97XD) =  -1618.47634842     A.U. after   18 cycles
 SCF Done:  E(RwB97XD) =  -1618.50829611     A.U. after   15 cycles
 SCF Done:  E(RwB97XD) =  -1618.49861545     A.U. after   18 cycles
 SCF Done:  E(RwB97XD) =  -1618.50852974     A.U. after   14 cycles
 SCF Done:  E(RwB97XD) =  -1618.50776081     A.U. after   17 cycles
 SCF Done:  E(RwB97XD) =  -1618.50879122     A.U. after   13 cycles
 SCF Done:  E(RwB97XD) =  -1618.50881541     A.U. after   13 cycles
 SCF Done:  E(RwB97XD) =  -1618.50882660     A.U. after   13 cycles
 SCF Done:  E(RwB97XD) =  -1618.50882890     A.U. after   12 cycles
 SCF Done:  E(RwB97XD) =  -1618.50882905     A.U. after   10 cycles
 Optimization completed.
    -- Stationary point found.

                         Standard orientation:
 ---------------------------------------------------------------------
 Center     Atomic      Atomic             Coordinates (Angstroms)
 Number     Number       Type             X           Y           Z
 ---------------------------------------------------------------------
      1          6           0       -3.949131    0.688375    0.140485
      2          6           0       -2.568999    0.974135    0.377010
      3          6           0       -1.754064   -0.012953   -0.109826
      4          6           0       -2.086947    2.207784    1.080282
      5          6           0       -4.151556   -0.491708   -0.503656
      6          1           0       -4.753850    1.345478    0.445789
      7         16           0       -2.671209   -1.292224   -0.847503
      8          1           0       -5.090453   -0.935695   -0.799100
      9          6           0       -0.290312   -0.071023   -0.054807
     10         16           0        0.511086   -0.940746    1.240781
     11          6           0        2.065208   -0.495428    0.626051
     12          6           0        1.941484    0.282088   -0.509421
     13          6           0        0.595825    0.525610   -0.901340
     14          1           0        0.284284    1.106873   -1.758147
     15         16           0        3.496901    0.731504   -1.123009
     16          6           0        4.282213   -0.136235    0.160281
     17          6           0        3.414515   -0.739496    1.014905
     18          1           0        5.360997   -0.147905    0.205287
     19          1           0        3.722036   -1.323008    1.871112
     20          1           0       -2.507833    2.268015    2.087851
     21          1           0       -2.393905    3.107842    0.539953
     22          1           0       -0.999127    2.214972    1.163166
 ---------------------------------------------------------------------

 The electronic state is 1-A.
 Alpha  occ. eigenvalues --  -89.05124 -89.04958 -89.04589 -10.33508 -10.32442
 Alpha  occ. eigenvalues --  -10.32425 -10.32399 -10.32371 -10.31731 -10.30576
 Alpha  occ. eigenvalues --  -10.30553 -10.30409 -10.29146 -10.28401  -8.09169
 Alpha  occ. eigenvalues --   -8.08998  -8.08668  -6.04017  -6.03848  -6.03645
 Alpha  occ. eigenvalues --   -6.03494  -6.03476  -6.03232  -6.03112  -6.03052
 Alpha  occ. eigenvalues --   -6.02779  -1.02202  -0.99590  -0.95280  -0.87566
 Alpha  occ. eigenvalues --   -0.86977  -0.85458  -0.81072  -0.80265  -0.77425
 Alpha  occ. eigenvalues --   -0.70510  -0.66593  -0.65774  -0.63306  -0.60911
 Alpha  occ. eigenvalues --   -0.58723  -0.58451  -0.52928  -0.52290  -0.52168
 Alpha  occ. eigenvalues --   -0.50371  -0.50259  -0.47888  -0.47522  -0.46988
 Alpha  occ. eigenvalues --   -0.45962  -0.45305  -0.44756  -0.42976  -0.42105
 Alpha  occ. eigenvalues --   -0.42022  -0.36918  -0.32769  -0.31660  -0.30871
 Alpha  occ. eigenvalues --   -0.29674
 Alpha virt. eigenvalues --    0.02335   0.04050   0.05541   0.05871   0.06551
 Alpha virt. eigenvalues --    0.06984   0.07082   0.07127   0.07892   0.08847
 Alpha virt. eigenvalues --    0.08980   0.09302   0.09519   0.09939   0.10221

 Mulliken charges:
               1
     1  C   -0.077254
     2  C   -0.026431
     3  C    0.235987
     4  C   -0.755817
     5  C   -0.119677
     6  H    0.153082
     7  S   -0.265872
     8  H    0.186158
     9  C    0.222533
    10  S   -0.576904
    11  C    0.232579
    12  C   -0.567821
    13  C    0.602165
    14  H    0.166197
    15  S   -0.439286
    16  C   -0.218429
    17  C    0.341460
    18  H    0.193473
    19  H    0.162729
    20  H    0.177728
    21  H    0.176917
    22  H    0.196480
 Sum of Mulliken charges =  -0.00000

 Dipole moment (field-independent basis, Debye):
    X=             -0.2107    Y=              0.9026    Z=              0.4499  Tot=              1.0303
 Quadrupole moment (field-independent basis, Debye-Ang):
   XX=            -86.7057   YY=           -102.3104   ZZ=           -102.7613
   XY=             -3.6549   XZ=              2.5367   YZ=             -1.1428

 Normal termination of Gaussian 16 at Tue Oct 26 02:47:02 2021.
