 Gaussian 16, Revision C.01,
 Gaussian 16:  ES64L-G16RevC.01  3-Jul-2019

 --------------------------------------
 # opt=modredundant wb97xd/6-311+g(d,p)
 --------------------------------------

 -------------
 pBTTT_-45.pdb
 -------------
 Symbolic Z-matrix:
 Charge =  0 Multiplicity = 1

 SCF Done:  E(RwB97XD) =  -1618.46145963     A.U. after   18 cycles
 SCF Done:  E(RwB97XD) =  -1618.49549652     A.U. after   15 cycles
 SCF Done:  E(RwB97XD) =  -1618.50545544     A.U. after   16 cycles
 SCF Done:  E(RwB97XD) =  -1618.50767536     A.U. after   15 cycles
 SCF Done:  E(RwB97XD) =  -1618.50795873     A.U. after   16 cycles
 SCF Done:  E(RwB97XD) =  -1618.50859328     A.U. after   14 cycles
 SCF Done:  E(RwB97XD) =  -1618.50861892     A.U. after   14 cycles
 SCF Done:  E(RwB97XD) =  -1618.50875325     A.U. after   13 cycles
 SCF Done:  E(RwB97XD) =  -1618.50884760     A.U. after   13 cycles
 SCF Done:  E(RwB97XD) =  -1618.50892214     A.U. after   13 cycles
 SCF Done:  E(RwB97XD) =  -1618.50895867     A.U. after   13 cycles
 SCF Done:  E(RwB97XD) =  -1618.50898464     A.U. after   13 cycles
 SCF Done:  E(RwB97XD) =  -1618.50898562     A.U. after   11 cycles
 SCF Done:  E(RwB97XD) =  -1618.50898585     A.U. after   10 cycles
 Optimization completed.
    -- Stationary point found.

                         Standard orientation:
 ---------------------------------------------------------------------
 Center     Atomic      Atomic             Coordinates (Angstroms)
 Number     Number       Type             X           Y           Z
 ---------------------------------------------------------------------
      1          6           0       -4.011427    0.299818    0.250474
      2          6           0       -2.683909    0.805858    0.391906
      3          6           0       -1.743237   -0.126135    0.028473
      4          6           0       -2.393751    2.186151    0.908989
      5          6           0       -4.061462   -0.978921   -0.209036
      6          1           0       -4.893267    0.876589    0.500013
      7         16           0       -2.490057   -1.604793   -0.501306
      8          1           0       -4.933580   -1.588993   -0.389792
      9          6           0       -0.286823   -0.028604    0.012764
     10         16           0        0.511766    1.390415   -0.642790
     11          6           0        2.069428    0.703425   -0.335567
     12          6           0        1.950321   -0.553440    0.224228
     13          6           0        0.608286   -0.974257    0.427143
     14          1           0        0.308769   -1.914577    0.869323
     15         16           0        3.509212   -1.237404    0.540277
     16          6           0        4.288445    0.182755   -0.086755
     17          6           0        3.415808    1.133289   -0.514328
     18          1           0        5.367109    0.227932   -0.103777
     19          1           0        3.718834    2.081384   -0.935565
     20          1           0       -3.186555    2.509451    1.587000
     21          1           0       -2.339217    2.914231    0.093854
     22          1           0       -1.446895    2.222867    1.450305
 ---------------------------------------------------------------------

 The electronic state is 1-A.
 Alpha  occ. eigenvalues --  -89.05089 -89.05069 -89.04720 -10.33767 -10.32709
 Alpha  occ. eigenvalues --  -10.32436 -10.32374 -10.32351 -10.31706 -10.30554
 Alpha  occ. eigenvalues --  -10.30458 -10.30449 -10.29231 -10.28563  -8.09134
 Alpha  occ. eigenvalues --   -8.09116  -8.08805  -6.03983  -6.03972  -6.03634
 Alpha  occ. eigenvalues --   -6.03610  -6.03598  -6.03249  -6.03197  -6.03161
 Alpha  occ. eigenvalues --   -6.02911  -1.02250  -0.99694  -0.95311  -0.87615
 Alpha  occ. eigenvalues --   -0.87167  -0.85571  -0.81085  -0.80201  -0.77625
 Alpha  occ. eigenvalues --   -0.70603  -0.66878  -0.66020  -0.62728  -0.61098
 Alpha  occ. eigenvalues --   -0.58848  -0.58497  -0.52849  -0.52348  -0.52239
 Alpha  occ. eigenvalues --   -0.50607  -0.50085  -0.48011  -0.47505  -0.47094
 Alpha  occ. eigenvalues --   -0.46318  -0.45413  -0.44807  -0.42986  -0.42395
 Alpha  occ. eigenvalues --   -0.41898  -0.37024  -0.33550  -0.32669  -0.30835
 Alpha  occ. eigenvalues --   -0.28096
 Alpha virt. eigenvalues --    0.01062   0.05182   0.05546   0.05947   0.06515
 Alpha virt. eigenvalues --    0.06711   0.07204   0.07336   0.08197   0.08724
 Alpha virt. eigenvalues --    0.09141   0.09411   0.09685   0.09838   0.10728

 Mulliken charges:
               1
     1  C   -0.061540
     2  C   -0.201863
     3  C    0.493585
     4  C   -0.935467
     5  C   -0.151582
     6  H    0.150720
     7  S   -0.365027
     8  H    0.186305
     9  C    0.586400
    10  S   -0.597265
    11  C    0.373967
    12  C   -0.696548
    13  C    0.751928
    14  H    0.173090
    15  S   -0.437605
    16  C   -0.216684
    17  C    0.052876
    18  H    0.193358
    19  H    0.162110
    20  H    0.159855
    21  H    0.196759
    22  H    0.182626
 Sum of Mulliken charges =  -0.00000

 Dipole moment (field-independent basis, Debye):
    X=             -0.3488    Y=              0.8762    Z=              0.3548  Tot=              1.0076
 Quadrupole moment (field-independent basis, Debye-Ang):
   XX=            -86.4162   YY=            -97.9052   ZZ=           -107.2020
   XY=              2.0618   XZ=             -2.2337   YZ=             -0.9003

 Normal termination of Gaussian 16 at Tue Oct 26 01:48:11 2021.
