 Gaussian 16, Revision C.01,
 Gaussian 16:  ES64L-G16RevC.01  3-Jul-2019

 --------------------------------------
 # opt=modredundant wb97xd/6-311+g(d,p)
 --------------------------------------

 --------------
 pBTTT_-120.pdb
 --------------
 Symbolic Z-matrix:
 Charge =  0 Multiplicity = 1

 SCF Done:  E(RwB97XD) =  -1618.45898263     A.U. after   18 cycles
 SCF Done:  E(RwB97XD) =  -1618.49380113     A.U. after   16 cycles
 SCF Done:  E(RwB97XD) =  -1618.50472113     A.U. after   15 cycles
 SCF Done:  E(RwB97XD) =  -1618.50709236     A.U. after   15 cycles
 SCF Done:  E(RwB97XD) =  -1618.50738000     A.U. after   15 cycles
 SCF Done:  E(RwB97XD) =  -1618.50816376     A.U. after   14 cycles
 SCF Done:  E(RwB97XD) =  -1618.50809245     A.U. after   14 cycles
 SCF Done:  E(RwB97XD) =  -1618.50840825     A.U. after   14 cycles
 SCF Done:  E(RwB97XD) =  -1618.50851031     A.U. after   13 cycles
 SCF Done:  E(RwB97XD) =  -1618.50835831     A.U. after   15 cycles
 SCF Done:  E(RwB97XD) =  -1618.50893419     A.U. after   15 cycles
 SCF Done:  E(RwB97XD) =  -1618.50835497     A.U. after   16 cycles
 SCF Done:  E(RwB97XD) =  -1618.50930142     A.U. after   14 cycles
 SCF Done:  E(RwB97XD) =  -1618.50933632     A.U. after   13 cycles
 SCF Done:  E(RwB97XD) =  -1618.50934905     A.U. after   13 cycles
 SCF Done:  E(RwB97XD) =  -1618.50935076     A.U. after   12 cycles
 SCF Done:  E(RwB97XD) =  -1618.50935110     A.U. after   10 cycles
 Optimization completed.
    -- Stationary point found.

                         Standard orientation:
 ---------------------------------------------------------------------
 Center     Atomic      Atomic             Coordinates (Angstroms)
 Number     Number       Type             X           Y           Z
 ---------------------------------------------------------------------
      1          6           0        3.930041    0.760638    0.185939
      2          6           0        2.541727    1.031444    0.387125
      3          6           0        1.751790    0.013858   -0.083495
      4          6           0        2.035998    2.278858    1.049649
      5          6           0        4.166160   -0.437268   -0.411759
      6          1           0        4.717507    1.438084    0.491769
      7         16           0        2.706368   -1.271644   -0.762224
      8          1           0        5.118117   -0.878704   -0.665889
      9          6           0        0.293158   -0.067358   -0.059058
     10         16           0       -0.513266   -1.374359    0.789643
     11          6           0       -2.065315   -0.720732    0.393743
     12          6           0       -1.937587    0.445979   -0.334852
     13          6           0       -0.591270    0.820488   -0.598377
     14          1           0       -0.278749    1.686154   -1.165626
     15         16           0       -3.491244    1.100547   -0.729134
     16          6           0       -4.280863   -0.209289    0.094313
     17          6           0       -3.415410   -1.103012    0.641664
     18          1           0       -5.359797   -0.238713    0.124305
     19          1           0       -3.725407   -1.980869    1.190678
     20          1           0        2.646259    2.523485    1.922542
     21          1           0        1.000494    2.163304    1.373535
     22          1           0        2.081246    3.132942    0.366777
 ---------------------------------------------------------------------

 The electronic state is 1-A.
 Alpha  occ. eigenvalues --  -89.05119 -89.04996 -89.04665 -10.33611 -10.32579
 Alpha  occ. eigenvalues --  -10.32441 -10.32379 -10.32370 -10.31758 -10.30546
 Alpha  occ. eigenvalues --  -10.30533 -10.30463 -10.29214 -10.28524  -8.09164
 Alpha  occ. eigenvalues --   -8.09037  -8.08748  -6.04013  -6.03889  -6.03640
 Alpha  occ. eigenvalues --   -6.03575  -6.03518  -6.03227  -6.03193  -6.03087
 Alpha  occ. eigenvalues --   -6.02856  -1.02228  -0.99659  -0.95299  -0.87771
 Alpha  occ. eigenvalues --   -0.86863  -0.85591  -0.81085  -0.80271  -0.77534
 Alpha  occ. eigenvalues --   -0.70571  -0.66569  -0.66007  -0.63251  -0.60922
 Alpha  occ. eigenvalues --   -0.58766  -0.58478  -0.52939  -0.52364  -0.52169
 Alpha  occ. eigenvalues --   -0.50538  -0.50087  -0.47941  -0.47643  -0.47067
 Alpha  occ. eigenvalues --   -0.45999  -0.45583  -0.44603  -0.42992  -0.42317
 Alpha  occ. eigenvalues --   -0.42008  -0.36956  -0.33071  -0.32539  -0.30780
 Alpha  occ. eigenvalues --   -0.28730
 Alpha virt. eigenvalues --    0.01625   0.04613   0.05537   0.05933   0.06481
 Alpha virt. eigenvalues --    0.06977   0.07168   0.07216   0.07955   0.09009
 Alpha virt. eigenvalues --    0.09072   0.09262   0.09577   0.09868   0.10218

 Mulliken charges:
               1
     1  C   -0.256445
     2  C    0.292538
     3  C    0.074354
     4  C   -0.776070
     5  C   -0.025662
     6  H    0.153221
     7  S   -0.329790
     8  H    0.186618
     9  C    0.202221
    10  S   -0.623512
    11  C    0.279462
    12  C   -0.393926
    13  C    0.559219
    14  H    0.163191
    15  S   -0.441695
    16  C   -0.199713
    17  C    0.240744
    18  H    0.193624
    19  H    0.162566
    20  H    0.164395
    21  H    0.188255
    22  H    0.186406
 Sum of Mulliken charges =  -0.00000

 Dipole moment (field-independent basis, Debye):
    X=              0.2288    Y=              0.8804    Z=              0.4399  Tot=              1.0104
 Quadrupole moment (field-independent basis, Debye-Ang):
   XX=            -86.7373   YY=            -99.2025   ZZ=           -105.8812
   XY=              4.6956   XZ=             -1.4532   YZ=             -1.1299

 Normal termination of Gaussian 16 at Tue Oct 26 01:37:53 2021.
