 Gaussian 16, Revision C.01,
 Gaussian 16:  ES64L-G16RevC.01  3-Jul-2019

 --------------------------------------
 # opt=modredundant wb97xd/6-311+g(d,p)
 --------------------------------------

 -------------
 pBTTT_-10.pdb
 -------------
 Symbolic Z-matrix:
 Charge =  0 Multiplicity = 1

 SCF Done:  E(RwB97XD) =  -1618.46177398     A.U. after   18 cycles
 SCF Done:  E(RwB97XD) =  -1618.49491694     A.U. after   16 cycles
 SCF Done:  E(RwB97XD) =  -1618.50412716     A.U. after   16 cycles
 SCF Done:  E(RwB97XD) =  -1618.50629749     A.U. after   14 cycles
 SCF Done:  E(RwB97XD) =  -1618.50671782     A.U. after   14 cycles
 SCF Done:  E(RwB97XD) =  -1618.50702545     A.U. after   13 cycles
 SCF Done:  E(RwB97XD) =  -1618.50711209     A.U. after   12 cycles
 SCF Done:  E(RwB97XD) =  -1618.50711208     A.U. after   12 cycles
 SCF Done:  E(RwB97XD) =  -1618.50713726     A.U. after   12 cycles
 SCF Done:  E(RwB97XD) =  -1618.50713914     A.U. after   11 cycles
 SCF Done:  E(RwB97XD) =  -1618.50714066     A.U. after   11 cycles
 SCF Done:  E(RwB97XD) =  -1618.50714097     A.U. after   10 cycles
 Optimization completed.
    -- Stationary point found.

                         Standard orientation:
 ---------------------------------------------------------------------
 Center     Atomic      Atomic             Coordinates (Angstroms)
 Number     Number       Type             X           Y           Z
 ---------------------------------------------------------------------
      1          6           0       -4.029213    0.271852    0.055488
      2          6           0       -2.718679    0.836854    0.095260
      3          6           0       -1.740368   -0.128625    0.015033
      4          6           0       -2.499611    2.317705    0.222454
      5          6           0       -4.039031   -1.081381   -0.057573
      6          1           0       -4.929473    0.870440    0.114131
      7         16           0       -2.446338   -1.715870   -0.127976
      8          1           0       -4.889872   -1.743868   -0.104247
      9          6           0       -0.287095   -0.015906    0.007183
     10         16           0        0.526447    1.536291   -0.150350
     11          6           0        2.078982    0.779272   -0.082928
     12          6           0        1.953580   -0.587947    0.053804
     13          6           0        0.611642   -1.044225    0.110176
     14          1           0        0.320592   -2.079122    0.227670
     15         16           0        3.509133   -1.344440    0.131112
     16          6           0        4.295351    0.197772   -0.023204
     17          6           0        3.426520    1.238067   -0.127157
     18          1           0        5.374143    0.241404   -0.028880
     19          1           0        3.733460    2.269211   -0.230528
     20          1           0       -3.452265    2.823267    0.389378
     21          1           0       -2.055816    2.741048   -0.683425
     22          1           0       -1.841096    2.561295    1.060110
 ---------------------------------------------------------------------

 The electronic state is 1-A.
 Alpha  occ. eigenvalues --  -89.05166 -89.05044 -89.04781 -10.34069 -10.33095
 Alpha  occ. eigenvalues --  -10.32407 -10.32292 -10.32285 -10.31829 -10.30655
 Alpha  occ. eigenvalues --  -10.30537 -10.30324 -10.29339 -10.28842  -8.09214
 Alpha  occ. eigenvalues --   -8.09089  -8.08884  -6.04073  -6.03939  -6.03720
 Alpha  occ. eigenvalues --   -6.03696  -6.03565  -6.03332  -6.03252  -6.03149
 Alpha  occ. eigenvalues --   -6.02977  -1.02279  -0.99811  -0.95317  -0.87931
 Alpha  occ. eigenvalues --   -0.87199  -0.85678  -0.81064  -0.80199  -0.77896
 Alpha  occ. eigenvalues --   -0.70715  -0.67184  -0.66137  -0.62349  -0.61288
 Alpha  occ. eigenvalues --   -0.59062  -0.58576  -0.52836  -0.52635  -0.52256
 Alpha  occ. eigenvalues --   -0.50710  -0.50137  -0.48239  -0.47569  -0.46972
 Alpha  occ. eigenvalues --   -0.46673  -0.45905  -0.44614  -0.43178  -0.42525
 Alpha  occ. eigenvalues --   -0.41537  -0.37249  -0.34351  -0.32903  -0.30876
 Alpha  occ. eigenvalues --   -0.27216
 Alpha virt. eigenvalues --    0.00357   0.05392   0.05569   0.06036   0.06371
 Alpha virt. eigenvalues --    0.06618   0.07236   0.08221   0.08404   0.08678
 Alpha virt. eigenvalues --    0.08995   0.09353   0.09731   0.10273   0.10828

 Mulliken charges:
               1
     1  C    0.054287
     2  C    0.305435
     3  C    0.679775
     4  C   -1.054563
     5  C   -0.208529
     6  H    0.145277
     7  S   -0.634666
     8  H    0.186972
     9  C    0.456037
    10  S   -0.667573
    11  C    0.274832
    12  C    0.163451
    13  C    0.080543
    14  H    0.166530
    15  S   -0.448261
    16  C   -0.149788
    17  C   -0.250120
    18  H    0.193101
    19  H    0.160594
    20  H    0.163918
    21  H    0.194917
    22  H    0.187831
 Sum of Mulliken charges =  -0.00000

 Dipole moment (field-independent basis, Debye):
    X=             -0.5162    Y=              0.9558    Z=              0.0974  Tot=              1.0907
 Quadrupole moment (field-independent basis, Debye-Ang):
   XX=            -85.9493   YY=            -96.1029   ZZ=           -109.2403
   XY=              2.0426   XZ=             -0.5509   YZ=             -0.2296

 Normal termination of Gaussian 16 at Tue Oct 26 01:36:28 2021.
