 Gaussian 16, Revision C.01,
 Gaussian 16:  ES64L-G16RevC.01  3-Jul-2019

 --------------------------------------
 # opt=modredundant wb97xd/6-311+g(d,p)
 --------------------------------------

 -------------
 pBTTT_-95.pdb
 -------------
 Symbolic Z-matrix:
 Charge =  0 Multiplicity = 1

 SCF Done:  E(RwB97XD) =  -1618.45835698     A.U. after   17 cycles
 SCF Done:  E(RwB97XD) =  -1618.49354569     A.U. after   16 cycles
 SCF Done:  E(RwB97XD) =  -1618.50444161     A.U. after   16 cycles
 SCF Done:  E(RwB97XD) =  -1618.50697018     A.U. after   16 cycles
 SCF Done:  E(RwB97XD) =  -1618.50718915     A.U. after   15 cycles
 SCF Done:  E(RwB97XD) =  -1618.50788839     A.U. after   14 cycles
 SCF Done:  E(RwB97XD) =  -1618.50776757     A.U. after   13 cycles
 SCF Done:  E(RwB97XD) =  -1618.50792732     A.U. after   13 cycles
 SCF Done:  E(RwB97XD) =  -1618.50795505     A.U. after   13 cycles
 SCF Done:  E(RwB97XD) =  -1618.50795677     A.U. after   12 cycles
 SCF Done:  E(RwB97XD) =  -1618.50795692     A.U. after   11 cycles
 Optimization completed.
    -- Stationary point found.

                         Standard orientation:
 ---------------------------------------------------------------------
 Center     Atomic      Atomic             Coordinates (Angstroms)
 Number     Number       Type             X           Y           Z
 ---------------------------------------------------------------------
      1          6           0        3.940266    0.707023    0.154631
      2          6           0        2.558095    0.974721    0.385988
      3          6           0        1.756868   -0.019445   -0.111939
      4          6           0        2.038118    2.191089    1.097778
      5          6           0        4.159676   -0.466810   -0.499015
      6          1           0        4.735700    1.370910    0.468967
      7         16           0        2.690604   -1.279339   -0.854979
      8          1           0        5.104628   -0.897980   -0.793765
      9          6           0        0.293781   -0.079402   -0.059564
     10         16           0       -0.508591   -0.955819    1.231288
     11          6           0       -2.062268   -0.501663    0.621687
     12          6           0       -1.937619    0.281762   -0.509525
     13          6           0       -0.591773    0.524082   -0.901703
     14          1           0       -0.280289    1.107735   -1.757000
     15         16           0       -3.492548    0.735869   -1.120875
     16          6           0       -4.278928   -0.137347    0.158124
     17          6           0       -3.411815   -0.746043    1.009470
     18          1           0       -5.357710   -0.147546    0.203373
     19          1           0       -3.719949   -1.333628    1.862673
     20          1           0        2.857475    2.854259    1.380267
     21          1           0        1.496543    1.913379    2.006072
     22          1           0        1.345752    2.753682    0.466880
 ---------------------------------------------------------------------

 The electronic state is 1-A.
 Alpha  occ. eigenvalues --  -89.05122 -89.04965 -89.04699 -10.33513 -10.32437
 Alpha  occ. eigenvalues --  -10.32394 -10.32368 -10.32312 -10.31687 -10.30576
 Alpha  occ. eigenvalues --  -10.30553 -10.30377 -10.29190 -10.28447  -8.09167
 Alpha  occ. eigenvalues --   -8.09005  -8.08776  -6.04015  -6.03855  -6.03643
 Alpha  occ. eigenvalues --   -6.03597  -6.03483  -6.03230  -6.03216  -6.03059
 Alpha  occ. eigenvalues --   -6.02895  -1.02198  -0.99629  -0.95278  -0.87577
 Alpha  occ. eigenvalues --   -0.86971  -0.85441  -0.81073  -0.80283  -0.77436
 Alpha  occ. eigenvalues --   -0.70499  -0.66597  -0.65789  -0.63313  -0.60934
 Alpha  occ. eigenvalues --   -0.58741  -0.58468  -0.52854  -0.52246  -0.52077
 Alpha  occ. eigenvalues --   -0.50395  -0.50125  -0.47863  -0.47534  -0.47156
 Alpha  occ. eigenvalues --   -0.46011  -0.45448  -0.44793  -0.43022  -0.42108
 Alpha  occ. eigenvalues --   -0.41987  -0.36904  -0.32883  -0.31492  -0.30901
 Alpha  occ. eigenvalues --   -0.29650
 Alpha virt. eigenvalues --    0.02331   0.03723   0.05491   0.05829   0.06551
 Alpha virt. eigenvalues --    0.06923   0.07061   0.07121   0.07852   0.08834
 Alpha virt. eigenvalues --    0.09040   0.09286   0.09460   0.10168   0.10205

 Mulliken charges:
               1
     1  C   -0.040486
     2  C   -0.240000
     3  C    0.176467
     4  C   -0.661777
     5  C   -0.113460
     6  H    0.148762
     7  S   -0.252634
     8  H    0.186323
     9  C    0.165147
    10  S   -0.521113
    11  C    0.234737
    12  C   -0.556162
    13  C    0.709101
    14  H    0.165495
    15  S   -0.438704
    16  C   -0.220004
    17  C    0.371309
    18  H    0.193457
    19  H    0.162632
    20  H    0.162942
    21  H    0.186538
    22  H    0.181430
 Sum of Mulliken charges =  -0.00000

 Dipole moment (field-independent basis, Debye):
    X=              0.1528    Y=              0.8791    Z=              0.4527  Tot=              1.0006
 Quadrupole moment (field-independent basis, Debye-Ang):
   XX=            -87.0574   YY=           -102.3456   ZZ=           -102.7597
   XY=              3.5162   XZ=             -2.5817   YZ=             -1.1008

 Normal termination of Gaussian 16 at Tue Oct 26 01:34:50 2021.
