 Gaussian 16, Revision C.01,
 Gaussian 16:  ES64L-G16RevC.01  3-Jul-2019

 --------------------------------------
 # opt=modredundant wb97xd/6-311+g(d,p)
 --------------------------------------

 ------------
 pBTTT_70.pdb
 ------------
 Symbolic Z-matrix:
 Charge =  0 Multiplicity = 1

 SCF Done:  E(RwB97XD) =  -1618.45944913     A.U. after   18 cycles
 SCF Done:  E(RwB97XD) =  -1618.49425607     A.U. after   16 cycles
 SCF Done:  E(RwB97XD) =  -1618.50483648     A.U. after   16 cycles
 SCF Done:  E(RwB97XD) =  -1618.50729646     A.U. after   15 cycles
 SCF Done:  E(RwB97XD) =  -1618.50754093     A.U. after   14 cycles
 SCF Done:  E(RwB97XD) =  -1618.50817745     A.U. after   14 cycles
 SCF Done:  E(RwB97XD) =  -1618.50820342     A.U. after   13 cycles
 SCF Done:  E(RwB97XD) =  -1618.50825344     A.U. after   13 cycles
 SCF Done:  E(RwB97XD) =  -1618.50829399     A.U. after   13 cycles
 SCF Done:  E(RwB97XD) =  -1618.50840744     A.U. after   14 cycles
 SCF Done:  E(RwB97XD) =  -1618.50844837     A.U. after   13 cycles
 SCF Done:  E(RwB97XD) =  -1618.50873303     A.U. after   14 cycles
 SCF Done:  E(RwB97XD) =  -1618.50886858     A.U. after   14 cycles
 SCF Done:  E(RwB97XD) =  -1618.50893659     A.U. after   14 cycles
 SCF Done:  E(RwB97XD) =  -1618.50901223     A.U. after   13 cycles
 SCF Done:  E(RwB97XD) =  -1618.50902446     A.U. after   12 cycles
 SCF Done:  E(RwB97XD) =  -1618.50902580     A.U. after   10 cycles
 SCF Done:  E(RwB97XD) =  -1618.50902610     A.U. after   10 cycles
 SCF Done:  E(RwB97XD) =  -1618.50902620     A.U. after   10 cycles
 Optimization completed.
    -- Stationary point found.

                         Standard orientation:
 ---------------------------------------------------------------------
 Center     Atomic      Atomic             Coordinates (Angstroms)
 Number     Number       Type             X           Y           Z
 ---------------------------------------------------------------------
      1          6           0        3.988483    0.340012    0.412854
      2          6           0        2.636218    0.769144    0.579791
      3          6           0        1.749769   -0.115441    0.023588
      4          6           0        2.252298    2.032189    1.293215
      5          6           0        4.102204   -0.841085   -0.251729
      6          1           0        4.838754    0.895320    0.788707
      7         16           0        2.567500   -1.465577   -0.703079
      8          1           0        5.003757   -1.382111   -0.497319
      9          6           0        0.287711   -0.041095   -0.006756
     10         16           0       -0.510241    1.166376   -0.998784
     11          6           0       -2.066893    0.585892   -0.516526
     12          6           0       -1.946319   -0.487393    0.344999
     13          6           0       -0.602176   -0.850004    0.636230
     14          1           0       -0.295721   -1.654430    1.290622
     15         16           0       -3.503639   -1.067500    0.830615
     16          6           0       -4.285281    0.146452   -0.134671
     17          6           0       -3.414841    0.955664   -0.794163
     18          1           0       -5.364033    0.187486   -0.157510
     19          1           0       -3.719871    1.765546   -1.441621
     20          1           0        2.838642    2.149333    2.207999
     21          1           0        1.194848    2.030964    1.562179
     22          1           0        2.438665    2.909103    0.665918
 ---------------------------------------------------------------------

 The electronic state is 1-A.
 Alpha  occ. eigenvalues --  -89.05109 -89.04978 -89.04641 -10.33569 -10.32471
 Alpha  occ. eigenvalues --  -10.32437 -10.32384 -10.32369 -10.31702 -10.30558
 Alpha  occ. eigenvalues --  -10.30550 -10.30384 -10.29164 -10.28431  -8.09155
 Alpha  occ. eigenvalues --   -8.09019  -8.08720  -6.04003  -6.03871  -6.03630
 Alpha  occ. eigenvalues --   -6.03546  -6.03499  -6.03218  -6.03163  -6.03071
 Alpha  occ. eigenvalues --   -6.02831  -1.02209  -0.99617  -0.95284  -0.87483
 Alpha  occ. eigenvalues --   -0.87112  -0.85471  -0.81072  -0.80238  -0.77466
 Alpha  occ. eigenvalues --   -0.70528  -0.66689  -0.65847  -0.63077  -0.60978
 Alpha  occ. eigenvalues --   -0.58751  -0.58455  -0.52879  -0.52262  -0.52223
 Alpha  occ. eigenvalues --   -0.50451  -0.50186  -0.47908  -0.47492  -0.47029
 Alpha  occ. eigenvalues --   -0.46080  -0.45187  -0.44881  -0.42974  -0.42194
 Alpha  occ. eigenvalues --   -0.41967  -0.36933  -0.32882  -0.32120  -0.30863
 Alpha  occ. eigenvalues --   -0.29141
 Alpha virt. eigenvalues --    0.01907   0.04508   0.05567   0.05875   0.06581
 Alpha virt. eigenvalues --    0.06889   0.07012   0.07149   0.08016   0.08780
 Alpha virt. eigenvalues --    0.08919   0.09490   0.09570   0.09927   0.10323

 Mulliken charges:
               1
     1  C    0.046439
     2  C   -0.353485
     3  C    0.351429
     4  C   -0.922800
     5  C   -0.197630
     6  H    0.151781
     7  S   -0.234428
     8  H    0.186386
     9  C    0.756063
    10  S   -0.536146
    11  C    0.344823
    12  C   -0.538432
    13  C    0.478797
    14  H    0.169586
    15  S   -0.426532
    16  C   -0.212135
    17  C    0.040158
    18  H    0.193519
    19  H    0.162503
    20  H    0.164702
    21  H    0.184660
    22  H    0.190742
 Sum of Mulliken charges =  -0.00000

 Dipole moment (field-independent basis, Debye):
    X=              0.2721    Y=              0.7965    Z=              0.5129  Tot=              0.9856
 Quadrupole moment (field-independent basis, Debye-Ang):
   XX=            -86.5680   YY=           -100.3500   ZZ=           -104.7010
   XY=             -1.7048   XZ=              3.3592   YZ=             -1.1753

 Normal termination of Gaussian 16 at Tue Oct 26 02:06:53 2021.
