 Gaussian 16, Revision C.01,
 Gaussian 16:  ES64L-G16RevC.01  3-Jul-2019

 --------------------------------------
 # opt=modredundant wb97xd/6-311+g(d,p)
 --------------------------------------

 ------------
 pBTTT_10.pdb
 ------------
 Symbolic Z-matrix:
 Charge =  0 Multiplicity = 1

 SCF Done:  E(RwB97XD) =  -1618.46104757     A.U. after   18 cycles
 SCF Done:  E(RwB97XD) =  -1618.49424830     A.U. after   16 cycles
 SCF Done:  E(RwB97XD) =  -1618.50374510     A.U. after   16 cycles
 SCF Done:  E(RwB97XD) =  -1618.50611384     A.U. after   14 cycles
 SCF Done:  E(RwB97XD) =  -1618.50663157     A.U. after   15 cycles
 SCF Done:  E(RwB97XD) =  -1618.50700174     A.U. after   13 cycles
 SCF Done:  E(RwB97XD) =  -1618.50709676     A.U. after   13 cycles
 SCF Done:  E(RwB97XD) =  -1618.50708643     A.U. after   12 cycles
 SCF Done:  E(RwB97XD) =  -1618.50712046     A.U. after   12 cycles
 SCF Done:  E(RwB97XD) =  -1618.50713362     A.U. after   11 cycles
 SCF Done:  E(RwB97XD) =  -1618.50713992     A.U. after   11 cycles
 SCF Done:  E(RwB97XD) =  -1618.50714045     A.U. after   10 cycles
 SCF Done:  E(RwB97XD) =  -1618.50714064     A.U. after   10 cycles
 SCF Done:  E(RwB97XD) =  -1618.50714069     A.U. after    9 cycles
 Optimization completed.
    -- Stationary point found.

                         Standard orientation:
 ---------------------------------------------------------------------
 Center     Atomic      Atomic             Coordinates (Angstroms)
 Number     Number       Type             X           Y           Z
 ---------------------------------------------------------------------
      1          6           0       -4.029153    0.272072   -0.055611
      2          6           0       -2.718513    0.836949   -0.094859
      3          6           0       -1.740372   -0.128757   -0.014709
      4          6           0       -2.499388    2.317810   -0.221697
      5          6           0       -4.039208   -1.081199    0.057219
      6          1           0       -4.929217    0.870940   -0.114412
      7         16           0       -2.446497   -1.715934    0.127709
      8          1           0       -4.889895   -1.743899    0.103546
      9          6           0       -0.287076   -0.016031   -0.007105
     10         16           0        0.526321    1.536159    0.149924
     11          6           0        2.078947    0.779253    0.082559
     12          6           0        1.953583   -0.588032   -0.053751
     13          6           0        0.611695   -1.044447   -0.109856
     14          1           0        0.320743   -2.079394   -0.227069
     15         16           0        3.509255   -1.344396   -0.130739
     16          6           0        4.295376    0.197924    0.023146
     17          6           0        3.426403    1.238211    0.126726
     18          1           0        5.374181    0.241354    0.029017
     19          1           0        3.733148    2.269446    0.229805
     20          1           0       -3.451928    2.823497   -0.388747
     21          1           0       -1.840590    2.561479   -1.059134
     22          1           0       -2.055458    2.740783    0.684305
 ---------------------------------------------------------------------

 The electronic state is 1-A.
 Alpha  occ. eigenvalues --  -89.05167 -89.05044 -89.04781 -10.34070 -10.33095
 Alpha  occ. eigenvalues --  -10.32407 -10.32292 -10.32286 -10.31831 -10.30655
 Alpha  occ. eigenvalues --  -10.30538 -10.30324 -10.29341 -10.28843  -8.09214
 Alpha  occ. eigenvalues --   -8.09088  -8.08884  -6.04073  -6.03938  -6.03720
 Alpha  occ. eigenvalues --   -6.03697  -6.03565  -6.03332  -6.03253  -6.03149
 Alpha  occ. eigenvalues --   -6.02978  -1.02279  -0.99810  -0.95316  -0.87931
 Alpha  occ. eigenvalues --   -0.87198  -0.85677  -0.81064  -0.80198  -0.77896
 Alpha  occ. eigenvalues --   -0.70714  -0.67185  -0.66138  -0.62349  -0.61287
 Alpha  occ. eigenvalues --   -0.59063  -0.58576  -0.52835  -0.52634  -0.52258
 Alpha  occ. eigenvalues --   -0.50709  -0.50138  -0.48240  -0.47570  -0.46971
 Alpha  occ. eigenvalues --   -0.46672  -0.45905  -0.44613  -0.43178  -0.42525
 Alpha  occ. eigenvalues --   -0.41537  -0.37248  -0.34351  -0.32903  -0.30876
 Alpha  occ. eigenvalues --   -0.27214
 Alpha virt. eigenvalues --    0.00356   0.05392   0.05568   0.06037   0.06370
 Alpha virt. eigenvalues --    0.06618   0.07235   0.08221   0.08404   0.08678
 Alpha virt. eigenvalues --    0.08995   0.09353   0.09731   0.10273   0.10828

 Mulliken charges:
               1
     1  C    0.053897
     2  C    0.305576
     3  C    0.679989
     4  C   -1.054433
     5  C   -0.208808
     6  H    0.145280
     7  S   -0.634851
     8  H    0.186998
     9  C    0.456379
    10  S   -0.667932
    11  C    0.274422
    12  C    0.163412
    13  C    0.081278
    14  H    0.166538
    15  S   -0.448238
    16  C   -0.149918
    17  C   -0.249966
    18  H    0.193127
    19  H    0.160594
    20  H    0.163936
    21  H    0.187771
    22  H    0.194948
 Sum of Mulliken charges =  -0.00000

 Dipole moment (field-independent basis, Debye):
    X=             -0.5164    Y=              0.9561    Z=             -0.0974  Tot=              1.0910
 Quadrupole moment (field-independent basis, Debye-Ang):
   XX=            -85.9533   YY=            -96.1003   ZZ=           -109.2420
   XY=              2.0422   XZ=              0.5537   YZ=              0.2291

 Normal termination of Gaussian 16 at Tue Oct 26 01:47:31 2021.
