 Gaussian 16, Revision C.01,
 Gaussian 16:  ES64L-G16RevC.01  3-Jul-2019

 --------------------------------------
 # opt=modredundant wb97xd/6-311+g(d,p)
 --------------------------------------

 ------------
 pBTTT_40.pdb
 ------------
 Symbolic Z-matrix:
 Charge =  0 Multiplicity = 1

 SCF Done:  E(RwB97XD) =  -1618.46035764     A.U. after   19 cycles
 SCF Done:  E(RwB97XD) =  -1618.49441215     A.U. after   16 cycles
 SCF Done:  E(RwB97XD) =  -1618.50474219     A.U. after   16 cycles
 SCF Done:  E(RwB97XD) =  -1618.50719779     A.U. after   16 cycles
 SCF Done:  E(RwB97XD) =  -1618.50765456     A.U. after   15 cycles
 SCF Done:  E(RwB97XD) =  -1618.50831196     A.U. after   13 cycles
 SCF Done:  E(RwB97XD) =  -1618.50848880     A.U. after   14 cycles
 SCF Done:  E(RwB97XD) =  -1618.50856272     A.U. after   13 cycles
 SCF Done:  E(RwB97XD) =  -1618.50864261     A.U. after   13 cycles
 SCF Done:  E(RwB97XD) =  -1618.50876522     A.U. after   13 cycles
 SCF Done:  E(RwB97XD) =  -1618.50879076     A.U. after   13 cycles
 SCF Done:  E(RwB97XD) =  -1618.50879625     A.U. after   13 cycles
 SCF Done:  E(RwB97XD) =  -1618.50879830     A.U. after   12 cycles
 SCF Done:  E(RwB97XD) =  -1618.50879852     A.U. after   10 cycles
 SCF Done:  E(RwB97XD) =  -1618.50879852     A.U. after    9 cycles
 Optimization completed.
    -- Stationary point found.

                         Standard orientation:
 ---------------------------------------------------------------------
 Center     Atomic      Atomic             Coordinates (Angstroms)
 Number     Number       Type             X           Y           Z
 ---------------------------------------------------------------------
      1          6           0        4.014942    0.292796    0.222123
      2          6           0        2.691450    0.812089    0.352454
      3          6           0        1.742282   -0.126888    0.028872
      4          6           0        2.417980    2.213028    0.821238
      5          6           0        4.055384   -1.001503   -0.191904
      6          1           0        4.901272    0.873062    0.446335
      7         16           0        2.478808   -1.627061   -0.454911
      8          1           0        4.922605   -1.623153   -0.355771
      9          6           0        0.286708   -0.026173    0.012355
     10         16           0       -0.513950    1.421143   -0.576337
     11          6           0       -2.070929    0.719164   -0.302128
     12          6           0       -1.950851   -0.561291    0.200720
     13          6           0       -0.608909   -0.989238    0.385616
     14          1           0       -0.310329   -1.947675    0.787761
     15         16           0       -3.509290   -1.259645    0.486063
     16          6           0       -4.289525    0.186837   -0.076735
     17          6           0       -3.417363    1.155948   -0.461565
     18          1           0       -5.368204    0.232082   -0.091773
     19          1           0       -3.720894    2.121910   -0.839647
     20          1           0        3.234570    2.563847    1.455805
     21          1           0        1.491513    2.273580    1.394864
     22          1           0        2.333360    2.906732   -0.020912
 ---------------------------------------------------------------------

 The electronic state is 1-A.
 Alpha  occ. eigenvalues --  -89.05090 -89.05084 -89.04728 -10.33816 -10.32772
 Alpha  occ. eigenvalues --  -10.32433 -10.32370 -10.32343 -10.31718 -10.30555
 Alpha  occ. eigenvalues --  -10.30475 -10.30434 -10.29246 -10.28598  -8.09138
 Alpha  occ. eigenvalues --   -8.09129  -8.08815  -6.03994  -6.03978  -6.03645
 Alpha  occ. eigenvalues --   -6.03621  -6.03605  -6.03260  -6.03191  -6.03182
 Alpha  occ. eigenvalues --   -6.02920  -1.02258  -0.99710  -0.95315  -0.87660
 Alpha  occ. eigenvalues --   -0.87173  -0.85592  -0.81086  -0.80195  -0.77665
 Alpha  occ. eigenvalues --   -0.70621  -0.66925  -0.66047  -0.62661  -0.61126
 Alpha  occ. eigenvalues --   -0.58875  -0.58509  -0.52849  -0.52382  -0.52243
 Alpha  occ. eigenvalues --   -0.50632  -0.50082  -0.48044  -0.47510  -0.47092
 Alpha  occ. eigenvalues --   -0.46366  -0.45491  -0.44774  -0.42995  -0.42434
 Alpha  occ. eigenvalues --   -0.41864  -0.37055  -0.33708  -0.32709  -0.30839
 Alpha  occ. eigenvalues --   -0.27923
 Alpha virt. eigenvalues --    0.00924   0.05257   0.05545   0.05962   0.06497
 Alpha virt. eigenvalues --    0.06690   0.07214   0.07439   0.08234   0.08715
 Alpha virt. eigenvalues --    0.09181   0.09356   0.09707   0.09876   0.10765

 Mulliken charges:
               1
     1  C   -0.075646
     2  C   -0.102089
     3  C    0.499044
     4  C   -0.954999
     5  C   -0.130924
     6  H    0.150396
     7  S   -0.401797
     8  H    0.186289
     9  C    0.498625
    10  S   -0.609338
    11  C    0.366620
    12  C   -0.739006
    13  C    0.841103
    14  H    0.172765
    15  S   -0.442328
    16  C   -0.218963
    17  C    0.065484
    18  H    0.193293
    19  H    0.162002
    20  H    0.160285
    21  H    0.182094
    22  H    0.197090
 Sum of Mulliken charges =  -0.00000

 Dipole moment (field-independent basis, Debye):
    X=              0.3702    Y=              0.8936    Z=              0.3255  Tot=              1.0205
 Quadrupole moment (field-independent basis, Debye-Ang):
   XX=            -86.3482   YY=            -97.5415   ZZ=           -107.5984
   XY=             -2.0850   XZ=              2.0139   YZ=             -0.8177

 Normal termination of Gaussian 16 at Tue Oct 26 02:12:02 2021.
