 Gaussian 16, Revision C.01,
 Gaussian 16:  ES64L-G16RevC.01  3-Jul-2019

 --------------------------------------
 # opt=modredundant wb97xd/6-311+g(d,p)
 --------------------------------------

 ------------
 pBTTT_85.pdb
 ------------
 Symbolic Z-matrix:
 Charge =  0 Multiplicity = 1

 SCF Done:  E(RwB97XD) =  -1618.45892848     A.U. after   17 cycles
 SCF Done:  E(RwB97XD) =  -1618.49386832     A.U. after   15 cycles
 SCF Done:  E(RwB97XD) =  -1618.50459839     A.U. after   17 cycles
 SCF Done:  E(RwB97XD) =  -1618.50708795     A.U. after   17 cycles
 SCF Done:  E(RwB97XD) =  -1618.50733583     A.U. after   15 cycles
 SCF Done:  E(RwB97XD) =  -1618.50795176     A.U. after   14 cycles
 SCF Done:  E(RwB97XD) =  -1618.50795892     A.U. after   13 cycles
 SCF Done:  E(RwB97XD) =  -1618.50798563     A.U. after   13 cycles
 SCF Done:  E(RwB97XD) =  -1618.50799086     A.U. after   13 cycles
 SCF Done:  E(RwB97XD) =  -1618.50799253     A.U. after   11 cycles
 SCF Done:  E(RwB97XD) =  -1618.48637021     A.U. after   18 cycles
 SCF Done:  E(RwB97XD) =  -1618.50856008     A.U. after   14 cycles
 SCF Done:  E(RwB97XD) =  -1618.50484290     A.U. after   17 cycles
 SCF Done:  E(RwB97XD) =  -1618.50869488     A.U. after   14 cycles
 SCF Done:  E(RwB97XD) =  -1618.50877359     A.U. after   14 cycles
 SCF Done:  E(RwB97XD) =  -1618.50822556     A.U. after   16 cycles
 SCF Done:  E(RwB97XD) =  -1618.50881424     A.U. after   14 cycles
 SCF Done:  E(RwB97XD) =  -1618.50882088     A.U. after   12 cycles
 SCF Done:  E(RwB97XD) =  -1618.50882126     A.U. after   11 cycles
 SCF Done:  E(RwB97XD) =  -1618.50882123     A.U. after   10 cycles
 Optimization completed.
    -- Stationary point found.

                         Standard orientation:
 ---------------------------------------------------------------------
 Center     Atomic      Atomic             Coordinates (Angstroms)
 Number     Number       Type             X           Y           Z
 ---------------------------------------------------------------------
      1          6           0        3.965569    0.467534    0.437042
      2          6           0        2.595101    0.860041    0.535411
      3          6           0        1.753110   -0.104286    0.049213
      4          6           0        2.146884    2.172697    1.105793
      5          6           0        4.134361   -0.763767   -0.114617
      6          1           0        4.787796    1.087371    0.772142
      7         16           0        2.632896   -1.485554   -0.532734
      8          1           0        5.059552   -1.290508   -0.294967
      9          6           0        0.288888   -0.067630   -0.017195
     10         16           0       -0.509861    0.700103   -1.377387
     11          6           0       -2.065550    0.343742   -0.710543
     12          6           0       -1.944119   -0.332167    0.488380
     13          6           0       -0.599184   -0.570204    0.886377
     14          1           0       -0.290115   -1.079091    1.788928
     15         16           0       -3.500932   -0.685207    1.159033
     16          6           0       -4.283528    0.083512   -0.187409
     17          6           0       -3.414058    0.585711   -1.103384
     18          1           0       -5.362278    0.117281   -0.220641
     19          1           0       -3.719834    1.096855   -2.005249
     20          1           0        2.577789    2.330222    2.098241
     21          1           0        1.060191    2.214361    1.194326
     22          1           0        2.468411    3.002940    0.470217
 ---------------------------------------------------------------------

 The electronic state is 1-A.
 Alpha  occ. eigenvalues --  -89.05120 -89.04953 -89.04596 -10.33512 -10.32441
 Alpha  occ. eigenvalues --  -10.32414 -10.32398 -10.32369 -10.31719 -10.30585
 Alpha  occ. eigenvalues --  -10.30552 -10.30394 -10.29142 -10.28399  -8.09165
 Alpha  occ. eigenvalues --   -8.08993  -8.08674  -6.04013  -6.03844  -6.03640
 Alpha  occ. eigenvalues --   -6.03499  -6.03471  -6.03228  -6.03118  -6.03047
 Alpha  occ. eigenvalues --   -6.02785  -1.02199  -0.99589  -0.95278  -0.87511
 Alpha  occ. eigenvalues --   -0.87033  -0.85444  -0.81070  -0.80259  -0.77423
 Alpha  occ. eigenvalues --   -0.70507  -0.66620  -0.65768  -0.63249  -0.60929
 Alpha  occ. eigenvalues --   -0.58724  -0.58449  -0.52912  -0.52271  -0.52186
 Alpha  occ. eigenvalues --   -0.50336  -0.50298  -0.47887  -0.47504  -0.46986
 Alpha  occ. eigenvalues --   -0.45988  -0.45234  -0.44814  -0.42975  -0.42122
 Alpha  occ. eigenvalues --   -0.41986  -0.36917  -0.32775  -0.31546  -0.30966
 Alpha  occ. eigenvalues --   -0.29676
 Alpha virt. eigenvalues --    0.02329   0.04077   0.05539   0.05860   0.06568
 Alpha virt. eigenvalues --    0.06947   0.07054   0.07113   0.07911   0.08827
 Alpha virt. eigenvalues --    0.08861   0.09378   0.09491   0.09991   0.10182

 Mulliken charges:
               1
     1  C   -0.087985
     2  C   -0.093820
     3  C    0.172405
     4  C   -0.713438
     5  C   -0.137332
     6  H    0.153009
     7  S   -0.242125
     8  H    0.186158
     9  C    0.354146
    10  S   -0.585641
    11  C    0.249704
    12  C   -0.591759
    13  C    0.584451
    14  H    0.168167
    15  S   -0.433243
    16  C   -0.219811
    17  C    0.330387
    18  H    0.193520
    19  H    0.162624
    20  H    0.171534
    21  H    0.194367
    22  H    0.184681
 Sum of Mulliken charges =  -0.00000

 Dipole moment (field-independent basis, Debye):
    X=              0.2278    Y=              0.8788    Z=              0.4486  Tot=              1.0126
 Quadrupole moment (field-independent basis, Debye-Ang):
   XX=            -86.6528   YY=           -102.6527   ZZ=           -102.4102
   XY=             -0.4771   XZ=              4.1553   YZ=             -1.0216

 Normal termination of Gaussian 16 at Tue Oct 26 02:51:08 2021.
