 Gaussian 16, Revision C.01,
 Gaussian 16:  ES64L-G16RevC.01  3-Jul-2019

 --------------------------------------
 # opt=modredundant wb97xd/6-311+g(d,p)
 --------------------------------------

 -------------
 pBTTT_-40.pdb
 -------------
 Symbolic Z-matrix:
 Charge =  0 Multiplicity = 1

 SCF Done:  E(RwB97XD) =  -1618.46175267     A.U. after   19 cycles
 SCF Done:  E(RwB97XD) =  -1618.49557208     A.U. after   15 cycles
 SCF Done:  E(RwB97XD) =  -1618.50538755     A.U. after   16 cycles
 SCF Done:  E(RwB97XD) =  -1618.50759406     A.U. after   15 cycles
 SCF Done:  E(RwB97XD) =  -1618.50786795     A.U. after   14 cycles
 SCF Done:  E(RwB97XD) =  -1618.50848397     A.U. after   14 cycles
 SCF Done:  E(RwB97XD) =  -1618.50848417     A.U. after   13 cycles
 SCF Done:  E(RwB97XD) =  -1618.50863436     A.U. after   14 cycles
 SCF Done:  E(RwB97XD) =  -1618.50870210     A.U. after   13 cycles
 SCF Done:  E(RwB97XD) =  -1618.50876639     A.U. after   13 cycles
 SCF Done:  E(RwB97XD) =  -1618.50878751     A.U. after   12 cycles
 SCF Done:  E(RwB97XD) =  -1618.50879781     A.U. after   12 cycles
 SCF Done:  E(RwB97XD) =  -1618.50879908     A.U. after   11 cycles
 SCF Done:  E(RwB97XD) =  -1618.50879933     A.U. after   10 cycles
 SCF Done:  E(RwB97XD) =  -1618.50879937     A.U. after   10 cycles
 Optimization completed.
    -- Stationary point found.

                         Standard orientation:
 ---------------------------------------------------------------------
 Center     Atomic      Atomic             Coordinates (Angstroms)
 Number     Number       Type             X           Y           Z
 ---------------------------------------------------------------------
      1          6           0       -4.014951    0.292825    0.222150
      2          6           0       -2.691455    0.812063    0.352604
      3          6           0       -1.742287   -0.126893    0.028860
      4          6           0       -2.417924    2.212918    0.821606
      5          6           0       -4.055403   -1.001431   -0.192003
      6          1           0       -4.901275    0.873070    0.446436
      7         16           0       -2.478840   -1.626984   -0.455074
      8          1           0       -4.922626   -1.623054   -0.355954
      9          6           0       -0.286717   -0.026168    0.012374
     10         16           0        0.513961    1.421054   -0.576529
     11          6           0        2.070936    0.719131   -0.302204
     12          6           0        1.950843   -0.561233    0.200869
     13          6           0        0.608903   -0.989216    0.385671
     14          1           0        0.310336   -1.947612    0.787921
     15         16           0        3.509288   -1.259533    0.486339
     16          6           0        4.289532    0.186774   -0.076891
     17          6           0        3.417374    1.155820   -0.461879
     18          1           0        5.368213    0.231988   -0.091971
     19          1           0        3.720909    2.121703   -0.840160
     20          1           0       -3.234716    2.563848    1.455850
     21          1           0       -2.332817    2.906675   -0.020454
     22          1           0       -1.491688    2.273247    1.395630
 ---------------------------------------------------------------------

 The electronic state is 1-A.
 Alpha  occ. eigenvalues --  -89.05090 -89.05084 -89.04728 -10.33816 -10.32771
 Alpha  occ. eigenvalues --  -10.32433 -10.32370 -10.32343 -10.31718 -10.30555
 Alpha  occ. eigenvalues --  -10.30475 -10.30434 -10.29246 -10.28598  -8.09138
 Alpha  occ. eigenvalues --   -8.09129  -8.08816  -6.03994  -6.03978  -6.03645
 Alpha  occ. eigenvalues --   -6.03621  -6.03604  -6.03260  -6.03191  -6.03182
 Alpha  occ. eigenvalues --   -6.02920  -1.02259  -0.99710  -0.95315  -0.87659
 Alpha  occ. eigenvalues --   -0.87173  -0.85592  -0.81086  -0.80195  -0.77664
 Alpha  occ. eigenvalues --   -0.70621  -0.66925  -0.66047  -0.62662  -0.61126
 Alpha  occ. eigenvalues --   -0.58875  -0.58509  -0.52849  -0.52382  -0.52242
 Alpha  occ. eigenvalues --   -0.50633  -0.50082  -0.48043  -0.47510  -0.47092
 Alpha  occ. eigenvalues --   -0.46366  -0.45490  -0.44774  -0.42995  -0.42434
 Alpha  occ. eigenvalues --   -0.41864  -0.37055  -0.33707  -0.32709  -0.30839
 Alpha  occ. eigenvalues --   -0.27923
 Alpha virt. eigenvalues --    0.00924   0.05257   0.05545   0.05962   0.06497
 Alpha virt. eigenvalues --    0.06690   0.07214   0.07439   0.08234   0.08716
 Alpha virt. eigenvalues --    0.09181   0.09356   0.09707   0.09876   0.10765

 Mulliken charges:
               1
     1  C   -0.075743
     2  C   -0.102609
     3  C    0.499107
     4  C   -0.954850
     5  C   -0.130930
     6  H    0.150394
     7  S   -0.401745
     8  H    0.186289
     9  C    0.499296
    10  S   -0.609233
    11  C    0.366705
    12  C   -0.739019
    13  C    0.840760
    14  H    0.172771
    15  S   -0.442315
    16  C   -0.218920
    17  C    0.065249
    18  H    0.193294
    19  H    0.162003
    20  H    0.160277
    21  H    0.197083
    22  H    0.182137
 Sum of Mulliken charges =  -0.00000

 Dipole moment (field-independent basis, Debye):
    X=             -0.3700    Y=              0.8935    Z=              0.3255  Tot=              1.0204
 Quadrupole moment (field-independent basis, Debye-Ang):
   XX=            -86.3484   YY=            -97.5430   ZZ=           -107.5969
   XY=              2.0850   XZ=             -2.0150   YZ=             -0.8181

 Normal termination of Gaussian 16 at Tue Oct 26 01:36:49 2021.
