 Gaussian 16, Revision C.01,
 Gaussian 16:  ES64L-G16RevC.01  3-Jul-2019

 --------------------------------------
 # opt=modredundant wb97xd/6-311+g(d,p)
 --------------------------------------

 -------------
 pBTTT_-75.pdb
 -------------
 Symbolic Z-matrix:
 Charge =  0 Multiplicity = 1

 SCF Done:  E(RwB97XD) =  -1618.45920533     A.U. after   18 cycles
 SCF Done:  E(RwB97XD) =  -1618.49422587     A.U. after   16 cycles
 SCF Done:  E(RwB97XD) =  -1618.50486364     A.U. after   16 cycles
 SCF Done:  E(RwB97XD) =  -1618.50725826     A.U. after   16 cycles
 SCF Done:  E(RwB97XD) =  -1618.50750052     A.U. after   14 cycles
 SCF Done:  E(RwB97XD) =  -1618.50815562     A.U. after   14 cycles
 SCF Done:  E(RwB97XD) =  -1618.50824777     A.U. after   14 cycles
 SCF Done:  E(RwB97XD) =  -1618.50827994     A.U. after   13 cycles
 SCF Done:  E(RwB97XD) =  -1618.50831606     A.U. after   12 cycles
 SCF Done:  E(RwB97XD) =  -1618.50850640     A.U. after   14 cycles
 SCF Done:  E(RwB97XD) =  -1618.50861053     A.U. after   14 cycles
 SCF Done:  E(RwB97XD) =  -1618.50877813     A.U. after   15 cycles
 SCF Done:  E(RwB97XD) =  -1618.50880737     A.U. after   13 cycles
 SCF Done:  E(RwB97XD) =  -1618.50897280     A.U. after   14 cycles
 SCF Done:  E(RwB97XD) =  -1618.50892199     A.U. after   12 cycles
 SCF Done:  E(RwB97XD) =  -1618.50892781     A.U. after   11 cycles
 SCF Done:  E(RwB97XD) =  -1618.50892756     A.U. after   10 cycles
 SCF Done:  E(RwB97XD) =  -1618.50892786     A.U. after   10 cycles
 SCF Done:  E(RwB97XD) =  -1618.50892786     A.U. after    9 cycles
 Optimization completed.
    -- Stationary point found.

                         Standard orientation:
 ---------------------------------------------------------------------
 Center     Atomic      Atomic             Coordinates (Angstroms)
 Number     Number       Type             X           Y           Z
 ---------------------------------------------------------------------
      1          6           0        3.981651    0.358372   -0.441767
      2          6           0        2.623182    0.768677   -0.607061
      3          6           0        1.751057   -0.114451   -0.027311
      4          6           0        2.216715    2.013800   -1.338695
      5          6           0        4.113014   -0.807710    0.245564
      6          1           0        4.823108    0.915729   -0.834033
      7         16           0        2.588704   -1.441080    0.719508
      8          1           0        5.022354   -1.333309    0.496006
      9          6           0        0.287947   -0.047676    0.012006
     10         16           0       -0.509270    1.086077    1.087657
     11          6           0       -2.066051    0.543965    0.563253
     12          6           0       -1.945919   -0.462192   -0.375787
     13          6           0       -0.601703   -0.804167   -0.691406
     14          1           0       -0.294731   -1.559427   -1.401699
     15         16           0       -3.503484   -1.003642   -0.903784
     16          6           0       -4.284562    0.135922    0.148629
     17          6           0       -3.413962    0.893157    0.866883
     18          1           0       -5.363297    0.176589    0.173191
     19          1           0       -3.718741    1.652704    1.572803
     20          1           0        2.755158    2.096525   -2.286242
     21          1           0        2.446218    2.906222   -0.748745
     22          1           0        1.146518    2.017115   -1.551209
 ---------------------------------------------------------------------

 The electronic state is 1-A.
 Alpha  occ. eigenvalues --  -89.05113 -89.04963 -89.04623 -10.33541 -10.32441
 Alpha  occ. eigenvalues --  -10.32436 -10.32389 -10.32368 -10.31707 -10.30571
 Alpha  occ. eigenvalues --  -10.30550 -10.30383 -10.29154 -10.28416  -8.09158
 Alpha  occ. eigenvalues --   -8.09005  -8.08702  -6.04006  -6.03856  -6.03633
 Alpha  occ. eigenvalues --   -6.03528  -6.03484  -6.03221  -6.03145  -6.03057
 Alpha  occ. eigenvalues --   -6.02813  -1.02206  -0.99606  -0.95283  -0.87484
 Alpha  occ. eigenvalues --   -0.87087  -0.85456  -0.81071  -0.80247  -0.77447
 Alpha  occ. eigenvalues --   -0.70518  -0.66663  -0.65812  -0.63144  -0.60959
 Alpha  occ. eigenvalues --   -0.58740  -0.58452  -0.52890  -0.52265  -0.52208
 Alpha  occ. eigenvalues --   -0.50411  -0.50224  -0.47897  -0.47496  -0.47009
 Alpha  occ. eigenvalues --   -0.46044  -0.45193  -0.44865  -0.42975  -0.42164
 Alpha  occ. eigenvalues --   -0.41971  -0.36924  -0.32830  -0.31902  -0.30893
 Alpha  occ. eigenvalues --   -0.29362
 Alpha virt. eigenvalues --    0.02079   0.04341   0.05568   0.05866   0.06584
 Alpha virt. eigenvalues --    0.06923   0.07000   0.07137   0.07983   0.08809
 Alpha virt. eigenvalues --    0.08893   0.09463   0.09564   0.09988   0.10235

 Mulliken charges:
               1
     1  C    0.053379
     2  C   -0.316007
     3  C    0.336083
     4  C   -0.923747
     5  C   -0.186335
     6  H    0.151889
     7  S   -0.223125
     8  H    0.186317
     9  C    0.771787
    10  S   -0.521341
    11  C    0.359326
    12  C   -0.493686
    13  C    0.373313
    14  H    0.168746
    15  S   -0.430427
    16  C   -0.206449
    17  C    0.001476
    18  H    0.193508
    19  H    0.162638
    20  H    0.166649
    21  H    0.189118
    22  H    0.186887
 Sum of Mulliken charges =  -0.00000

 Dipole moment (field-independent basis, Debye):
    X=              0.2567    Y=              0.7951    Z=             -0.5348  Tot=              0.9920
 Quadrupole moment (field-independent basis, Debye-Ang):
   XX=            -86.5977   YY=           -101.0005   ZZ=           -104.0504
   XY=             -1.5255   XZ=             -3.5938   YZ=              1.1987

 Normal termination of Gaussian 16 at Tue Oct 26 01:59:22 2021.
