 Gaussian 16, Revision C.01,
 Gaussian 16:  ES64L-G16RevC.01  3-Jul-2019

 --------------------------------------
 # opt=modredundant wb97xd/6-311+g(d,p)
 --------------------------------------

 --------------
 pBTTT_-130.pdb
 --------------
 Symbolic Z-matrix:
 Charge =  0 Multiplicity = 1

 SCF Done:  E(RwB97XD) =  -1618.45927879     A.U. after   18 cycles
 SCF Done:  E(RwB97XD) =  -1618.49390458     A.U. after   16 cycles
 SCF Done:  E(RwB97XD) =  -1618.50472719     A.U. after   15 cycles
 SCF Done:  E(RwB97XD) =  -1618.50714685     A.U. after   15 cycles
 SCF Done:  E(RwB97XD) =  -1618.50761983     A.U. after   15 cycles
 SCF Done:  E(RwB97XD) =  -1618.50841739     A.U. after   14 cycles
 SCF Done:  E(RwB97XD) =  -1618.50843391     A.U. after   15 cycles
 SCF Done:  E(RwB97XD) =  -1618.50882070     A.U. after   13 cycles
 SCF Done:  E(RwB97XD) =  -1618.50915351     A.U. after   14 cycles
 SCF Done:  E(RwB97XD) =  -1618.50931204     A.U. after   13 cycles
 SCF Done:  E(RwB97XD) =  -1618.50940801     A.U. after   13 cycles
 SCF Done:  E(RwB97XD) =  -1618.50944965     A.U. after   13 cycles
 SCF Done:  E(RwB97XD) =  -1618.50945567     A.U. after   12 cycles
 SCF Done:  E(RwB97XD) =  -1618.50945694     A.U. after   11 cycles
 SCF Done:  E(RwB97XD) =  -1618.50945718     A.U. after   11 cycles
 SCF Done:  E(RwB97XD) =  -1618.50945735     A.U. after   10 cycles
 Optimization completed.
    -- Stationary point found.

                         Standard orientation:
 ---------------------------------------------------------------------
 Center     Atomic      Atomic             Coordinates (Angstroms)
 Number     Number       Type             X           Y           Z
 ---------------------------------------------------------------------
      1          6           0        3.930561    0.777890    0.150545
      2          6           0        2.543648    1.064970    0.334585
      3          6           0        1.750394    0.017933   -0.063412
      4          6           0        2.045425    2.356244    0.914136
      5          6           0        4.164443   -0.457717   -0.365843
      6          1           0        4.719450    1.472505    0.410779
      7         16           0        2.702725   -1.310070   -0.659113
      8          1           0        5.115137   -0.917987   -0.589090
      9          6           0        0.293733   -0.059087   -0.040097
     10         16           0       -0.515081   -1.441677    0.677057
     11          6           0       -2.066488   -0.756595    0.334745
     12          6           0       -1.937163    0.473435   -0.280104
     13          6           0       -0.590720    0.873138   -0.501048
     14          1           0       -0.279907    1.784696   -0.991828
     15         16           0       -3.490214    1.158424   -0.621866
     16          6           0       -4.281459   -0.224461    0.070545
     17          6           0       -3.416719   -1.163336    0.537785
     18          1           0       -5.360457   -0.259001    0.090504
     19          1           0       -3.727583   -2.089261    1.000566
     20          1           0        2.718566    2.707382    1.699710
     21          1           0        1.047299    2.241179    1.340334
     22          1           0        1.994691    3.139163    0.150760
 ---------------------------------------------------------------------

 The electronic state is 1-A.
 Alpha  occ. eigenvalues --  -89.05116 -89.05010 -89.04712 -10.33686 -10.32667
 Alpha  occ. eigenvalues --  -10.32447 -10.32379 -10.32359 -10.31767 -10.30547
 Alpha  occ. eigenvalues --  -10.30521 -10.30480 -10.29251 -10.28622  -8.09161
 Alpha  occ. eigenvalues --   -8.09054  -8.08798  -6.04010  -6.03908  -6.03637
 Alpha  occ. eigenvalues --   -6.03626  -6.03536  -6.03242  -6.03224  -6.03101
 Alpha  occ. eigenvalues --   -6.02904  -1.02247  -0.99702  -0.95311  -0.87867
 Alpha  occ. eigenvalues --   -0.86837  -0.85663  -0.81092  -0.80274  -0.77611
 Alpha  occ. eigenvalues --   -0.70607  -0.66579  -0.66140  -0.63192  -0.60951
 Alpha  occ. eigenvalues --   -0.58796  -0.58499  -0.52937  -0.52408  -0.52186
 Alpha  occ. eigenvalues --   -0.50603  -0.50043  -0.48001  -0.47699  -0.47099
 Alpha  occ. eigenvalues --   -0.46057  -0.45713  -0.44529  -0.43013  -0.42466
 Alpha  occ. eigenvalues --   -0.41956  -0.36996  -0.33395  -0.32666  -0.30806
 Alpha  occ. eigenvalues --   -0.28335
 Alpha virt. eigenvalues --    0.01298   0.04834   0.05566   0.05951   0.06474
 Alpha virt. eigenvalues --    0.06944   0.07158   0.07328   0.08010   0.09058
 Alpha virt. eigenvalues --    0.09101   0.09405   0.09622   0.09799   0.10374

 Mulliken charges:
               1
     1  C   -0.010600
     2  C   -0.097346
     3  C    0.640279
     4  C   -1.037429
     5  C   -0.133767
     6  H    0.151100
     7  S   -0.385799
     8  H    0.186429
     9  C    0.450634
    10  S   -0.604846
    11  C    0.402164
    12  C   -0.239828
    13  C    0.335679
    14  H    0.164180
    15  S   -0.446620
    16  C   -0.176215
    17  C   -0.091121
    18  H    0.193510
    19  H    0.162710
    20  H    0.162295
    21  H    0.185718
    22  H    0.188873
 Sum of Mulliken charges =  -0.00000

 Dipole moment (field-independent basis, Debye):
    X=              0.2478    Y=              0.8819    Z=              0.3656  Tot=              0.9863
 Quadrupole moment (field-independent basis, Debye-Ang):
   XX=            -86.6792   YY=            -98.3292   ZZ=           -106.7834
   XY=              4.9080   XZ=             -1.2289   YZ=             -0.9902

 Normal termination of Gaussian 16 at Tue Oct 26 01:22:44 2021.
