 Gaussian 16, Revision C.01,
 Gaussian 16:  ES64L-G16RevC.01  3-Jul-2019

 --------------------------------------
 # opt=modredundant wb97xd/6-311+g(d,p)
 --------------------------------------

 --------------
 pBTTT_-155.pdb
 --------------
 Symbolic Z-matrix:
 Charge =  0 Multiplicity = 1

 SCF Done:  E(RwB97XD) =  -1618.46037167     A.U. after   18 cycles
 SCF Done:  E(RwB97XD) =  -1618.49387430     A.U. after   16 cycles
 SCF Done:  E(RwB97XD) =  -1618.50399971     A.U. after   15 cycles
 SCF Done:  E(RwB97XD) =  -1618.50671972     A.U. after   15 cycles
 SCF Done:  E(RwB97XD) =  -1618.50756498     A.U. after   14 cycles
 SCF Done:  E(RwB97XD) =  -1618.50819555     A.U. after   13 cycles
 SCF Done:  E(RwB97XD) =  -1618.50834320     A.U. after   13 cycles
 SCF Done:  E(RwB97XD) =  -1618.50839409     A.U. after   13 cycles
 SCF Done:  E(RwB97XD) =  -1618.50844717     A.U. after   12 cycles
 SCF Done:  E(RwB97XD) =  -1618.50847368     A.U. after   13 cycles
 SCF Done:  E(RwB97XD) =  -1618.50848060     A.U. after   11 cycles
 SCF Done:  E(RwB97XD) =  -1618.50848192     A.U. after   11 cycles
 SCF Done:  E(RwB97XD) =  -1618.50848203     A.U. after   10 cycles
 Optimization completed.
    -- Stationary point found.

                         Standard orientation:
 ---------------------------------------------------------------------
 Center     Atomic      Atomic             Coordinates (Angstroms)
 Number     Number       Type             X           Y           Z
 ---------------------------------------------------------------------
      1          6           0        3.941618    0.788533    0.028191
      2          6           0        2.564034    1.121539    0.193432
      3          6           0        1.748131    0.029663    0.007893
      4          6           0        2.105826    2.501675    0.563729
      5          6           0        4.153587   -0.518770   -0.277474
      6          1           0        4.741619    1.508309    0.148235
      7         16           0        2.677664   -1.387674   -0.388635
      8          1           0        5.093646   -1.023481   -0.440785
      9          6           0        0.293252   -0.030494    0.036305
     10         16           0       -0.518870   -1.539800    0.425485
     11          6           0       -2.070626   -0.810669    0.195890
     12          6           0       -1.941491    0.519431   -0.149208
     13          6           0       -0.596864    0.967644   -0.251747
     14          1           0       -0.300944    1.959250   -0.559206
     15         16           0       -3.494630    1.250278   -0.376844
     16          6           0       -4.284928   -0.250397   -0.000422
     17          6           0       -3.419277   -1.259237    0.284330
     18          1           0       -5.363600   -0.295807   -0.013088
     19          1           0       -3.728925   -2.262559    0.540408
     20          1           0        2.904687    3.042082    1.075452
     21          1           0        1.236670    2.468983    1.224728
     22          1           0        1.830644    3.084854   -0.321362
 ---------------------------------------------------------------------

 The electronic state is 1-A.
 Alpha  occ. eigenvalues --  -89.05115 -89.05009 -89.04799 -10.33932 -10.32914
 Alpha  occ. eigenvalues --  -10.32446 -10.32376 -10.32346 -10.31789 -10.30553
 Alpha  occ. eigenvalues --  -10.30549 -10.30497 -10.29329 -10.28922  -8.09161
 Alpha  occ. eigenvalues --   -8.09064  -8.08893  -6.04010  -6.03923  -6.03725
 Alpha  occ. eigenvalues --   -6.03637  -6.03550  -6.03338  -6.03223  -6.03102
 Alpha  occ. eigenvalues --   -6.02995  -1.02288  -0.99799  -0.95329  -0.88084
 Alpha  occ. eigenvalues --   -0.86812  -0.85829  -0.81093  -0.80283  -0.77830
 Alpha  occ. eigenvalues --   -0.70690  -0.66644  -0.66431  -0.63051  -0.61070
 Alpha  occ. eigenvalues --   -0.58878  -0.58550  -0.52953  -0.52532  -0.52228
 Alpha  occ. eigenvalues --   -0.50758  -0.50026  -0.48236  -0.47734  -0.47128
 Alpha  occ. eigenvalues --   -0.46375  -0.45919  -0.44307  -0.43089  -0.42835
 Alpha  occ. eigenvalues --   -0.41699  -0.37136  -0.34102  -0.32824  -0.30833
 Alpha  occ. eigenvalues --   -0.27615
 Alpha virt. eigenvalues --    0.00605   0.05117   0.05676   0.06004   0.06443
 Alpha virt. eigenvalues --    0.06775   0.07127   0.07638   0.08090   0.09003
 Alpha virt. eigenvalues --    0.09213   0.09388   0.09605   0.10004   0.10647

 Mulliken charges:
               1
     1  C    0.014012
     2  C    0.502416
     3  C    0.483204
     4  C   -1.152783
     5  C   -0.094262
     6  H    0.148062
     7  S   -0.522446
     8  H    0.186027
     9  C    0.346703
    10  S   -0.550141
    11  C    0.524709
    12  C    0.153074
    13  C   -0.105821
    14  H    0.162345
    15  S   -0.454685
    16  C   -0.108556
    17  C   -0.419004
    18  H    0.193190
    19  H    0.162720
    20  H    0.164153
    21  H    0.179405
    22  H    0.187679
 Sum of Mulliken charges =  -0.00000

 Dipole moment (field-independent basis, Debye):
    X=              0.3088    Y=              0.8892    Z=              0.1233  Tot=              0.9493
 Quadrupole moment (field-independent basis, Debye-Ang):
   XX=            -86.3994   YY=            -96.7111   ZZ=           -108.4484
   XY=              5.3228   XZ=             -0.7623   YZ=             -0.4786

 Normal termination of Gaussian 16 at Tue Oct 26 01:21:28 2021.
