 Gaussian 16, Revision C.01,
 Gaussian 16:  ES64L-G16RevC.01  3-Jul-2019

 --------------------------------------
 # opt=modredundant wb97xd/6-311+g(d,p)
 --------------------------------------

 ------------
 pBTTT_80.pdb
 ------------
 Symbolic Z-matrix:
 Charge =  0 Multiplicity = 1

 SCF Done:  E(RwB97XD) =  -1618.45895221     A.U. after   18 cycles
 SCF Done:  E(RwB97XD) =  -1618.49391991     A.U. after   15 cycles
 SCF Done:  E(RwB97XD) =  -1618.50464921     A.U. after   17 cycles
 SCF Done:  E(RwB97XD) =  -1618.50713720     A.U. after   17 cycles
 SCF Done:  E(RwB97XD) =  -1618.50739839     A.U. after   15 cycles
 SCF Done:  E(RwB97XD) =  -1618.50802046     A.U. after   14 cycles
 SCF Done:  E(RwB97XD) =  -1618.50802575     A.U. after   13 cycles
 SCF Done:  E(RwB97XD) =  -1618.50806097     A.U. after   13 cycles
 SCF Done:  E(RwB97XD) =  -1618.50806894     A.U. after   12 cycles
 SCF Done:  E(RwB97XD) =  -1618.50808500     A.U. after   13 cycles
 SCF Done:  E(RwB97XD) =  -1618.49679210     A.U. after   15 cycles
 SCF Done:  E(RwB97XD) =  -1618.50824825     A.U. after    9 cycles
 SCF Done:  E(RwB97XD) =  -1618.50815448     A.U. after   17 cycles
 SCF Done:  E(RwB97XD) =  -1618.50881829     A.U. after   14 cycles
 SCF Done:  E(RwB97XD) =  -1618.50886980     A.U. after   13 cycles
 SCF Done:  E(RwB97XD) =  -1618.50858231     A.U. after   14 cycles
 SCF Done:  E(RwB97XD) =  -1618.50888157     A.U. after   14 cycles
 SCF Done:  E(RwB97XD) =  -1618.50888195     A.U. after   12 cycles
 SCF Done:  E(RwB97XD) =  -1618.50888366     A.U. after   12 cycles
 SCF Done:  E(RwB97XD) =  -1618.50888367     A.U. after   10 cycles
 Optimization completed.
    -- Stationary point found.

                         Standard orientation:
 ---------------------------------------------------------------------
 Center     Atomic      Atomic             Coordinates (Angstroms)
 Number     Number       Type             X           Y           Z
 ---------------------------------------------------------------------
      1          6           0        3.974664    0.384261    0.464331
      2          6           0        2.610782    0.782684    0.614949
      3          6           0        1.752205   -0.110279    0.030833
      4          6           0        2.185273    2.028953    1.333026
      5          6           0        4.122697   -0.782206   -0.218742
      6          1           0        4.807480    0.951464    0.860888
      7         16           0        2.608670   -1.432071   -0.703735
      8          1           0        5.039082   -1.299609   -0.460513
      9          6           0        0.288376   -0.053406   -0.018660
     10         16           0       -0.510734    0.975272   -1.193970
     11          6           0       -2.066379    0.485703   -0.617522
     12          6           0       -1.944702   -0.425531    0.413799
     13          6           0       -0.599791   -0.737343    0.756861
     14          1           0       -0.291026   -1.421927    1.534779
     15         16           0       -3.501302   -0.913230    0.994372
     16          6           0       -4.284246    0.119596   -0.161724
     17          6           0       -3.414939    0.803536   -0.951489
     18          1           0       -5.363025    0.157833   -0.188398
     19          1           0       -3.721009    1.491673   -1.726686
     20          1           0        2.675305    2.098895    2.307701
     21          1           0        1.105714    2.045473    1.490600
     22          1           0        2.457687    2.920850    0.760989
 ---------------------------------------------------------------------

 The electronic state is 1-A.
 Alpha  occ. eigenvalues --  -89.05116 -89.04957 -89.04608 -10.33524 -10.32438
 Alpha  occ. eigenvalues --  -10.32423 -10.32394 -10.32367 -10.31712 -10.30580
 Alpha  occ. eigenvalues --  -10.30550 -10.30389 -10.29147 -10.28406  -8.09162
 Alpha  occ. eigenvalues --   -8.08997  -8.08686  -6.04010  -6.03848  -6.03637
 Alpha  occ. eigenvalues --   -6.03512  -6.03475  -6.03225  -6.03130  -6.03051
 Alpha  occ. eigenvalues --   -6.02797  -1.02201  -0.99595  -0.95279  -0.87493
 Alpha  occ. eigenvalues --   -0.87063  -0.85447  -0.81069  -0.80252  -0.77432
 Alpha  occ. eigenvalues --   -0.70511  -0.66640  -0.65786  -0.63199  -0.60942
 Alpha  occ. eigenvalues --   -0.58730  -0.58449  -0.52900  -0.52262  -0.52199
 Alpha  occ. eigenvalues --   -0.50375  -0.50260  -0.47892  -0.47498  -0.46995
 Alpha  occ. eigenvalues --   -0.46013  -0.45208  -0.44840  -0.42974  -0.42140
 Alpha  occ. eigenvalues --   -0.41976  -0.36920  -0.32796  -0.31700  -0.30931
 Alpha  occ. eigenvalues --   -0.29542
 Alpha virt. eigenvalues --    0.02220   0.04191   0.05539   0.05861   0.06572
 Alpha virt. eigenvalues --    0.06936   0.07015   0.07124   0.07932   0.08808
 Alpha virt. eigenvalues --    0.08826   0.09416   0.09485   0.09988   0.10181

 Mulliken charges:
               1
     1  C   -0.123693
     2  C   -0.085196
     3  C    0.065212
     4  C   -0.682595
     5  C   -0.132513
     6  H    0.152995
     7  S   -0.233458
     8  H    0.186297
     9  C    0.446279
    10  S   -0.593097
    11  C    0.280372
    12  C   -0.600142
    13  C    0.596422
    14  H    0.168831
    15  S   -0.428384
    16  C   -0.217298
    17  C    0.295547
    18  H    0.193562
    19  H    0.162576
    20  H    0.169307
    21  H    0.191594
    22  H    0.187381
 Sum of Mulliken charges =  -0.00000

 Dipole moment (field-independent basis, Debye):
    X=              0.2417    Y=              0.8074    Z=              0.5381  Tot=              0.9999
 Quadrupole moment (field-independent basis, Debye-Ang):
   XX=            -86.6158   YY=           -101.6991   ZZ=           -103.3594
   XY=             -1.2430   XZ=              3.8523   YZ=             -1.1855

 Normal termination of Gaussian 16 at Tue Oct 26 02:25:38 2021.
