 Gaussian 16, Revision C.01,
 Gaussian 16:  ES64L-G16RevC.01  3-Jul-2019

 --------------------------------------
 # opt=modredundant wb97xd/6-311+g(d,p)
 --------------------------------------

 -------------
 pBTTT_160.pdb
 -------------
 Symbolic Z-matrix:
 Charge =  0 Multiplicity = 1

 SCF Done:  E(RwB97XD) =  -1618.46106497     A.U. after   19 cycles
 SCF Done:  E(RwB97XD) =  -1618.49451165     A.U. after   17 cycles
 SCF Done:  E(RwB97XD) =  -1618.50425761     A.U. after   16 cycles
 SCF Done:  E(RwB97XD) =  -1618.50679414     A.U. after   14 cycles
 SCF Done:  E(RwB97XD) =  -1618.50757011     A.U. after   14 cycles
 SCF Done:  E(RwB97XD) =  -1618.50775414     A.U. after   14 cycles
 SCF Done:  E(RwB97XD) =  -1618.50795783     A.U. after   13 cycles
 SCF Done:  E(RwB97XD) =  -1618.50798625     A.U. after   12 cycles
 SCF Done:  E(RwB97XD) =  -1618.50801038     A.U. after   12 cycles
 SCF Done:  E(RwB97XD) =  -1618.50802090     A.U. after   12 cycles
 SCF Done:  E(RwB97XD) =  -1618.50802413     A.U. after   11 cycles
 SCF Done:  E(RwB97XD) =  -1618.50802553     A.U. after   10 cycles
 SCF Done:  E(RwB97XD) =  -1618.50802582     A.U. after    9 cycles
 Optimization completed.
    -- Stationary point found.

                         Standard orientation:
 ---------------------------------------------------------------------
 Center     Atomic      Atomic             Coordinates (Angstroms)
 Number     Number       Type             X           Y           Z
 ---------------------------------------------------------------------
      1          6           0       -3.943925    0.787879    0.008256
      2          6           0       -2.567525    1.130248    0.161412
      3          6           0       -1.747799    0.033925    0.018488
      4          6           0       -2.116873    2.525687    0.479595
      5          6           0       -4.153195   -0.530122   -0.249006
      6          1           0       -4.745292    1.510226    0.100444
      7         16           0       -2.675429   -1.398600   -0.326495
      8          1           0       -5.091781   -1.042895   -0.394383
      9          6           0       -0.292727   -0.025328    0.045819
     10         16           0        0.517778   -1.552733    0.365493
     11          6           0        2.070911   -0.818483    0.165058
     12          6           0        1.944231    0.525271   -0.121910
     13          6           0        0.600864    0.981598   -0.200945
     14          1           0        0.311336    1.986995   -0.464839
     15         16           0        3.498662    1.261784   -0.320737
     16          6           0        4.286020   -0.255549   -0.011099
     17          6           0        3.418448   -1.273733    0.231607
     18          1           0        5.364556   -0.302825   -0.027566
     19          1           0        3.726162   -2.287712    0.444356
     20          1           0       -2.936112    3.097081    0.920157
     21          1           0       -1.792242    3.059018   -0.420144
     22          1           0       -1.283382    2.524528    1.186160
 ---------------------------------------------------------------------

 The electronic state is 1-A.
 Alpha  occ. eigenvalues --  -89.05113 -89.05001 -89.04813 -10.33988 -10.32970
 Alpha  occ. eigenvalues --  -10.32439 -10.32371 -10.32342 -10.31796 -10.30572
 Alpha  occ. eigenvalues --  -10.30553 -10.30486 -10.29342 -10.28987  -8.09159
 Alpha  occ. eigenvalues --   -8.09059  -8.08909  -6.04008  -6.03918  -6.03741
 Alpha  occ. eigenvalues --   -6.03635  -6.03545  -6.03354  -6.03221  -6.03095
 Alpha  occ. eigenvalues --   -6.03009  -1.02291  -0.99819  -0.95328  -0.88124
 Alpha  occ. eigenvalues --   -0.86811  -0.85857  -0.81088  -0.80284  -0.77879
 Alpha  occ. eigenvalues --   -0.70704  -0.66663  -0.66477  -0.63027  -0.61102
 Alpha  occ. eigenvalues --   -0.58897  -0.58556  -0.52955  -0.52569  -0.52230
 Alpha  occ. eigenvalues --   -0.50783  -0.50040  -0.48285  -0.47737  -0.47119
 Alpha  occ. eigenvalues --   -0.46462  -0.45940  -0.44261  -0.43107  -0.42904
 Alpha  occ. eigenvalues --   -0.41623  -0.37164  -0.34212  -0.32858  -0.30823
 Alpha  occ. eigenvalues --   -0.27510
 Alpha virt. eigenvalues --    0.00489   0.05130   0.05689   0.06009   0.06432
 Alpha virt. eigenvalues --    0.06738   0.07125   0.07687   0.08126   0.08975
 Alpha virt. eigenvalues --    0.09212   0.09385   0.09608   0.10086   0.10706

 Mulliken charges:
               1
     1  C    0.050500
     2  C    0.513708
     3  C    0.513531
     4  C   -1.169949
     5  C   -0.106612
     6  H    0.147290
     7  S   -0.545937
     8  H    0.185915
     9  C    0.290882
    10  S   -0.555086
    11  C    0.513862
    12  C    0.168008
    13  C   -0.066174
    14  H    0.160606
    15  S   -0.455763
    16  C   -0.107674
    17  C   -0.423757
    18  H    0.193144
    19  H    0.162571
    20  H    0.164964
    21  H    0.187514
    22  H    0.178459
 Sum of Mulliken charges =  -0.00000

 Dipole moment (field-independent basis, Debye):
    X=             -0.3265    Y=              0.8938    Z=              0.0793  Tot=              0.9549
 Quadrupole moment (field-independent basis, Debye-Ang):
   XX=            -86.3358   YY=            -96.4458   ZZ=           -108.7096
   XY=             -5.3705   XZ=              0.6584   YZ=             -0.3731

 Normal termination of Gaussian 16 at Tue Oct 26 02:06:31 2021.
