 Gaussian 16, Revision C.01,
 Gaussian 16:  ES64L-G16RevC.01  3-Jul-2019

 --------------------------------------
 # opt=modredundant wb97xd/6-311+g(d,p)
 --------------------------------------

 --------------
 pBTTT_-160.pdb
 --------------
 Symbolic Z-matrix:
 Charge =  0 Multiplicity = 1

 SCF Done:  E(RwB97XD) =  -1618.46054048     A.U. after   19 cycles
 SCF Done:  E(RwB97XD) =  -1618.49386118     A.U. after   16 cycles
 SCF Done:  E(RwB97XD) =  -1618.50367439     A.U. after   16 cycles
 SCF Done:  E(RwB97XD) =  -1618.50642200     A.U. after   14 cycles
 SCF Done:  E(RwB97XD) =  -1618.50727041     A.U. after   14 cycles
 SCF Done:  E(RwB97XD) =  -1618.50772092     A.U. after   14 cycles
 SCF Done:  E(RwB97XD) =  -1618.50788660     A.U. after   13 cycles
 SCF Done:  E(RwB97XD) =  -1618.50792644     A.U. after   13 cycles
 SCF Done:  E(RwB97XD) =  -1618.50799653     A.U. after   12 cycles
 SCF Done:  E(RwB97XD) =  -1618.50801990     A.U. after   12 cycles
 SCF Done:  E(RwB97XD) =  -1618.50802633     A.U. after   11 cycles
 SCF Done:  E(RwB97XD) =  -1618.50802766     A.U. after   11 cycles
 SCF Done:  E(RwB97XD) =  -1618.50802777     A.U. after    9 cycles
 SCF Done:  E(RwB97XD) =  -1618.50802785     A.U. after    9 cycles
 Optimization completed.
    -- Stationary point found.

                         Standard orientation:
 ---------------------------------------------------------------------
 Center     Atomic      Atomic             Coordinates (Angstroms)
 Number     Number       Type             X           Y           Z
 ---------------------------------------------------------------------
      1          6           0        3.943840    0.788155    0.008671
      2          6           0        2.567316    1.130272    0.161529
      3          6           0        1.747812    0.033811    0.018358
      4          6           0        2.116339    2.525634    0.479577
      5          6           0        4.153380   -0.529769   -0.248806
      6          1           0        4.745025    1.510674    0.101087
      7         16           0        2.675739   -1.398556   -0.326528
      8          1           0        5.092016   -1.042461   -0.394153
      9          6           0        0.292761   -0.025497    0.045507
     10         16           0       -0.517803   -1.552828    0.365447
     11          6           0       -2.070928   -0.818545    0.164970
     12          6           0       -1.944178    0.525181   -0.122125
     13          6           0       -0.600796    0.981423   -0.201479
     14          1           0       -0.311250    1.986787   -0.465545
     15         16           0       -3.498618    1.261795   -0.320598
     16          6           0       -4.286059   -0.255508   -0.010830
     17          6           0       -3.418480   -1.273736    0.231719
     18          1           0       -5.364600   -0.302700   -0.027213
     19          1           0       -3.726161   -2.287806    0.444090
     20          1           0        2.935202    3.097016    0.920869
     21          1           0        1.282304    2.524288    1.185510
     22          1           0        1.792340    3.059079   -0.420308
 ---------------------------------------------------------------------

 The electronic state is 1-A.
 Alpha  occ. eigenvalues --  -89.05113 -89.05001 -89.04813 -10.33988 -10.32970
 Alpha  occ. eigenvalues --  -10.32439 -10.32371 -10.32343 -10.31798 -10.30573
 Alpha  occ. eigenvalues --  -10.30553 -10.30487 -10.29343 -10.28987  -8.09159
 Alpha  occ. eigenvalues --   -8.09059  -8.08909  -6.04008  -6.03918  -6.03742
 Alpha  occ. eigenvalues --   -6.03635  -6.03545  -6.03355  -6.03221  -6.03095
 Alpha  occ. eigenvalues --   -6.03010  -1.02291  -0.99818  -0.95327  -0.88124
 Alpha  occ. eigenvalues --   -0.86811  -0.85857  -0.81087  -0.80284  -0.77879
 Alpha  occ. eigenvalues --   -0.70704  -0.66663  -0.66477  -0.63027  -0.61102
 Alpha  occ. eigenvalues --   -0.58897  -0.58556  -0.52955  -0.52568  -0.52230
 Alpha  occ. eigenvalues --   -0.50783  -0.50040  -0.48285  -0.47737  -0.47119
 Alpha  occ. eigenvalues --   -0.46461  -0.45940  -0.44260  -0.43107  -0.42904
 Alpha  occ. eigenvalues --   -0.41623  -0.37164  -0.34212  -0.32858  -0.30823
 Alpha  occ. eigenvalues --   -0.27510
 Alpha virt. eigenvalues --    0.00489   0.05130   0.05689   0.06008   0.06432
 Alpha virt. eigenvalues --    0.06739   0.07124   0.07686   0.08125   0.08975
 Alpha virt. eigenvalues --    0.09212   0.09385   0.09608   0.10086   0.10706

 Mulliken charges:
               1
     1  C    0.050374
     2  C    0.514045
     3  C    0.513509
     4  C   -1.170104
     5  C   -0.106621
     6  H    0.147302
     7  S   -0.545988
     8  H    0.185925
     9  C    0.291148
    10  S   -0.555034
    11  C    0.513998
    12  C    0.167986
    13  C   -0.066387
    14  H    0.160627
    15  S   -0.455819
    16  C   -0.107709
    17  C   -0.423919
    18  H    0.193151
    19  H    0.162573
    20  H    0.164963
    21  H    0.178442
    22  H    0.187538
 Sum of Mulliken charges =  -0.00000

 Dipole moment (field-independent basis, Debye):
    X=              0.3266    Y=              0.8940    Z=              0.0793  Tot=              0.9550
 Quadrupole moment (field-independent basis, Debye-Ang):
   XX=            -86.3365   YY=            -96.4460   ZZ=           -108.7100
   XY=              5.3713   XZ=             -0.6575   YZ=             -0.3728

 Normal termination of Gaussian 16 at Tue Oct 26 01:06:02 2021.
