 Gaussian 16, Revision C.01,
 Gaussian 16:  ES64L-G16RevC.01  3-Jul-2019

 --------------------------------------
 # opt=modredundant wb97xd/6-311+g(d,p)
 --------------------------------------

 --------------
 pBTTT_-125.pdb
 --------------
 Symbolic Z-matrix:
 Charge =  0 Multiplicity = 1

 SCF Done:  E(RwB97XD) =  -1618.45912284     A.U. after   18 cycles
 SCF Done:  E(RwB97XD) =  -1618.49386821     A.U. after   16 cycles
 SCF Done:  E(RwB97XD) =  -1618.50473983     A.U. after   15 cycles
 SCF Done:  E(RwB97XD) =  -1618.50711407     A.U. after   15 cycles
 SCF Done:  E(RwB97XD) =  -1618.50750261     A.U. after   15 cycles
 SCF Done:  E(RwB97XD) =  -1618.50827904     A.U. after   14 cycles
 SCF Done:  E(RwB97XD) =  -1618.50824458     A.U. after   15 cycles
 SCF Done:  E(RwB97XD) =  -1618.50858806     A.U. after   13 cycles
 SCF Done:  E(RwB97XD) =  -1618.50874062     A.U. after   13 cycles
 SCF Done:  E(RwB97XD) =  -1618.50918190     A.U. after   14 cycles
 SCF Done:  E(RwB97XD) =  -1618.50933558     A.U. after   14 cycles
 SCF Done:  E(RwB97XD) =  -1618.50937500     A.U. after   13 cycles
 SCF Done:  E(RwB97XD) =  -1618.50938839     A.U. after   13 cycles
 SCF Done:  E(RwB97XD) =  -1618.50939473     A.U. after   12 cycles
 SCF Done:  E(RwB97XD) =  -1618.50939515     A.U. after   11 cycles
 SCF Done:  E(RwB97XD) =  -1618.50939512     A.U. after   10 cycles
 SCF Done:  E(RwB97XD) =  -1618.50939519     A.U. after   10 cycles
 Optimization completed.
    -- Stationary point found.

                         Standard orientation:
 ---------------------------------------------------------------------
 Center     Atomic      Atomic             Coordinates (Angstroms)
 Number     Number       Type             X           Y           Z
 ---------------------------------------------------------------------
      1          6           0        3.929724    0.770425    0.170776
      2          6           0        2.541721    1.049606    0.360621
      3          6           0        1.751034    0.016579   -0.075322
      4          6           0        2.038448    2.319914    0.980395
      5          6           0        4.165846   -0.447230   -0.385676
      6          1           0        4.717340    1.456912    0.455310
      7         16           0        2.705751   -1.291268   -0.710181
      8          1           0        5.117658   -0.898454   -0.622405
      9          6           0        0.293507   -0.063449   -0.051887
     10         16           0       -0.513607   -1.411286    0.729946
     11          6           0       -2.065536   -0.740340    0.363361
     12          6           0       -1.937463    0.460846   -0.306572
     13          6           0       -0.591213    0.848784   -0.549526
     14          1           0       -0.279719    1.739444   -1.077114
     15         16           0       -3.491077    1.131714   -0.672761
     16          6           0       -4.281020   -0.218124    0.083223
     17          6           0       -3.415577   -1.136231    0.588747
     18          1           0       -5.359977   -0.250472    0.108763
     19          1           0       -3.725666   -2.040258    1.093441
     20          1           0        2.679424    2.619604    1.812976
     21          1           0        1.019668    2.202574    1.353355
     22          1           0        2.037375    3.139391    0.254761
 ---------------------------------------------------------------------

 The electronic state is 1-A.
 Alpha  occ. eigenvalues --  -89.05117 -89.05003 -89.04688 -10.33648 -10.32624
 Alpha  occ. eigenvalues --  -10.32444 -10.32379 -10.32365 -10.31764 -10.30547
 Alpha  occ. eigenvalues --  -10.30526 -10.30470 -10.29233 -10.28570  -8.09163
 Alpha  occ. eigenvalues --   -8.09046  -8.08773  -6.04011  -6.03899  -6.03638
 Alpha  occ. eigenvalues --   -6.03601  -6.03527  -6.03226  -6.03217  -6.03095
 Alpha  occ. eigenvalues --   -6.02880  -1.02238  -0.99681  -0.95305  -0.87821
 Alpha  occ. eigenvalues --   -0.86849  -0.85628  -0.81089  -0.80272  -0.77573
 Alpha  occ. eigenvalues --   -0.70590  -0.66573  -0.66076  -0.63222  -0.60936
 Alpha  occ. eigenvalues --   -0.58781  -0.58489  -0.52939  -0.52388  -0.52177
 Alpha  occ. eigenvalues --   -0.50571  -0.50062  -0.47968  -0.47674  -0.47085
 Alpha  occ. eigenvalues --   -0.46024  -0.45650  -0.44568  -0.43002  -0.42392
 Alpha  occ. eigenvalues --   -0.41984  -0.36975  -0.33231  -0.32618  -0.30793
 Alpha  occ. eigenvalues --   -0.28523
 Alpha virt. eigenvalues --    0.01456   0.04732   0.05562   0.05944   0.06485
 Alpha virt. eigenvalues --    0.06971   0.07165   0.07271   0.07998   0.09049
 Alpha virt. eigenvalues --    0.09080   0.09415   0.09608   0.09823   0.10305

 Mulliken charges:
               1
     1  C   -0.015279
     2  C   -0.100379
     3  C    0.613444
     4  C   -1.025053
     5  C   -0.131846
     6  H    0.151301
     7  S   -0.361434
     8  H    0.186487
     9  C    0.436719
    10  S   -0.598067
    11  C    0.383310
    12  C   -0.279624
    13  C    0.364962
    14  H    0.163401
    15  S   -0.446073
    16  C   -0.183244
    17  C   -0.052706
    18  H    0.193528
    19  H    0.162689
    20  H    0.162989
    21  H    0.186749
    22  H    0.188126
 Sum of Mulliken charges =  -0.00000

 Dipole moment (field-independent basis, Debye):
    X=              0.2384    Y=              0.8806    Z=              0.4068  Tot=              0.9989
 Quadrupole moment (field-independent basis, Debye-Ang):
   XX=            -86.7118   YY=            -98.7391   ZZ=           -106.3608
   XY=              4.8062   XZ=             -1.3287   YZ=             -1.0689

 Normal termination of Gaussian 16 at Tue Oct 26 01:39:26 2021.
