 Gaussian 16, Revision C.01,
 Gaussian 16:  ES64L-G16RevC.01  3-Jul-2019

 --------------------------------------
 # opt=modredundant wb97xd/6-311+g(d,p)
 --------------------------------------

 ------------
 pBTTT_65.pdb
 ------------
 Symbolic Z-matrix:
 Charge =  0 Multiplicity = 1

 SCF Done:  E(RwB97XD) =  -1618.45955711     A.U. after   18 cycles
 SCF Done:  E(RwB97XD) =  -1618.49433196     A.U. after   16 cycles
 SCF Done:  E(RwB97XD) =  -1618.50487926     A.U. after   16 cycles
 SCF Done:  E(RwB97XD) =  -1618.50732651     A.U. after   16 cycles
 SCF Done:  E(RwB97XD) =  -1618.50759269     A.U. after   14 cycles
 SCF Done:  E(RwB97XD) =  -1618.50827738     A.U. after   14 cycles
 SCF Done:  E(RwB97XD) =  -1618.50831085     A.U. after   13 cycles
 SCF Done:  E(RwB97XD) =  -1618.50838390     A.U. after   13 cycles
 SCF Done:  E(RwB97XD) =  -1618.50844594     A.U. after   13 cycles
 SCF Done:  E(RwB97XD) =  -1618.50853100     A.U. after   14 cycles
 SCF Done:  E(RwB97XD) =  -1618.50863686     A.U. after   12 cycles
 SCF Done:  E(RwB97XD) =  -1618.50898073     A.U. after   14 cycles
 SCF Done:  E(RwB97XD) =  -1618.50908437     A.U. after   13 cycles
 SCF Done:  E(RwB97XD) =  -1618.50909450     A.U. after   12 cycles
 SCF Done:  E(RwB97XD) =  -1618.50911447     A.U. after   12 cycles
 SCF Done:  E(RwB97XD) =  -1618.50911476     A.U. after   10 cycles
 SCF Done:  E(RwB97XD) =  -1618.50911494     A.U. after   10 cycles
 SCF Done:  E(RwB97XD) =  -1618.50911510     A.U. after   10 cycles
 Optimization completed.
    -- Stationary point found.

                         Standard orientation:
 ---------------------------------------------------------------------
 Center     Atomic      Atomic             Coordinates (Angstroms)
 Number     Number       Type             X           Y           Z
 ---------------------------------------------------------------------
      1          6           0        3.993964    0.330187    0.380259
      2          6           0        2.646945    0.775323    0.546224
      3          6           0        1.748382   -0.118277    0.023709
      4          6           0        2.282289    2.060934    1.229525
      5          6           0        4.093105   -0.870829   -0.250112
      6          1           0        4.851599    0.888898    0.733672
      7         16           0        2.549801   -1.494574   -0.671620
      8          1           0        4.988188   -1.426527   -0.486317
      9          6           0        0.287488   -0.037989   -0.000951
     10         16           0       -0.509728    1.225124   -0.921874
     11          6           0       -2.066970    0.616827   -0.477093
     12          6           0       -1.947231   -0.506047    0.318814
     13          6           0       -0.603628   -0.884342    0.591074
     14          1           0       -0.298723   -1.725072    1.198930
     15         16           0       -3.505072   -1.113667    0.767485
     16          6           0       -4.285728    0.156012   -0.124137
     17          6           0       -3.414460    1.003178   -0.733067
     18          1           0       -5.364447    0.198423   -0.145717
     19          1           0       -3.718707    1.850420   -1.331209
     20          1           0        2.915951    2.221735    2.105092
     21          1           0        1.241285    2.056894    1.556442
     22          1           0        2.419912    2.915240    0.559789
 ---------------------------------------------------------------------

 The electronic state is 1-A.
 Alpha  occ. eigenvalues --  -89.05106 -89.04994 -89.04660 -10.33600 -10.32506
 Alpha  occ. eigenvalues --  -10.32437 -10.32378 -10.32371 -10.31698 -10.30551
 Alpha  occ. eigenvalues --  -10.30542 -10.30388 -10.29176 -10.28448  -8.09151
 Alpha  occ. eigenvalues --   -8.09036  -8.08739  -6.04000  -6.03889  -6.03627
 Alpha  occ. eigenvalues --   -6.03565  -6.03517  -6.03215  -6.03182  -6.03086
 Alpha  occ. eigenvalues --   -6.02849  -1.02216  -0.99630  -0.95288  -0.87493
 Alpha  occ. eigenvalues --   -0.87131  -0.85488  -0.81075  -0.80230  -0.77490
 Alpha  occ. eigenvalues --   -0.70540  -0.66719  -0.65883  -0.63010  -0.60999
 Alpha  occ. eigenvalues --   -0.58765  -0.58459  -0.52870  -0.52269  -0.52230
 Alpha  occ. eigenvalues --   -0.50485  -0.50155  -0.47920  -0.47492  -0.47048
 Alpha  occ. eigenvalues --   -0.46120  -0.45199  -0.44888  -0.42975  -0.42229
 Alpha  occ. eigenvalues --   -0.41962  -0.36944  -0.32962  -0.32302  -0.30846
 Alpha  occ. eigenvalues --   -0.28920
 Alpha virt. eigenvalues --    0.01731   0.04672   0.05563   0.05886   0.06572
 Alpha virt. eigenvalues --    0.06850   0.07047   0.07160   0.08051   0.08757
 Alpha virt. eigenvalues --    0.08958   0.09506   0.09582   0.09874   0.10421

 Mulliken charges:
               1
     1  C    0.030223
     2  C   -0.359490
     3  C    0.375555
     4  C   -0.920671
     5  C   -0.201913
     6  H    0.151658
     7  S   -0.250645
     8  H    0.186415
     9  C    0.732338
    10  S   -0.548666
    11  C    0.342703
    12  C   -0.572953
    13  C    0.552694
    14  H    0.170445
    15  S   -0.425085
    16  C   -0.214373
    17  C    0.057435
    18  H    0.193516
    19  H    0.162401
    20  H    0.162840
    21  H    0.183174
    22  H    0.192401
 Sum of Mulliken charges =  -0.00000

 Dipole moment (field-independent basis, Debye):
    X=              0.2856    Y=              0.8084    Z=              0.4829  Tot=              0.9840
 Quadrupole moment (field-independent basis, Debye-Ang):
   XX=            -86.5508   YY=            -99.7756   ZZ=           -105.2756
   XY=             -1.8223   XZ=              3.1274   YZ=             -1.1421

 Normal termination of Gaussian 16 at Tue Oct 26 02:25:03 2021.
