 Gaussian 16, Revision C.01,
 Gaussian 16:  ES64L-G16RevC.01  3-Jul-2019

 --------------------------------------
 # opt=modredundant wb97xd/6-311+g(d,p)
 --------------------------------------

 -----------
 pBTTT_0.pdb
 -----------
 Symbolic Z-matrix:
 Charge =  0 Multiplicity = 1

 SCF Done:  E(RwB97XD) =  -1618.46131663     A.U. after   19 cycles
 SCF Done:  E(RwB97XD) =  -1618.49449087     A.U. after   16 cycles
 SCF Done:  E(RwB97XD) =  -1618.50373448     A.U. after   15 cycles
 SCF Done:  E(RwB97XD) =  -1618.50606359     A.U. after   14 cycles
 SCF Done:  E(RwB97XD) =  -1618.50654489     A.U. after   13 cycles
 SCF Done:  E(RwB97XD) =  -1618.50682642     A.U. after   13 cycles
 SCF Done:  E(RwB97XD) =  -1618.50693150     A.U. after   12 cycles
 SCF Done:  E(RwB97XD) =  -1618.50692342     A.U. after   12 cycles
 SCF Done:  E(RwB97XD) =  -1618.50693691     A.U. after   11 cycles
 SCF Done:  E(RwB97XD) =  -1618.50694185     A.U. after   11 cycles
 SCF Done:  E(RwB97XD) =  -1618.50694237     A.U. after   10 cycles
 SCF Done:  E(RwB97XD) =  -1618.50694270     A.U. after    9 cycles
 SCF Done:  E(RwB97XD) =  -1618.50694283     A.U. after    9 cycles
 Optimization completed.
    -- Stationary point found.

                         Standard orientation:
 ---------------------------------------------------------------------
 Center     Atomic      Atomic             Coordinates (Angstroms)
 Number     Number       Type             X           Y           Z
 ---------------------------------------------------------------------
      1          6           0       -4.030346    0.271694   -0.000033
      2          6           0       -2.720135    0.839140    0.000032
      3          6           0       -1.740424   -0.128686    0.000090
      4          6           0       -2.504129    2.325757    0.000057
      5          6           0       -4.039169   -1.086016   -0.000108
      6          1           0       -4.930898    0.872668   -0.000108
      7         16           0       -2.445683   -1.723020   -0.000053
      8          1           0       -4.889096   -1.751277   -0.000247
      9          6           0       -0.287146   -0.015397    0.000151
     10         16           0        0.527938    1.544704   -0.000067
     11          6           0        2.080023    0.783845    0.000005
     12          6           0        1.953877   -0.589996    0.000091
     13          6           0        0.611889   -1.048901    0.000253
     14          1           0        0.321802   -2.090713    0.000318
     15         16           0        3.509236   -1.351207   -0.000044
     16          6           0        4.296090    0.198422   -0.000066
     17          6           0        3.427683    1.244298    0.000006
     18          1           0        5.374917    0.241713   -0.000216
     19          1           0        3.735022    2.280499   -0.000168
     20          1           0       -3.465122    2.842788   -0.000005
     21          1           0       -1.949839    2.655888   -0.882941
     22          1           0       -1.949915    2.655836    0.883115
 ---------------------------------------------------------------------

 The electronic state is 1-A.
 Alpha  occ. eigenvalues --  -89.05174 -89.05039 -89.04787 -10.34097 -10.33133
 Alpha  occ. eigenvalues --  -10.32406 -10.32279 -10.32277 -10.31850 -10.30679
 Alpha  occ. eigenvalues --  -10.30534 -10.30317 -10.29352 -10.28868  -8.09220
 Alpha  occ. eigenvalues --   -8.09083  -8.08892  -6.04079  -6.03933  -6.03729
 Alpha  occ. eigenvalues --   -6.03703  -6.03559  -6.03341  -6.03258  -6.03143
 Alpha  occ. eigenvalues --   -6.02984  -1.02277  -0.99822  -0.95314  -0.87961
 Alpha  occ. eigenvalues --   -0.87201  -0.85685  -0.81060  -0.80202  -0.77920
 Alpha  occ. eigenvalues --   -0.70725  -0.67212  -0.66143  -0.62320  -0.61306
 Alpha  occ. eigenvalues --   -0.59086  -0.58583  -0.52828  -0.52674  -0.52261
 Alpha  occ. eigenvalues --   -0.50711  -0.50148  -0.48260  -0.47579  -0.46946
 Alpha  occ. eigenvalues --   -0.46710  -0.45945  -0.44598  -0.43209  -0.42523
 Alpha  occ. eigenvalues --   -0.41491  -0.37271  -0.34402  -0.32924  -0.30883
 Alpha  occ. eigenvalues --   -0.27159
 Alpha virt. eigenvalues --    0.00312   0.05392   0.05575   0.06035   0.06339
 Alpha virt. eigenvalues --    0.06608   0.07222   0.08367   0.08398   0.08653
 Alpha virt. eigenvalues --    0.08924   0.09363   0.09713   0.10357   0.10811

 Mulliken charges:
               1
     1  C    0.029026
     2  C    0.276204
     3  C    0.743954
     4  C   -1.033342
     5  C   -0.248673
     6  H    0.145128
     7  S   -0.647209
     8  H    0.187655
     9  C    0.520917
    10  S   -0.718152
    11  C    0.230313
    12  C    0.118317
    13  C    0.142359
    14  H    0.166475
    15  S   -0.444412
    16  C   -0.155801
    17  C   -0.211213
    18  H    0.193191
    19  H    0.160232
    20  H    0.164715
    21  H    0.190153
    22  H    0.190162
 Sum of Mulliken charges =  -0.00000

 Dipole moment (field-independent basis, Debye):
    X=             -0.5355    Y=              0.9593    Z=             -0.0005  Tot=              1.0986
 Quadrupole moment (field-independent basis, Debye-Ang):
   XX=            -85.9141   YY=            -95.9882   ZZ=           -109.3818
   XY=              2.0275   XZ=             -0.0005   YZ=             -0.0004

 Normal termination of Gaussian 16 at Tue Oct 26 02:02:16 2021.
