 Gaussian 16, Revision C.01,
 Gaussian 16:  ES64L-G16RevC.01  3-Jul-2019

 --------------------------------------
 # opt=modredundant wb97xd/6-311+g(d,p)
 --------------------------------------

 -------------
 pBTTT_-30.pdb
 -------------
 Symbolic Z-matrix:
 Charge =  0 Multiplicity = 1

 SCF Done:  E(RwB97XD) =  -1618.46203512     A.U. after   18 cycles
 SCF Done:  E(RwB97XD) =  -1618.49555838     A.U. after   16 cycles
 SCF Done:  E(RwB97XD) =  -1618.50503092     A.U. after   16 cycles
 SCF Done:  E(RwB97XD) =  -1618.50727376     A.U. after   16 cycles
 SCF Done:  E(RwB97XD) =  -1618.50755437     A.U. after   14 cycles
 SCF Done:  E(RwB97XD) =  -1618.50803712     A.U. after   13 cycles
 SCF Done:  E(RwB97XD) =  -1618.50810912     A.U. after   12 cycles
 SCF Done:  E(RwB97XD) =  -1618.50813877     A.U. after   13 cycles
 SCF Done:  E(RwB97XD) =  -1618.50817197     A.U. after   12 cycles
 SCF Done:  E(RwB97XD) =  -1618.50820297     A.U. after   12 cycles
 SCF Done:  E(RwB97XD) =  -1618.50822056     A.U. after   12 cycles
 SCF Done:  E(RwB97XD) =  -1618.50822785     A.U. after   11 cycles
 SCF Done:  E(RwB97XD) =  -1618.50822863     A.U. after   10 cycles
 SCF Done:  E(RwB97XD) =  -1618.50822889     A.U. after   10 cycles
 Optimization completed.
    -- Stationary point found.

                         Standard orientation:
 ---------------------------------------------------------------------
 Center     Atomic      Atomic             Coordinates (Angstroms)
 Number     Number       Type             X           Y           Z
 ---------------------------------------------------------------------
      1          6           0       -4.021286    0.280512    0.165102
      2          6           0       -2.704904    0.822531    0.270676
      3          6           0       -1.741013   -0.127750    0.028784
      4          6           0       -2.458158    2.259376    0.634608
      5          6           0       -4.045219   -1.040180   -0.154809
      6          1           0       -4.915292    0.867025    0.336032
      7         16           0       -2.460007   -1.665950   -0.355610
      8          1           0       -4.904037   -1.681381   -0.283330
      9          6           0       -0.286797   -0.020873    0.013297
     10         16           0        0.518184    1.473598   -0.438106
     11          6           0        2.073640    0.746024   -0.233547
     12          6           0        1.951628   -0.573411    0.153859
     13          6           0        0.609833   -1.013147    0.302014
     14          1           0        0.313436   -2.003586    0.619325
     15         16           0        3.509052   -1.296963    0.374194
     16          6           0        4.291378    0.192199   -0.060627
     17          6           0        3.420377    1.192962   -0.356803
     18          1           0        5.370105    0.236526   -0.073875
     19          1           0        3.724974    2.187934   -0.649040
     20          1           0       -3.336487    2.676817    1.130812
     21          1           0       -2.259274    2.869921   -0.251541
     22          1           0       -1.605960    2.366323    1.308639
 ---------------------------------------------------------------------

 The electronic state is 1-A.
 Alpha  occ. eigenvalues --  -89.05123 -89.05071 -89.04748 -10.33910 -10.32889
 Alpha  occ. eigenvalues --  -10.32423 -10.32354 -10.32325 -10.31747 -10.30552
 Alpha  occ. eigenvalues --  -10.30532 -10.30387 -10.29278 -10.28687  -8.09173
 Alpha  occ. eigenvalues --   -8.09116  -8.08841  -6.04030  -6.03965  -6.03673
 Alpha  occ. eigenvalues --   -6.03656  -6.03592  -6.03287  -6.03215  -6.03178
 Alpha  occ. eigenvalues --   -6.02942  -1.02274  -0.99749  -0.95323  -0.87760
 Alpha  occ. eigenvalues --   -0.87184  -0.85629  -0.81084  -0.80190  -0.77750
 Alpha  occ. eigenvalues --   -0.70656  -0.67024  -0.66091  -0.62537  -0.61184
 Alpha  occ. eigenvalues --   -0.58938  -0.58536  -0.52847  -0.52460  -0.52245
 Alpha  occ. eigenvalues --   -0.50675  -0.50093  -0.48115  -0.47527  -0.47067
 Alpha  occ. eigenvalues --   -0.46478  -0.45652  -0.44712  -0.43038  -0.42495
 Alpha  occ. eigenvalues --   -0.41769  -0.37123  -0.33989  -0.32785  -0.30849
 Alpha  occ. eigenvalues --   -0.27616
 Alpha virt. eigenvalues --    0.00673   0.05348   0.05548   0.06021   0.06461
 Alpha virt. eigenvalues --    0.06660   0.07231   0.07682   0.08331   0.08710
 Alpha virt. eigenvalues --    0.09225   0.09279   0.09739   0.09992   0.10819

 Mulliken charges:
               1
     1  C   -0.007536
     2  C    0.245885
     3  C    0.609910
     4  C   -1.020367
     5  C   -0.121278
     6  H    0.147497
     7  S   -0.521297
     8  H    0.186456
     9  C    0.501438
    10  S   -0.563352
    11  C    0.435857
    12  C    0.117686
    13  C   -0.145607
    14  H    0.170937
    15  S   -0.452600
    16  C   -0.137777
    17  C   -0.343318
    18  H    0.193179
    19  H    0.161745
    20  H    0.161033
    21  H    0.197477
    22  H    0.184032
 Sum of Mulliken charges =  -0.00000

 Dipole moment (field-independent basis, Debye):
    X=             -0.4171    Y=              0.9212    Z=              0.2598  Tot=              1.0441
 Quadrupole moment (field-independent basis, Debye-Ang):
   XX=            -86.2116   YY=            -96.9105   ZZ=           -108.2966
   XY=              2.1028   XZ=             -1.5663   YZ=             -0.6396

 Normal termination of Gaussian 16 at Tue Oct 26 01:43:05 2021.
