 Gaussian 16, Revision C.01,
 Gaussian 16:  ES64L-G16RevC.01  3-Jul-2019

 --------------------------------------
 # opt=modredundant wb97xd/6-311+g(d,p)
 --------------------------------------

 ------------
 pBTTT_75.pdb
 ------------
 Symbolic Z-matrix:
 Charge =  0 Multiplicity = 1

 SCF Done:  E(RwB97XD) =  -1618.45922238     A.U. after   18 cycles
 SCF Done:  E(RwB97XD) =  -1618.49409357     A.U. after   16 cycles
 SCF Done:  E(RwB97XD) =  -1618.50472923     A.U. after   16 cycles
 SCF Done:  E(RwB97XD) =  -1618.50719347     A.U. after   17 cycles
 SCF Done:  E(RwB97XD) =  -1618.50745746     A.U. after   15 cycles
 SCF Done:  E(RwB97XD) =  -1618.50811865     A.U. after   14 cycles
 SCF Done:  E(RwB97XD) =  -1618.50810388     A.U. after   14 cycles
 SCF Done:  E(RwB97XD) =  -1618.50812918     A.U. after   14 cycles
 SCF Done:  E(RwB97XD) =  -1618.50818615     A.U. after   13 cycles
 SCF Done:  E(RwB97XD) =  -1618.50822411     A.U. after   13 cycles
 SCF Done:  E(RwB97XD) =  -1618.50832498     A.U. after   13 cycles
 SCF Done:  E(RwB97XD) =  -1618.50763961     A.U. after   16 cycles
 SCF Done:  E(RwB97XD) =  -1618.50848498     A.U. after   13 cycles
 SCF Done:  E(RwB97XD) =  -1618.50853921     A.U. after   14 cycles
 SCF Done:  E(RwB97XD) =  -1618.50888612     A.U. after   14 cycles
 SCF Done:  E(RwB97XD) =  -1618.50892351     A.U. after   13 cycles
 SCF Done:  E(RwB97XD) =  -1618.50892673     A.U. after   12 cycles
 SCF Done:  E(RwB97XD) =  -1618.50892805     A.U. after   11 cycles
 SCF Done:  E(RwB97XD) =  -1618.50892812     A.U. after    9 cycles
 Optimization completed.
    -- Stationary point found.

                         Standard orientation:
 ---------------------------------------------------------------------
 Center     Atomic      Atomic             Coordinates (Angstroms)
 Number     Number       Type             X           Y           Z
 ---------------------------------------------------------------------
      1          6           0        3.982045    0.356620    0.442063
      2          6           0        2.623900    0.768371    0.606851
      3          6           0        1.751006   -0.113732    0.026851
      4          6           0        2.219233    2.014168    1.338251
      5          6           0        4.112455   -0.809201   -0.245871
      6          1           0        4.823881    0.913417    0.834325
      7         16           0        2.587543   -1.441210   -0.720065
      8          1           0        5.021312   -1.335490   -0.496612
      9          6           0        0.287914   -0.046835   -0.012207
     10         16           0       -0.509804    1.087462   -1.086912
     11          6           0       -2.066332    0.544881   -0.562268
     12          6           0       -1.945836   -0.461724    0.376230
     13          6           0       -0.601471   -0.804270    0.690616
     14          1           0       -0.294233   -1.559847    1.400468
     15         16           0       -3.503196   -1.004035    0.903918
     16          6           0       -4.284759    0.135079   -0.148712
     17          6           0       -3.414391    0.892951   -0.866588
     18          1           0       -5.363513    0.174843   -0.173857
     19          1           0       -3.719445    1.652698   -1.572180
     20          1           0        2.757861    2.095882    2.285826
     21          1           0        1.149109    2.018811    1.551249
     22          1           0        2.449772    2.906362    0.748432
 ---------------------------------------------------------------------

 The electronic state is 1-A.
 Alpha  occ. eigenvalues --  -89.05113 -89.04964 -89.04622 -10.33542 -10.32443
 Alpha  occ. eigenvalues --  -10.32436 -10.32390 -10.32368 -10.31708 -10.30571
 Alpha  occ. eigenvalues --  -10.30550 -10.30384 -10.29155 -10.28417  -8.09158
 Alpha  occ. eigenvalues --   -8.09005  -8.08701  -6.04006  -6.03857  -6.03633
 Alpha  occ. eigenvalues --   -6.03526  -6.03484  -6.03221  -6.03144  -6.03058
 Alpha  occ. eigenvalues --   -6.02812  -1.02206  -0.99604  -0.95282  -0.87483
 Alpha  occ. eigenvalues --   -0.87088  -0.85457  -0.81070  -0.80246  -0.77447
 Alpha  occ. eigenvalues --   -0.70518  -0.66663  -0.65814  -0.63143  -0.60959
 Alpha  occ. eigenvalues --   -0.58740  -0.58452  -0.52889  -0.52262  -0.52211
 Alpha  occ. eigenvalues --   -0.50416  -0.50220  -0.47899  -0.47495  -0.47010
 Alpha  occ. eigenvalues --   -0.46043  -0.45190  -0.44864  -0.42974  -0.42163
 Alpha  occ. eigenvalues --   -0.41971  -0.36924  -0.32829  -0.31906  -0.30892
 Alpha  occ. eigenvalues --   -0.29359
 Alpha virt. eigenvalues --    0.02078   0.04340   0.05568   0.05866   0.06584
 Alpha virt. eigenvalues --    0.06923   0.06999   0.07138   0.07983   0.08809
 Alpha virt. eigenvalues --    0.08893   0.09463   0.09565   0.09985   0.10234

 Mulliken charges:
               1
     1  C    0.053680
     2  C   -0.317671
     3  C    0.338160
     4  C   -0.923481
     5  C   -0.186841
     6  H    0.151908
     7  S   -0.223317
     8  H    0.186323
     9  C    0.772688
    10  S   -0.521206
    11  C    0.360579
    12  C   -0.494012
    13  C    0.372983
    14  H    0.168774
    15  S   -0.430394
    16  C   -0.206116
    17  C   -0.000745
    18  H    0.193509
    19  H    0.162641
    20  H    0.166619
    21  H    0.186782
    22  H    0.189138
 Sum of Mulliken charges =  -0.00000

 Dipole moment (field-independent basis, Debye):
    X=              0.2574    Y=              0.7942    Z=              0.5338  Tot=              0.9910
 Quadrupole moment (field-independent basis, Debye-Ang):
   XX=            -86.5934   YY=           -100.9983   ZZ=           -104.0534
   XY=             -1.5224   XZ=              3.5990   YZ=             -1.1977

 Normal termination of Gaussian 16 at Tue Oct 26 02:10:06 2021.
