 Gaussian 16, Revision C.01,
 Gaussian 16:  ES64L-G16RevC.01  3-Jul-2019

 --------------------------------------
 # opt=modredundant wb97xd/6-311+g(d,p)
 --------------------------------------

 -------------
 pBTTT_145.pdb
 -------------
 Symbolic Z-matrix:
 Charge =  0 Multiplicity = 1

 SCF Done:  E(RwB97XD) =  -1618.46088416     A.U. after   18 cycles
 SCF Done:  E(RwB97XD) =  -1618.49494811     A.U. after   15 cycles
 SCF Done:  E(RwB97XD) =  -1618.50492373     A.U. after   15 cycles
 SCF Done:  E(RwB97XD) =  -1618.50757936     A.U. after   15 cycles
 SCF Done:  E(RwB97XD) =  -1618.50806872     A.U. after   14 cycles
 SCF Done:  E(RwB97XD) =  -1618.50879804     A.U. after   13 cycles
 SCF Done:  E(RwB97XD) =  -1618.50887777     A.U. after   14 cycles
 SCF Done:  E(RwB97XD) =  -1618.50906449     A.U. after   13 cycles
 SCF Done:  E(RwB97XD) =  -1618.50909972     A.U. after   12 cycles
 SCF Done:  E(RwB97XD) =  -1618.50913336     A.U. after   13 cycles
 SCF Done:  E(RwB97XD) =  -1618.50914069     A.U. after   11 cycles
 SCF Done:  E(RwB97XD) =  -1618.50914340     A.U. after   11 cycles
 SCF Done:  E(RwB97XD) =  -1618.50914362     A.U. after   10 cycles
 Optimization completed.
    -- Stationary point found.

                         Standard orientation:
 ---------------------------------------------------------------------
 Center     Atomic      Atomic             Coordinates (Angstroms)
 Number     Number       Type             X           Y           Z
 ---------------------------------------------------------------------
      1          6           0       -3.936725    0.788265    0.077476
      2          6           0       -2.555305    1.102391    0.251925
      3          6           0       -1.748839    0.023725   -0.021375
      4          6           0       -2.079870    2.450204    0.709435
      5          6           0       -4.157548   -0.494369   -0.314865
      6          1           0       -4.732492    1.500781    0.255293
      7         16           0       -2.687107   -1.360975   -0.500526
      8          1           0       -5.102090   -0.981989   -0.502817
      9          6           0       -0.293791   -0.042120    0.005558
     10         16           0        0.518547   -1.508958    0.527734
     11          6           0        2.069270   -0.793177    0.251863
     12          6           0        1.938349    0.504481   -0.201210
     13          6           0        0.592275    0.935283   -0.351760
     14          1           0        0.287546    1.898447   -0.734460
     15         16           0        3.490606    1.220914   -0.475599
     16          6           0        4.283277   -0.240987    0.027240
     17          6           0        3.419194   -1.227229    0.385830
     18          1           0        5.362203   -0.282228    0.027632
     19          1           0        3.730693   -2.204862    0.725424
     20          1           0       -2.833609    2.925358    1.340924
     21          1           0       -1.894580    3.117680   -0.138553
     22          1           0       -1.152127    2.372321    1.280119
 ---------------------------------------------------------------------

 The electronic state is 1-A.
 Alpha  occ. eigenvalues --  -89.05116 -89.05017 -89.04770 -10.33826 -10.32809
 Alpha  occ. eigenvalues --  -10.32453 -10.32379 -10.32351 -10.31778 -10.30551
 Alpha  occ. eigenvalues --  -10.30513 -10.30509 -10.29301 -10.28797  -8.09162
 Alpha  occ. eigenvalues --   -8.09068  -8.08860  -6.04010  -6.03924  -6.03690
 Alpha  occ. eigenvalues --   -6.03638  -6.03552  -6.03305  -6.03224  -6.03110
 Alpha  occ. eigenvalues --   -6.02963  -1.02276  -0.99764  -0.95326  -0.88002
 Alpha  occ. eigenvalues --   -0.86818  -0.85767  -0.81098  -0.80280  -0.77740
 Alpha  occ. eigenvalues --   -0.70660  -0.66613  -0.66326  -0.63104  -0.61016
 Alpha  occ. eigenvalues --   -0.58844  -0.58533  -0.52943  -0.52478  -0.52216
 Alpha  occ. eigenvalues --   -0.50700  -0.50016  -0.48138  -0.47733  -0.47128
 Alpha  occ. eigenvalues --   -0.46218  -0.45862  -0.44399  -0.43056  -0.42693
 Alpha  occ. eigenvalues --   -0.41827  -0.37079  -0.33854  -0.32764  -0.30835
 Alpha  occ. eigenvalues --   -0.27860
 Alpha virt. eigenvalues --    0.00859   0.05053   0.05644   0.06002   0.06461
 Alpha virt. eigenvalues --    0.06847   0.07135   0.07519   0.08056   0.09049
 Alpha virt. eigenvalues --    0.09193   0.09394   0.09610   0.09879   0.10543

 Mulliken charges:
               1
     1  C   -0.043286
     2  C    0.444590
     3  C    0.476339
     4  C   -1.105864
     5  C   -0.091315
     6  H    0.149219
     7  S   -0.480346
     8  H    0.186165
     9  C    0.412319
    10  S   -0.552353
    11  C    0.510742
    12  C    0.146201
    13  C   -0.168937
    14  H    0.165111
    15  S   -0.451475
    16  C   -0.114663
    17  C   -0.370634
    18  H    0.193286
    19  H    0.162841
    20  H    0.162735
    21  H    0.188075
    22  H    0.181250
 Sum of Mulliken charges =  -0.00000

 Dipole moment (field-independent basis, Debye):
    X=             -0.2790    Y=              0.8847    Z=              0.2240  Tot=              0.9543
 Quadrupole moment (field-independent basis, Debye-Ang):
   XX=            -86.5236   YY=            -97.2850   ZZ=           -107.8697
   XY=             -5.1817   XZ=              0.9488   YZ=             -0.6970

 Normal termination of Gaussian 16 at Tue Oct 26 02:06:31 2021.
