 Gaussian 16, Revision C.01,
 Gaussian 16:  ES64L-G16RevC.01  3-Jul-2019

 --------------------------------------
 # opt=modredundant wb97xd/6-311+g(d,p)
 --------------------------------------

 -------------
 pBTTT_-60.pdb
 -------------
 Symbolic Z-matrix:
 Charge =  0 Multiplicity = 1

 SCF Done:  E(RwB97XD) =  -1618.46041094     A.U. after   18 cycles
 SCF Done:  E(RwB97XD) =  -1618.49496868     A.U. after   16 cycles
 SCF Done:  E(RwB97XD) =  -1618.50537088     A.U. after   16 cycles
 SCF Done:  E(RwB97XD) =  -1618.50760700     A.U. after   16 cycles
 SCF Done:  E(RwB97XD) =  -1618.50784003     A.U. after   15 cycles
 SCF Done:  E(RwB97XD) =  -1618.50852227     A.U. after   14 cycles
 SCF Done:  E(RwB97XD) =  -1618.50849947     A.U. after   14 cycles
 SCF Done:  E(RwB97XD) =  -1618.50864551     A.U. after   14 cycles
 SCF Done:  E(RwB97XD) =  -1618.50874900     A.U. after   12 cycles
 SCF Done:  E(RwB97XD) =  -1618.50902898     A.U. after   14 cycles
 SCF Done:  E(RwB97XD) =  -1618.50911271     A.U. after   13 cycles
 SCF Done:  E(RwB97XD) =  -1618.50915746     A.U. after   13 cycles
 SCF Done:  E(RwB97XD) =  -1618.50916158     A.U. after   12 cycles
 SCF Done:  E(RwB97XD) =  -1618.50916539     A.U. after   11 cycles
 SCF Done:  E(RwB97XD) =  -1618.50916556     A.U. after   10 cycles
 SCF Done:  E(RwB97XD) =  -1618.50916557     A.U. after   10 cycles
 SCF Done:  E(RwB97XD) =  -1618.50916559     A.U. after    8 cycles
 Optimization completed.
    -- Stationary point found.

                         Standard orientation:
 ---------------------------------------------------------------------
 Center     Atomic      Atomic             Coordinates (Angstroms)
 Number     Number       Type             X           Y           Z
 ---------------------------------------------------------------------
      1          6           0       -3.998858    0.322511    0.346475
      2          6           0       -2.656882    0.783248    0.509287
      3          6           0       -1.746942   -0.121132    0.024929
      4          6           0       -2.311549    2.093197    1.156245
      5          6           0       -4.084552   -0.899544   -0.244140
      6          1           0       -4.863258    0.886202    0.674598
      7         16           0       -2.533317   -1.524464   -0.633044
      8          1           0       -4.973541   -1.469629   -0.468637
      9          6           0       -0.287247   -0.035880    0.004241
     10         16           0        0.509286    1.274279   -0.849292
     11          6           0        2.067087    0.642823   -0.440086
     12          6           0        1.948274   -0.521285    0.294180
     13          6           0        0.605245   -0.912887    0.548859
     14          1           0        0.302057   -1.783868    1.113475
     15         16           0        3.506770   -1.151529    0.708040
     16          6           0        4.286219    0.164752   -0.114360
     17          6           0        3.414056    1.043229   -0.675883
     18          1           0        5.364900    0.208533   -0.134804
     19          1           0        3.717436    1.921658   -1.227674
     20          1           0       -2.987594    2.296327    1.990149
     21          1           0       -2.403915    2.920587    0.446108
     22          1           0       -1.289022    2.093432    1.537037
 ---------------------------------------------------------------------

 The electronic state is 1-A.
 Alpha  occ. eigenvalues --  -89.05103 -89.05011 -89.04678 -10.33636 -10.32550
 Alpha  occ. eigenvalues --  -10.32438 -10.32373 -10.32371 -10.31697 -10.30551
 Alpha  occ. eigenvalues --  -10.30524 -10.30397 -10.29188 -10.28470  -8.09148
 Alpha  occ. eigenvalues --   -8.09055  -8.08757  -6.03997  -6.03908  -6.03624
 Alpha  occ. eigenvalues --   -6.03584  -6.03536  -6.03211  -6.03201  -6.03104
 Alpha  occ. eigenvalues --   -6.02867  -1.02223  -0.99645  -0.95294  -0.87511
 Alpha  occ. eigenvalues --   -0.87144  -0.85507  -0.81077  -0.80222  -0.77518
 Alpha  occ. eigenvalues --   -0.70554  -0.66753  -0.65920  -0.62939  -0.61021
 Alpha  occ. eigenvalues --   -0.58781  -0.58466  -0.52863  -0.52281  -0.52235
 Alpha  occ. eigenvalues --   -0.50518  -0.50128  -0.47937  -0.47494  -0.47065
 Alpha  occ. eigenvalues --   -0.46165  -0.45231  -0.44881  -0.42975  -0.42269
 Alpha  occ. eigenvalues --   -0.41955  -0.36958  -0.33077  -0.32444  -0.30837
 Alpha  occ. eigenvalues --   -0.28699
 Alpha virt. eigenvalues --    0.01554   0.04829   0.05559   0.05900   0.06560
 Alpha virt. eigenvalues --    0.06811   0.07098   0.07172   0.08087   0.08741
 Alpha virt. eigenvalues --    0.09002   0.09508   0.09602   0.09834   0.10517

 Mulliken charges:
               1
     1  C    0.008757
     2  C   -0.347100
     3  C    0.405916
     4  C   -0.917656
     5  C   -0.198582
     6  H    0.151529
     7  S   -0.272459
     8  H    0.186410
     9  C    0.707873
    10  S   -0.561000
    11  C    0.348760
    12  C   -0.603150
    13  C    0.606078
    14  H    0.171335
    15  S   -0.425777
    16  C   -0.214980
    17  C    0.060927
    18  H    0.193497
    19  H    0.162319
    20  H    0.161400
    21  H    0.193879
    22  H    0.182023
 Sum of Mulliken charges =  -0.00000

 Dipole moment (field-independent basis, Debye):
    X=             -0.3001    Y=              0.8246    Z=              0.4506  Tot=              0.9864
 Quadrupole moment (field-independent basis, Debye-Ang):
   XX=            -86.5299   YY=            -99.2434   ZZ=           -105.8114
   XY=              1.9087   XZ=             -2.8963   YZ=             -1.0974

 Normal termination of Gaussian 16 at Tue Oct 26 01:54:49 2021.
