 Gaussian 16, Revision C.01,
 Gaussian 16:  ES64L-G16RevC.01  3-Jul-2019

 --------------------------------------
 # opt=modredundant wb97xd/6-311+g(d,p)
 --------------------------------------

 -------------
 pBTTT_170.pdb
 -------------
 Symbolic Z-matrix:
 Charge =  0 Multiplicity = 1

 SCF Done:  E(RwB97XD) =  -1618.46097428     A.U. after   19 cycles
 SCF Done:  E(RwB97XD) =  -1618.49417982     A.U. after   17 cycles
 SCF Done:  E(RwB97XD) =  -1618.50354427     A.U. after   14 cycles
 SCF Done:  E(RwB97XD) =  -1618.50599895     A.U. after   14 cycles
 SCF Done:  E(RwB97XD) =  -1618.50672691     A.U. after   14 cycles
 SCF Done:  E(RwB97XD) =  -1618.50677834     A.U. after   13 cycles
 SCF Done:  E(RwB97XD) =  -1618.50700497     A.U. after   13 cycles
 SCF Done:  E(RwB97XD) =  -1618.50701473     A.U. after   12 cycles
 SCF Done:  E(RwB97XD) =  -1618.50704884     A.U. after   11 cycles
 SCF Done:  E(RwB97XD) =  -1618.50705463     A.U. after   12 cycles
 SCF Done:  E(RwB97XD) =  -1618.50705920     A.U. after   11 cycles
 SCF Done:  E(RwB97XD) =  -1618.50706023     A.U. after   11 cycles
 SCF Done:  E(RwB97XD) =  -1618.50706049     A.U. after    9 cycles
 SCF Done:  E(RwB97XD) =  -1618.50706054     A.U. after    9 cycles
 Optimization completed.
    -- Stationary point found.

                         Standard orientation:
 ---------------------------------------------------------------------
 Center     Atomic      Atomic             Coordinates (Angstroms)
 Number     Number       Type             X           Y           Z
 ---------------------------------------------------------------------
      1          6           0       -3.948382    0.787698   -0.012851
      2          6           0       -2.571606    1.145790    0.088550
      3          6           0       -1.747320    0.043633    0.024666
      4          6           0       -2.129095    2.567225    0.274071
      5          6           0       -4.157280   -0.547304   -0.156748
      6          1           0       -4.750330    1.514018    0.028638
      7         16           0       -2.677829   -1.414373   -0.181643
      8          1           0       -5.095378   -1.073305   -0.246943
      9          6           0       -0.291581   -0.017755    0.042725
     10         16           0        0.513381   -1.573656    0.212865
     11          6           0        2.070815   -0.832206    0.092333
     12          6           0        1.951200    0.532825   -0.064314
     13          6           0        0.610925    1.002978   -0.100830
     14          1           0        0.336137    2.033871   -0.254992
     15         16           0        3.509773    1.277853   -0.183555
     16          6           0        4.289114   -0.266052   -0.018160
     17          6           0        3.415666   -1.298715    0.120939
     18          1           0        5.367493   -0.316751   -0.034242
     19          1           0        3.717692   -2.330050    0.235830
     20          1           0       -2.981362    3.197552    0.533510
     21          1           0       -1.685447    2.974076   -0.640648
     22          1           0       -1.388764    2.654696    1.073869
 ---------------------------------------------------------------------

 The electronic state is 1-A.
 Alpha  occ. eigenvalues --  -89.05105 -89.04984 -89.04842 -10.34093 -10.33078
 Alpha  occ. eigenvalues --  -10.32420 -10.32357 -10.32336 -10.31818 -10.30630
 Alpha  occ. eigenvalues --  -10.30552 -10.30462 -10.29369 -10.29114  -8.09151
 Alpha  occ. eigenvalues --   -8.09046  -8.08944  -6.04000  -6.03908  -6.03777
 Alpha  occ. eigenvalues --   -6.03627  -6.03533  -6.03389  -6.03213  -6.03077
 Alpha  occ. eigenvalues --   -6.03042  -1.02292  -0.99854  -0.95321  -0.88200
 Alpha  occ. eigenvalues --   -0.86809  -0.85905  -0.81072  -0.80290  -0.77973
 Alpha  occ. eigenvalues --   -0.70727  -0.66708  -0.66548  -0.62988  -0.61170
 Alpha  occ. eigenvalues --   -0.58934  -0.58563  -0.52934  -0.52671  -0.52229
 Alpha  occ. eigenvalues --   -0.50822  -0.50083  -0.48380  -0.47752  -0.47088
 Alpha  occ. eigenvalues --   -0.46621  -0.45969  -0.44178  -0.43142  -0.43032
 Alpha  occ. eigenvalues --   -0.41465  -0.37211  -0.34391  -0.32935  -0.30792
 Alpha  occ. eigenvalues --   -0.27339
 Alpha virt. eigenvalues --    0.00293   0.05128   0.05699   0.06027   0.06403
 Alpha virt. eigenvalues --    0.06674   0.07114   0.07736   0.08246   0.08900
 Alpha virt. eigenvalues --    0.09219   0.09368   0.09602   0.10304   0.10819

 Mulliken charges:
               1
     1  C    0.117161
     2  C    0.454537
     3  C    0.693739
     4  C   -1.186534
     5  C   -0.171060
     6  H    0.145459
     7  S   -0.597520
     8  H    0.185756
     9  C    0.170346
    10  S   -0.588761
    11  C    0.455138
    12  C    0.194733
    13  C    0.029213
    14  H    0.156713
    15  S   -0.456640
    16  C   -0.111450
    17  C   -0.376369
    18  H    0.193110
    19  H    0.162104
    20  H    0.166790
    21  H    0.186574
    22  H    0.176960
 Sum of Mulliken charges =  -0.00000

 Dipole moment (field-independent basis, Debye):
    X=             -0.3642    Y=              0.9049    Z=              0.0137  Tot=              0.9755
 Quadrupole moment (field-independent basis, Debye-Ang):
   XX=            -86.2274   YY=            -95.9848   ZZ=           -109.1604
   XY=             -5.4225   XZ=              0.3858   YZ=             -0.1728

 Normal termination of Gaussian 16 at Tue Oct 26 02:06:31 2021.
