 Gaussian 16, Revision C.01,
 Gaussian 16:  ES64L-G16RevC.01  3-Jul-2019

 --------------------------------------
 # opt=modredundant wb97xd/6-311+g(d,p)
 --------------------------------------

 -------------
 pBTTT_135.pdb
 -------------
 Symbolic Z-matrix:
 Charge =  0 Multiplicity = 1

 SCF Done:  E(RwB97XD) =  -1618.46078869     A.U. after   18 cycles
 SCF Done:  E(RwB97XD) =  -1618.49506743     A.U. after   15 cycles
 SCF Done:  E(RwB97XD) =  -1618.50512137     A.U. after   16 cycles
 SCF Done:  E(RwB97XD) =  -1618.50760614     A.U. after   15 cycles
 SCF Done:  E(RwB97XD) =  -1618.50804310     A.U. after   14 cycles
 SCF Done:  E(RwB97XD) =  -1618.50885014     A.U. after   14 cycles
 SCF Done:  E(RwB97XD) =  -1618.50891162     A.U. after   14 cycles
 SCF Done:  E(RwB97XD) =  -1618.50915932     A.U. after   13 cycles
 SCF Done:  E(RwB97XD) =  -1618.50934109     A.U. after   13 cycles
 SCF Done:  E(RwB97XD) =  -1618.50942747     A.U. after   13 cycles
 SCF Done:  E(RwB97XD) =  -1618.50944919     A.U. after   12 cycles
 SCF Done:  E(RwB97XD) =  -1618.50945470     A.U. after   12 cycles
 SCF Done:  E(RwB97XD) =  -1618.50945543     A.U. after   11 cycles
 SCF Done:  E(RwB97XD) =  -1618.50945558     A.U. after   10 cycles
 SCF Done:  E(RwB97XD) =  -1618.50945558     A.U. after    8 cycles
 Optimization completed.
    -- Stationary point found.

                         Standard orientation:
 ---------------------------------------------------------------------
 Center     Atomic      Atomic             Coordinates (Angstroms)
 Number     Number       Type             X           Y           Z
 ---------------------------------------------------------------------
      1          6           0       -3.931787    0.784056    0.128410
      2          6           0       -2.546170    1.079099    0.307512
      3          6           0       -1.749866    0.019233   -0.050436
      4          6           0       -2.053374    2.390296    0.845708
      5          6           0       -4.162902   -0.468454   -0.346787
      6          1           0       -4.722168    1.486168    0.362695
      7         16           0       -2.699224   -1.328071   -0.606619
      8          1           0       -5.112198   -0.937560   -0.557030
      9          6           0       -0.293967   -0.054519   -0.026631
     10         16           0        0.516605   -1.468462    0.625405
     11          6           0        2.067500   -0.770969    0.306370
     12          6           0        1.937023    0.484779   -0.253472
     13          6           0        0.590474    0.895351   -0.451650
     14          1           0        0.280839    1.825886   -0.905861
     15         16           0        3.489527    1.182354   -0.571440
     16          6           0        4.281944   -0.230246    0.056657
     17          6           0        3.417850   -1.187567    0.486314
     18          1           0        5.360962   -0.266844    0.070451
     19          1           0        3.729413   -2.133121    0.907025
     20          1           0       -2.755275    2.788721    1.581790
     21          1           0       -1.955194    3.134797    0.049085
     22          1           0       -1.077256    2.282443    1.322332
 ---------------------------------------------------------------------

 The electronic state is 1-A.
 Alpha  occ. eigenvalues --  -89.05116 -89.05015 -89.04735 -10.33730 -10.32713
 Alpha  occ. eigenvalues --  -10.32450 -10.32379 -10.32355 -10.31771 -10.30548
 Alpha  occ. eigenvalues --  -10.30517 -10.30490 -10.29270 -10.28678  -8.09161
 Alpha  occ. eigenvalues --   -8.09061  -8.08822  -6.04010  -6.03916  -6.03651
 Alpha  occ. eigenvalues --   -6.03637  -6.03543  -6.03266  -6.03224  -6.03106
 Alpha  occ. eigenvalues --   -6.02927  -1.02256  -0.99723  -0.95316  -0.87915
 Alpha  occ. eigenvalues --   -0.86828  -0.85698  -0.81095  -0.80276  -0.77653
 Alpha  occ. eigenvalues --   -0.70626  -0.66588  -0.66205  -0.63160  -0.60971
 Alpha  occ. eigenvalues --   -0.58812  -0.58511  -0.52938  -0.52430  -0.52197
 Alpha  occ. eigenvalues --   -0.50634  -0.50029  -0.48043  -0.47717  -0.47112
 Alpha  occ. eigenvalues --   -0.46099  -0.45771  -0.44487  -0.43027  -0.42542
 Alpha  occ. eigenvalues --   -0.41920  -0.37021  -0.33559  -0.32703  -0.30818
 Alpha  occ. eigenvalues --   -0.28161
 Alpha virt. eigenvalues --    0.01143   0.04924   0.05575   0.05957   0.06463
 Alpha virt. eigenvalues --    0.06913   0.07149   0.07389   0.08019   0.09062
 Alpha virt. eigenvalues --    0.09122   0.09393   0.09625   0.09800   0.10435

 Mulliken charges:
               1
     1  C   -0.001867
     2  C   -0.081619
     3  C    0.644069
     4  C   -1.052889
     5  C   -0.133639
     6  H    0.150870
     7  S   -0.408986
     8  H    0.186378
     9  C    0.465890
    10  S   -0.610295
    11  C    0.426645
    12  C   -0.215845
    13  C    0.324110
    14  H    0.164740
    15  S   -0.447521
    16  C   -0.168896
    17  C   -0.133466
    18  H    0.193475
    19  H    0.162737
    20  H    0.162206
    21  H    0.189064
    22  H    0.184837
 Sum of Mulliken charges =  -0.00000

 Dipole moment (field-independent basis, Debye):
    X=             -0.2578    Y=              0.8830    Z=              0.3210  Tot=              0.9743
 Quadrupole moment (field-independent basis, Debye-Ang):
   XX=            -86.6350   YY=            -97.9497   ZZ=           -107.1798
   XY=             -5.0044   XZ=              1.1292   YZ=             -0.8996

 Normal termination of Gaussian 16 at Tue Oct 26 02:28:40 2021.
