 Gaussian 16, Revision C.01,
 Gaussian 16:  ES64L-G16RevC.01  3-Jul-2019

 --------------------------------------
 # opt=modredundant wb97xd/6-311+g(d,p)
 --------------------------------------

 -------------
 pBTTT_-35.pdb
 -------------
 Symbolic Z-matrix:
 Charge =  0 Multiplicity = 1

 SCF Done:  E(RwB97XD) =  -1618.46175282     A.U. after   19 cycles
 SCF Done:  E(RwB97XD) =  -1618.49550623     A.U. after   15 cycles
 SCF Done:  E(RwB97XD) =  -1618.50524519     A.U. after   16 cycles
 SCF Done:  E(RwB97XD) =  -1618.50745581     A.U. after   15 cycles
 SCF Done:  E(RwB97XD) =  -1618.50769331     A.U. after   14 cycles
 SCF Done:  E(RwB97XD) =  -1618.50826661     A.U. after   14 cycles
 SCF Done:  E(RwB97XD) =  -1618.50835238     A.U. after   12 cycles
 SCF Done:  E(RwB97XD) =  -1618.50839523     A.U. after   13 cycles
 SCF Done:  E(RwB97XD) =  -1618.50843703     A.U. after   12 cycles
 SCF Done:  E(RwB97XD) =  -1618.50848489     A.U. after   13 cycles
 SCF Done:  E(RwB97XD) =  -1618.50850149     A.U. after   12 cycles
 SCF Done:  E(RwB97XD) =  -1618.50850576     A.U. after   11 cycles
 SCF Done:  E(RwB97XD) =  -1618.50850631     A.U. after   11 cycles
 SCF Done:  E(RwB97XD) =  -1618.50850651     A.U. after   10 cycles
 SCF Done:  E(RwB97XD) =  -1618.50850656     A.U. after    9 cycles
 Optimization completed.
    -- Stationary point found.

                         Standard orientation:
 ---------------------------------------------------------------------
 Center     Atomic      Atomic             Coordinates (Angstroms)
 Number     Number       Type             X           Y           Z
 ---------------------------------------------------------------------
      1          6           0       -4.018377    0.285536    0.193324
      2          6           0       -2.698943    0.817504    0.311768
      3          6           0       -1.741524   -0.127306    0.029279
      4          6           0       -2.440650    2.237568    0.729422
      5          6           0       -4.049507   -1.022736   -0.174482
      6          1           0       -4.909052    0.868699    0.391150
      7         16           0       -2.468016   -1.647545   -0.406436
      8          1           0       -4.911982   -1.655146   -0.321050
      9          6           0       -0.286706   -0.023136    0.013218
     10         16           0        0.516119    1.449132   -0.507707
     11          6           0        2.072308    0.733522   -0.267933
     12          6           0        1.951280   -0.567716    0.177597
     13          6           0        0.609426   -1.001676    0.344924
     14          1           0        0.311964   -1.976710    0.705905
     15         16           0        3.509234   -1.279426    0.430635
     16          6           0        4.290487    0.189851   -0.068687
     17          6           0        3.418856    1.175765   -0.409543
     18          1           0        5.369190    0.234534   -0.083053
     19          1           0        3.722839    2.157158   -0.745129
     20          1           0       -3.294690    2.625948    1.288006
     21          1           0       -2.289665    2.889278   -0.136601
     22          1           0       -1.555886    2.318594    1.363577
 ---------------------------------------------------------------------

 The electronic state is 1-A.
 Alpha  occ. eigenvalues --  -89.05105 -89.05078 -89.04739 -10.33863 -10.32830
 Alpha  occ. eigenvalues --  -10.32428 -10.32363 -10.32336 -10.31729 -10.30555
 Alpha  occ. eigenvalues --  -10.30503 -10.30410 -10.29261 -10.28644  -8.09155
 Alpha  occ. eigenvalues --   -8.09122  -8.08829  -6.04011  -6.03972  -6.03660
 Alpha  occ. eigenvalues --   -6.03637  -6.03598  -6.03275  -6.03198  -6.03184
 Alpha  occ. eigenvalues --   -6.02932  -1.02267  -0.99730  -0.95319  -0.87709
 Alpha  occ. eigenvalues --   -0.87179  -0.85612  -0.81085  -0.80191  -0.77708
 Alpha  occ. eigenvalues --   -0.70638  -0.66975  -0.66072  -0.62597  -0.61156
 Alpha  occ. eigenvalues --   -0.58907  -0.58523  -0.52846  -0.52418  -0.52241
 Alpha  occ. eigenvalues --   -0.50656  -0.50087  -0.48079  -0.47518  -0.47084
 Alpha  occ. eigenvalues --   -0.46425  -0.45569  -0.44743  -0.43013  -0.42468
 Alpha  occ. eigenvalues --   -0.41821  -0.37088  -0.33854  -0.32750  -0.30843
 Alpha  occ. eigenvalues --   -0.27762
 Alpha virt. eigenvalues --    0.00789   0.05313   0.05545   0.06010   0.06481
 Alpha virt. eigenvalues --    0.06674   0.07223   0.07557   0.08291   0.08719
 Alpha virt. eigenvalues --    0.09229   0.09305   0.09727   0.09933   0.10809

 Mulliken charges:
               1
     1  C   -0.032190
     2  C    0.204016
     3  C    0.617931
     4  C   -0.997290
     5  C   -0.115586
     6  H    0.148088
     7  S   -0.485742
     8  H    0.186472
     9  C    0.541716
    10  S   -0.553465
    11  C    0.474109
    12  C    0.089502
    13  C   -0.207531
    14  H    0.172341
    15  S   -0.450631
    16  C   -0.136997
    17  C   -0.351490
    18  H    0.193242
    19  H    0.161972
    20  H    0.160331
    21  H    0.197210
    22  H    0.183993
 Sum of Mulliken charges =  -0.00000

 Dipole moment (field-independent basis, Debye):
    X=             -0.3924    Y=              0.9079    Z=              0.2946  Tot=              1.0320
 Quadrupole moment (field-independent basis, Debye-Ang):
   XX=            -86.2845   YY=            -97.2072   ZZ=           -107.9629
   XY=              2.1040   XZ=             -1.7959   YZ=             -0.7315

 Normal termination of Gaussian 16 at Tue Oct 26 01:36:27 2021.
