 Gaussian 16, Revision C.01,
 Gaussian 16:  ES64L-G16RevC.01  3-Jul-2019

 --------------------------------------
 # opt=modredundant wb97xd/6-311+g(d,p)
 --------------------------------------

 --------------
 pBTTT_-115.pdb
 --------------
 Symbolic Z-matrix:
 Charge =  0 Multiplicity = 1

 SCF Done:  E(RwB97XD) =  -1618.45880657     A.U. after   18 cycles
 SCF Done:  E(RwB97XD) =  -1618.49370392     A.U. after   16 cycles
 SCF Done:  E(RwB97XD) =  -1618.50465912     A.U. after   15 cycles
 SCF Done:  E(RwB97XD) =  -1618.50702264     A.U. after   15 cycles
 SCF Done:  E(RwB97XD) =  -1618.50735601     A.U. after   15 cycles
 SCF Done:  E(RwB97XD) =  -1618.50811024     A.U. after   14 cycles
 SCF Done:  E(RwB97XD) =  -1618.50800301     A.U. after   14 cycles
 SCF Done:  E(RwB97XD) =  -1618.50824449     A.U. after   14 cycles
 SCF Done:  E(RwB97XD) =  -1618.50830844     A.U. after   13 cycles
 SCF Done:  E(RwB97XD) =  -1618.50872696     A.U. after   15 cycles
 SCF Done:  E(RwB97XD) =  -1618.50867337     A.U. after   15 cycles
 SCF Done:  E(RwB97XD) =  -1618.50912800     A.U. after   15 cycles
 SCF Done:  E(RwB97XD) =  -1618.50887976     A.U. after   15 cycles
 SCF Done:  E(RwB97XD) =  -1618.50921210     A.U. after   14 cycles
 SCF Done:  E(RwB97XD) =  -1618.50918591     A.U. after   13 cycles
 SCF Done:  E(RwB97XD) =  -1618.50922975     A.U. after   13 cycles
 SCF Done:  E(RwB97XD) =  -1618.50922884     A.U. after   12 cycles
 SCF Done:  E(RwB97XD) =  -1618.50923008     A.U. after   12 cycles
 SCF Done:  E(RwB97XD) =  -1618.50923021     A.U. after   10 cycles
 Optimization completed.
    -- Stationary point found.

                         Standard orientation:
 ---------------------------------------------------------------------
 Center     Atomic      Atomic             Coordinates (Angstroms)
 Number     Number       Type             X           Y           Z
 ---------------------------------------------------------------------
      1          6           0        3.931301    0.748254    0.198954
      2          6           0        2.543195    1.012221    0.411265
      3          6           0        1.752557    0.011223   -0.091093
      4          6           0        2.036357    2.236788    1.113969
      5          6           0        4.165723   -0.429497   -0.438295
      6          1           0        4.719521    1.415692    0.524244
      7         16           0        2.705071   -1.252221   -0.812291
      8          1           0        5.117134   -0.861877   -0.709590
      9          6           0        0.292797   -0.070196   -0.064193
     10         16           0       -0.512743   -1.330877    0.852331
     11          6           0       -2.065019   -0.697377    0.426272
     12          6           0       -1.937919    0.429266   -0.363149
     13          6           0       -0.591644    0.789047   -0.647168
     14          1           0       -0.278610    1.625897   -1.255948
     15         16           0       -3.491766    1.063850   -0.788067
     16          6           0       -4.280820   -0.199911    0.105026
     17          6           0       -3.415076   -1.064466    0.696934
     18          1           0       -5.359722   -0.226736    0.138677
     19          1           0       -3.724764   -1.911834    1.292096
     20          1           0        2.614303    2.424877    2.022337
     21          1           0        0.986218    2.128489    1.389266
     22          1           0        2.128211    3.121339    0.476220
 ---------------------------------------------------------------------

 The electronic state is 1-A.
 Alpha  occ. eigenvalues --  -89.05120 -89.04988 -89.04642 -10.33579 -10.32537
 Alpha  occ. eigenvalues --  -10.32440 -10.32379 -10.32378 -10.31754 -10.30548
 Alpha  occ. eigenvalues --  -10.30541 -10.30450 -10.29196 -10.28484  -8.09166
 Alpha  occ. eigenvalues --   -8.09028  -8.08725  -6.04014  -6.03880  -6.03641
 Alpha  occ. eigenvalues --   -6.03552  -6.03508  -6.03229  -6.03169  -6.03080
 Alpha  occ. eigenvalues --   -6.02834  -1.02221  -0.99640  -0.95294  -0.87725
 Alpha  occ. eigenvalues --   -0.86881  -0.85557  -0.81082  -0.80270  -0.77501
 Alpha  occ. eigenvalues --   -0.70555  -0.66569  -0.65943  -0.63277  -0.60913
 Alpha  occ. eigenvalues --   -0.58753  -0.58470  -0.52939  -0.52345  -0.52164
 Alpha  occ. eigenvalues --   -0.50506  -0.50116  -0.47921  -0.47611  -0.47049
 Alpha  occ. eigenvalues --   -0.45981  -0.45519  -0.44637  -0.42986  -0.42248
 Alpha  occ. eigenvalues --   -0.42026  -0.36943  -0.32945  -0.32419  -0.30772
 Alpha  occ. eigenvalues --   -0.28946
 Alpha virt. eigenvalues --    0.01793   0.04485   0.05538   0.05921   0.06496
 Alpha virt. eigenvalues --    0.06997   0.07153   0.07181   0.07937   0.08971
 Alpha virt. eigenvalues --    0.09074   0.09260   0.09558   0.09920   0.10148

 Mulliken charges:
               1
     1  C   -0.225188
     2  C    0.225617
     3  C    0.100306
     4  C   -0.766847
     5  C   -0.039915
     6  H    0.153255
     7  S   -0.315119
     8  H    0.186595
     9  C    0.185921
    10  S   -0.616873
    11  C    0.273312
    12  C   -0.441213
    13  C    0.597289
    14  H    0.162851
    15  S   -0.441245
    16  C   -0.204061
    17  C    0.267550
    18  H    0.193617
    19  H    0.162620
    20  H    0.166289
    21  H    0.190352
    22  H    0.184888
 Sum of Mulliken charges =  -0.00000

 Dipole moment (field-independent basis, Debye):
    X=              0.2196    Y=              0.8769    Z=              0.4707  Tot=              1.0192
 Quadrupole moment (field-independent basis, Debye-Ang):
   XX=            -86.7472   YY=            -99.7142   ZZ=           -105.3646
   XY=              4.5758   XZ=             -1.5776   YZ=             -1.1809

 Normal termination of Gaussian 16 at Tue Oct 26 01:32:36 2021.
