 Gaussian 16, Revision C.01,
 Gaussian 16:  ES64L-G16RevC.01  3-Jul-2019

 --------------------------------------
 # opt=modredundant wb97xd/6-311+g(d,p)
 --------------------------------------

 ------------
 pBTTT_15.pdb
 ------------
 Symbolic Z-matrix:
 Charge =  0 Multiplicity = 1

 SCF Done:  E(RwB97XD) =  -1618.46091627     A.U. after   18 cycles
 SCF Done:  E(RwB97XD) =  -1618.49421460     A.U. after   16 cycles
 SCF Done:  E(RwB97XD) =  -1618.50385247     A.U. after   16 cycles
 SCF Done:  E(RwB97XD) =  -1618.50620537     A.U. after   15 cycles
 SCF Done:  E(RwB97XD) =  -1618.50679279     A.U. after   15 cycles
 SCF Done:  E(RwB97XD) =  -1618.50718670     A.U. after   13 cycles
 SCF Done:  E(RwB97XD) =  -1618.50730033     A.U. after   13 cycles
 SCF Done:  E(RwB97XD) =  -1618.50729114     A.U. after   13 cycles
 SCF Done:  E(RwB97XD) =  -1618.50732939     A.U. after   12 cycles
 SCF Done:  E(RwB97XD) =  -1618.50734306     A.U. after   11 cycles
 SCF Done:  E(RwB97XD) =  -1618.50735119     A.U. after   10 cycles
 SCF Done:  E(RwB97XD) =  -1618.50704803     A.U. after   14 cycles
 SCF Done:  E(RwB97XD) =  -1618.50735721     A.U. after   13 cycles
 SCF Done:  E(RwB97XD) =  -1618.50735446     A.U. after   11 cycles
 SCF Done:  E(RwB97XD) =  -1618.50735894     A.U. after   12 cycles
 SCF Done:  E(RwB97XD) =  -1618.50735562     A.U. after   12 cycles
 SCF Done:  E(RwB97XD) =  -1618.50736014     A.U. after   11 cycles
 SCF Done:  E(RwB97XD) =  -1618.50736074     A.U. after   10 cycles
 SCF Done:  E(RwB97XD) =  -1618.50736073     A.U. after    8 cycles
 SCF Done:  E(RwB97XD) =  -1618.50736075     A.U. after    8 cycles
 Optimization completed.
    -- Stationary point found.

                         Standard orientation:
 ---------------------------------------------------------------------
 Center     Atomic      Atomic             Coordinates (Angstroms)
 Number     Number       Type             X           Y           Z
 ---------------------------------------------------------------------
      1          6           0        4.027786    0.272912    0.084027
      2          6           0        2.716396    0.834293    0.142279
      3          6           0        1.740373   -0.128749    0.021306
      4          6           0        2.493274    2.307894    0.331796
      5          6           0        4.039666   -1.074745   -0.084622
      6          1           0        4.927099    0.869297    0.172562
      7         16           0        2.447995   -1.707238   -0.189814
      8          1           0        4.891518   -1.734042   -0.153332
      9          6           0        0.287001   -0.016966    0.008971
     10         16           0       -0.524629    1.525634   -0.225722
     11          6           0       -2.077835    0.773534   -0.123596
     12          6           0       -1.953244   -0.585665    0.079625
     13          6           0       -0.611435   -1.039085    0.161895
     14          1           0       -0.319409   -2.065805    0.335375
     15         16           0       -3.509277   -1.336153    0.195580
     16          6           0       -4.294533    0.197284   -0.032756
     17          6           0       -3.425099    1.230685   -0.188153
     18          1           0       -5.373318    0.240976   -0.040484
     19          1           0       -3.731329    2.255800   -0.341567
     20          1           0        3.428714    2.794804    0.612933
     21          1           0        1.760183    2.510961    1.116087
     22          1           0        2.136999    2.783755   -0.586912
 ---------------------------------------------------------------------

 The electronic state is 1-A.
 Alpha  occ. eigenvalues --  -89.05161 -89.05051 -89.04771 -10.34039 -10.33055
 Alpha  occ. eigenvalues --  -10.32410 -10.32308 -10.32295 -10.31812 -10.30629
 Alpha  occ. eigenvalues --  -10.30542 -10.30335 -10.29327 -10.28809  -8.09209
 Alpha  occ. eigenvalues --   -8.09095  -8.08872  -6.04067  -6.03945  -6.03707
 Alpha  occ. eigenvalues --   -6.03691  -6.03571  -6.03319  -6.03248  -6.03156
 Alpha  occ. eigenvalues --   -6.02967  -1.02279  -0.99797  -0.95319  -0.87897
 Alpha  occ. eigenvalues --   -0.87196  -0.85668  -0.81069  -0.80194  -0.77866
 Alpha  occ. eigenvalues --   -0.70703  -0.67153  -0.66131  -0.62384  -0.61265
 Alpha  occ. eigenvalues --   -0.59035  -0.58570  -0.52843  -0.52592  -0.52257
 Alpha  occ. eigenvalues --   -0.50704  -0.50127  -0.48216  -0.47559  -0.46995
 Alpha  occ. eigenvalues --   -0.46624  -0.45862  -0.44631  -0.43142  -0.42526
 Alpha  occ. eigenvalues --   -0.41590  -0.37224  -0.34289  -0.32875  -0.30870
 Alpha  occ. eigenvalues --   -0.27286
 Alpha virt. eigenvalues --    0.00413   0.05390   0.05563   0.06036   0.06395
 Alpha virt. eigenvalues --    0.06628   0.07240   0.08083   0.08400   0.08685
 Alpha virt. eigenvalues --    0.09053   0.09337   0.09740   0.10200   0.10834

 Mulliken charges:
               1
     1  C    0.055103
     2  C    0.319884
     3  C    0.633873
     4  C   -1.058625
     5  C   -0.177482
     6  H    0.145803
     7  S   -0.613742
     8  H    0.186694
     9  C    0.433065
    10  S   -0.631254
    11  C    0.314111
    12  C    0.174672
    13  C    0.027441
    14  H    0.167039
    15  S   -0.450716
    16  C   -0.145064
    17  C   -0.280003
    18  H    0.193101
    19  H    0.160904
    20  H    0.163375
    21  H    0.183927
    22  H    0.197894
 Sum of Mulliken charges =  -0.00000

 Dipole moment (field-independent basis, Debye):
    X=              0.4951    Y=              0.9518    Z=              0.1428  Tot=              1.0824
 Quadrupole moment (field-independent basis, Debye-Ang):
   XX=            -85.9988   YY=            -96.2416   ZZ=           -109.0741
   XY=             -2.0589   XZ=              0.8179   YZ=             -0.3391

 Normal termination of Gaussian 16 at Tue Oct 26 01:59:37 2021.
