 Gaussian 16, Revision C.01,
 Gaussian 16:  ES64L-G16RevC.01  3-Jul-2019

 --------------------------------------
 # opt=modredundant wb97xd/6-311+g(d,p)
 --------------------------------------

 -------------
 pBTTT_100.pdb
 -------------
 Symbolic Z-matrix:
 Charge =  0 Multiplicity = 1

 SCF Done:  E(RwB97XD) =  -1618.45903287     A.U. after   18 cycles
 SCF Done:  E(RwB97XD) =  -1618.49395450     A.U. after   17 cycles
 SCF Done:  E(RwB97XD) =  -1618.50466127     A.U. after   17 cycles
 SCF Done:  E(RwB97XD) =  -1618.50714803     A.U. after   17 cycles
 SCF Done:  E(RwB97XD) =  -1618.50734569     A.U. after   15 cycles
 SCF Done:  E(RwB97XD) =  -1618.50797495     A.U. after   14 cycles
 SCF Done:  E(RwB97XD) =  -1618.50791781     A.U. after   14 cycles
 SCF Done:  E(RwB97XD) =  -1618.50796271     A.U. after   13 cycles
 SCF Done:  E(RwB97XD) =  -1618.50802720     A.U. after   13 cycles
 SCF Done:  E(RwB97XD) =  -1618.50804663     A.U. after   12 cycles
 SCF Done:  E(RwB97XD) =  -1618.46811224     A.U. after   16 cycles
 SCF Done:  E(RwB97XD) =  -1618.50851653     A.U. after   15 cycles
 SCF Done:  E(RwB97XD) =  -1618.49949785     A.U. after   17 cycles
 SCF Done:  E(RwB97XD) =  -1618.50874194     A.U. after   14 cycles
 SCF Done:  E(RwB97XD) =  -1618.50740570     A.U. after   16 cycles
 SCF Done:  E(RwB97XD) =  -1618.50888620     A.U. after   13 cycles
 SCF Done:  E(RwB97XD) =  -1618.50889550     A.U. after   13 cycles
 SCF Done:  E(RwB97XD) =  -1618.50890140     A.U. after   12 cycles
 SCF Done:  E(RwB97XD) =  -1618.50890235     A.U. after   11 cycles
 SCF Done:  E(RwB97XD) =  -1618.50890239     A.U. after   10 cycles
 Optimization completed.
    -- Stationary point found.

                         Standard orientation:
 ---------------------------------------------------------------------
 Center     Atomic      Atomic             Coordinates (Angstroms)
 Number     Number       Type             X           Y           Z
 ---------------------------------------------------------------------
      1          6           0       -3.943234    0.698498    0.195271
      2          6           0       -2.560036    0.963480    0.437881
      3          6           0       -1.753920   -0.000033   -0.107952
      4          6           0       -2.067689    2.153328    1.206567
      5          6           0       -4.156982   -0.444032   -0.509927
      6          1           0       -4.742169    1.341409    0.543034
      7         16           0       -2.683536   -1.232186   -0.907856
      8          1           0       -5.100473   -0.867284   -0.820694
      9          6           0       -0.290900   -0.069615   -0.064114
     10         16           0        0.510645   -1.117130    1.092293
     11          6           0        2.064609   -0.585872    0.549485
     12          6           0        1.940755    0.350749   -0.458565
     13          6           0        0.595107    0.647269   -0.811928
     14          1           0        0.283209    1.346254   -1.575572
     15         16           0        3.496235    0.884913   -1.000154
     16          6           0        4.281584   -0.163403    0.140457
     17          6           0        3.413891   -0.885842    0.896931
     18          1           0        5.360373   -0.181839    0.182927
     19          1           0        3.721516   -1.589598    1.657347
     20          1           0       -2.533671    2.194225    2.194886
     21          1           0       -2.316033    3.082872    0.686041
     22          1           0       -0.985376    2.117258    1.338861
 ---------------------------------------------------------------------

 The electronic state is 1-A.
 Alpha  occ. eigenvalues --  -89.05124 -89.04963 -89.04594 -10.33516 -10.32443
 Alpha  occ. eigenvalues --  -10.32441 -10.32396 -10.32373 -10.31737 -10.30569
 Alpha  occ. eigenvalues --  -10.30552 -10.30419 -10.29154 -10.28411  -8.09169
 Alpha  occ. eigenvalues --   -8.09002  -8.08674  -6.04017  -6.03853  -6.03644
 Alpha  occ. eigenvalues --   -6.03500  -6.03481  -6.03232  -6.03118  -6.03057
 Alpha  occ. eigenvalues --   -6.02785  -1.02206  -0.99598  -0.95283  -0.87600
 Alpha  occ. eigenvalues --   -0.86949  -0.85476  -0.81074  -0.80268  -0.77435
 Alpha  occ. eigenvalues --   -0.70517  -0.66584  -0.65799  -0.63315  -0.60906
 Alpha  occ. eigenvalues --   -0.58726  -0.58455  -0.52933  -0.52302  -0.52162
 Alpha  occ. eigenvalues --   -0.50406  -0.50221  -0.47891  -0.47538  -0.46999
 Alpha  occ. eigenvalues --   -0.45958  -0.45352  -0.44728  -0.42976  -0.42112
 Alpha  occ. eigenvalues --   -0.42041  -0.36920  -0.32783  -0.31849  -0.30814
 Alpha  occ. eigenvalues --   -0.29548
 Alpha virt. eigenvalues --    0.02243   0.04125   0.05541   0.05881   0.06538
 Alpha virt. eigenvalues --    0.07007   0.07077   0.07147   0.07896   0.08869
 Alpha virt. eigenvalues --    0.09030   0.09273   0.09530   0.09940   0.10181

 Mulliken charges:
               1
     1  C   -0.102657
     2  C    0.030513
     3  C    0.207969
     4  C   -0.762400
     5  C   -0.099009
     6  H    0.153143
     7  S   -0.280086
     8  H    0.186266
     9  C    0.189053
    10  S   -0.585108
    11  C    0.243260
    12  C   -0.544271
    13  C    0.619426
    14  H    0.164968
    15  S   -0.440405
    16  C   -0.215577
    17  C    0.329284
    18  H    0.193508
    19  H    0.162743
    20  H    0.174324
    21  H    0.179407
    22  H    0.195646
 Sum of Mulliken charges =  -0.00000

 Dipole moment (field-independent basis, Debye):
    X=             -0.2087    Y=              0.8731    Z=              0.5078  Tot=              1.0314
 Quadrupole moment (field-independent basis, Debye-Ang):
   XX=            -86.7251   YY=           -101.5065   ZZ=           -103.5614
   XY=             -4.0490   XZ=              2.0977   YZ=             -1.2333

 Normal termination of Gaussian 16 at Tue Oct 26 02:47:39 2021.
