 Gaussian 16, Revision C.01,
 Gaussian 16:  ES64L-G16RevC.01  3-Jul-2019

 --------------------------------------
 # opt=modredundant wb97xd/6-311+g(d,p)
 --------------------------------------

 -------------
 pBTTT_140.pdb
 -------------
 Symbolic Z-matrix:
 Charge =  0 Multiplicity = 1

 SCF Done:  E(RwB97XD) =  -1618.46082571     A.U. after   18 cycles
 SCF Done:  E(RwB97XD) =  -1618.49502620     A.U. after   15 cycles
 SCF Done:  E(RwB97XD) =  -1618.50503448     A.U. after   15 cycles
 SCF Done:  E(RwB97XD) =  -1618.50761269     A.U. after   15 cycles
 SCF Done:  E(RwB97XD) =  -1618.50809316     A.U. after   14 cycles
 SCF Done:  E(RwB97XD) =  -1618.50889832     A.U. after   14 cycles
 SCF Done:  E(RwB97XD) =  -1618.50895713     A.U. after   14 cycles
 SCF Done:  E(RwB97XD) =  -1618.50916657     A.U. after   13 cycles
 SCF Done:  E(RwB97XD) =  -1618.50930187     A.U. after   14 cycles
 SCF Done:  E(RwB97XD) =  -1618.50935157     A.U. after   13 cycles
 SCF Done:  E(RwB97XD) =  -1618.50936382     A.U. after   12 cycles
 SCF Done:  E(RwB97XD) =  -1618.50936727     A.U. after   12 cycles
 SCF Done:  E(RwB97XD) =  -1618.50936768     A.U. after   11 cycles
 SCF Done:  E(RwB97XD) =  -1618.50936777     A.U. after   10 cycles
 SCF Done:  E(RwB97XD) =  -1618.50936777     A.U. after    9 cycles
 Optimization completed.
    -- Stationary point found.

                         Standard orientation:
 ---------------------------------------------------------------------
 Center     Atomic      Atomic             Coordinates (Angstroms)
 Number     Number       Type             X           Y           Z
 ---------------------------------------------------------------------
      1          6           0       -3.933867    0.787871    0.103688
      2          6           0       -2.550017    1.091580    0.279905
      3          6           0       -1.749420    0.020982   -0.036134
      4          6           0       -2.064134    2.420702    0.778957
      5          6           0       -4.160677   -0.480125   -0.330612
      6          1           0       -4.726482    1.496096    0.310390
      7         16           0       -2.694139   -1.344898   -0.554244
      8          1           0       -5.107911   -0.958150   -0.529588
      9          6           0       -0.294078   -0.048733   -0.010930
     10         16           0        0.517776   -1.490490    0.576496
     11          6           0        2.068413   -0.782925    0.279170
     12          6           0        1.937309    0.494924   -0.227553
     13          6           0        0.590854    0.915674   -0.402603
     14          1           0        0.283340    1.862730   -0.822267
     15         16           0        3.489500    1.202842   -0.523490
     16          6           0        4.282494   -0.235669    0.042134
     17          6           0        3.418673   -1.208500    0.436159
     18          1           0        5.361491   -0.274470    0.049345
     19          1           0        3.730511   -2.170982    0.816314
     20          1           0       -2.787669    2.855535    1.472045
     21          1           0       -1.930330    3.130468   -0.043903
     22          1           0       -1.106426    2.324827    1.294367
 ---------------------------------------------------------------------

 The electronic state is 1-A.
 Alpha  occ. eigenvalues --  -89.05116 -89.05018 -89.04754 -10.33778 -10.32759
 Alpha  occ. eigenvalues --  -10.32452 -10.32380 -10.32352 -10.31777 -10.30549
 Alpha  occ. eigenvalues --  -10.30514 -10.30499 -10.29287 -10.28729  -8.09161
 Alpha  occ. eigenvalues --   -8.09066  -8.08842  -6.04010  -6.03921  -6.03672
 Alpha  occ. eigenvalues --   -6.03637  -6.03549  -6.03287  -6.03224  -6.03110
 Alpha  occ. eigenvalues --   -6.02946  -1.02266  -0.99743  -0.95321  -0.87961
 Alpha  occ. eigenvalues --   -0.86821  -0.85733  -0.81097  -0.80278  -0.77693
 Alpha  occ. eigenvalues --   -0.70644  -0.66599  -0.66266  -0.63131  -0.60992
 Alpha  occ. eigenvalues --   -0.58825  -0.58523  -0.52941  -0.52452  -0.52211
 Alpha  occ. eigenvalues --   -0.50666  -0.50018  -0.48088  -0.47727  -0.47120
 Alpha  occ. eigenvalues --   -0.46151  -0.45819  -0.44442  -0.43041  -0.42618
 Alpha  occ. eigenvalues --   -0.41878  -0.37049  -0.33712  -0.32733  -0.30828
 Alpha  occ. eigenvalues --   -0.28005
 Alpha virt. eigenvalues --    0.00999   0.04998   0.05590   0.05961   0.06453
 Alpha virt. eigenvalues --    0.06882   0.07140   0.07452   0.08029   0.09058
 Alpha virt. eigenvalues --    0.09138   0.09384   0.09618   0.09827   0.10488

 Mulliken charges:
               1
     1  C    0.017609
     2  C   -0.050829
     3  C    0.616101
     4  C   -1.073197
     5  C   -0.134009
     6  H    0.150628
     7  S   -0.428950
     8  H    0.186332
     9  C    0.475556
    10  S   -0.617441
    11  C    0.448529
    12  C   -0.222495
    13  C    0.354375
    14  H    0.165333
    15  S   -0.448438
    16  C   -0.163708
    17  C   -0.166886
    18  H    0.193425
    19  H    0.162759
    20  H    0.162550
    21  H    0.188935
    22  H    0.183819
 Sum of Mulliken charges =  -0.00000

 Dipole moment (field-independent basis, Debye):
    X=             -0.2687    Y=              0.8828    Z=              0.2732  Tot=              0.9624
 Quadrupole moment (field-independent basis, Debye-Ang):
   XX=            -86.5806   YY=            -97.6100   ZZ=           -107.5353
   XY=             -5.0945   XZ=              1.0377   YZ=             -0.8060

 Normal termination of Gaussian 16 at Tue Oct 26 02:10:57 2021.
