 Gaussian 16, Revision C.01,
 Gaussian 16:  ES64L-G16RevC.01  3-Jul-2019

 --------------------------------------
 # opt=modredundant wb97xd/6-311+g(d,p)
 --------------------------------------

 ------------
 pBTTT_-5.pdb
 ------------
 Symbolic Z-matrix:
 Charge =  0 Multiplicity = 1

 SCF Done:  E(RwB97XD) =  -1618.46161492     A.U. after   18 cycles
 SCF Done:  E(RwB97XD) =  -1618.49471067     A.U. after   16 cycles
 SCF Done:  E(RwB97XD) =  -1618.50389902     A.U. after   16 cycles
 SCF Done:  E(RwB97XD) =  -1618.50613134     A.U. after   14 cycles
 SCF Done:  E(RwB97XD) =  -1618.50661468     A.U. after   14 cycles
 SCF Done:  E(RwB97XD) =  -1618.50687101     A.U. after   13 cycles
 SCF Done:  E(RwB97XD) =  -1618.50697042     A.U. after   12 cycles
 SCF Done:  E(RwB97XD) =  -1618.50695371     A.U. after   12 cycles
 SCF Done:  E(RwB97XD) =  -1618.50698676     A.U. after   12 cycles
 SCF Done:  E(RwB97XD) =  -1618.50698990     A.U. after   11 cycles
 SCF Done:  E(RwB97XD) =  -1618.50699049     A.U. after   10 cycles
 SCF Done:  E(RwB97XD) =  -1618.50699073     A.U. after    9 cycles
 SCF Done:  E(RwB97XD) =  -1618.50699086     A.U. after   10 cycles
 SCF Done:  E(RwB97XD) =  -1618.50699094     A.U. after    9 cycles
 SCF Done:  E(RwB97XD) =  -1618.50699096     A.U. after    8 cycles
 Optimization completed.
    -- Stationary point found.

                         Standard orientation:
 ---------------------------------------------------------------------
 Center     Atomic      Atomic             Coordinates (Angstroms)
 Number     Number       Type             X           Y           Z
 ---------------------------------------------------------------------
      1          6           0       -4.029521    0.274182    0.028013
      2          6           0       -2.718434    0.839089    0.048055
      3          6           0       -1.740501   -0.129523    0.007898
      4          6           0       -2.498028    2.323669    0.111902
      5          6           0       -4.040390   -1.082409   -0.029118
      6          1           0       -4.929164    0.875799    0.057632
      7         16           0       -2.447885   -1.721062   -0.064491
      8          1           0       -4.891278   -1.746029   -0.052671
      9          6           0       -0.287308   -0.016863    0.003603
     10         16           0        0.526755    1.541495   -0.075657
     11          6           0        2.079212    0.782164   -0.041621
     12          6           0        1.953739   -0.590084    0.027096
     13          6           0        0.611920   -1.048831    0.055564
     14          1           0        0.321861   -2.088939    0.115201
     15         16           0        3.509494   -1.349426    0.065828
     16          6           0        4.295594    0.198693   -0.011705
     17          6           0        3.426612    1.242782   -0.063912
     18          1           0        5.374399    0.242389   -0.014709
     19          1           0        3.733327    2.277865   -0.115876
     20          1           0       -3.454543    2.840248    0.206713
     21          1           0       -2.006074    2.699278   -0.790095
     22          1           0       -1.879729    2.606047    0.968279
 ---------------------------------------------------------------------

 The electronic state is 1-A.
 Alpha  occ. eigenvalues --  -89.05172 -89.05040 -89.04787 -10.34089 -10.33118
 Alpha  occ. eigenvalues --  -10.32407 -10.32282 -10.32280 -10.31847 -10.30670
 Alpha  occ. eigenvalues --  -10.30535 -10.30319 -10.29351 -10.28859  -8.09219
 Alpha  occ. eigenvalues --   -8.09084  -8.08891  -6.04078  -6.03934  -6.03728
 Alpha  occ. eigenvalues --   -6.03702  -6.03560  -6.03339  -6.03257  -6.03144
 Alpha  occ. eigenvalues --   -6.02984  -1.02278  -0.99820  -0.95315  -0.87956
 Alpha  occ. eigenvalues --   -0.87200  -0.85683  -0.81061  -0.80203  -0.77913
 Alpha  occ. eigenvalues --   -0.70723  -0.67204  -0.66143  -0.62328  -0.61301
 Alpha  occ. eigenvalues --   -0.59078  -0.58584  -0.52832  -0.52663  -0.52267
 Alpha  occ. eigenvalues --   -0.50706  -0.50146  -0.48257  -0.47578  -0.46949
 Alpha  occ. eigenvalues --   -0.46697  -0.45943  -0.44601  -0.43202  -0.42526
 Alpha  occ. eigenvalues --   -0.41500  -0.37265  -0.34390  -0.32918  -0.30882
 Alpha  occ. eigenvalues --   -0.27172
 Alpha virt. eigenvalues --    0.00325   0.05390   0.05573   0.06036   0.06349
 Alpha virt. eigenvalues --    0.06611   0.07225   0.08321   0.08400   0.08662
 Alpha virt. eigenvalues --    0.08947   0.09362   0.09714   0.10332   0.10818

 Mulliken charges:
               1
     1  C    0.041341
     2  C    0.285827
     3  C    0.721954
     4  C   -1.038892
     5  C   -0.236839
     6  H    0.145191
     7  S   -0.644458
     8  H    0.187444
     9  C    0.497481
    10  S   -0.705060
    11  C    0.244660
    12  C    0.134200
    13  C    0.124074
    14  H    0.166447
    15  S   -0.445449
    16  C   -0.154203
    17  C   -0.221992
    18  H    0.193177
    19  H    0.160323
    20  H    0.164599
    21  H    0.193267
    22  H    0.186905
 Sum of Mulliken charges =  -0.00000

 Dipole moment (field-independent basis, Debye):
    X=             -0.5288    Y=              0.9597    Z=              0.0486  Tot=              1.0968
 Quadrupole moment (field-independent basis, Debye-Ang):
   XX=            -85.9367   YY=            -96.0189   ZZ=           -109.3477
   XY=              2.0349   XZ=             -0.2763   YZ=             -0.1171

 Normal termination of Gaussian 16 at Tue Oct 26 01:39:55 2021.
