 Gaussian 16, Revision C.01,
 Gaussian 16:  ES64L-G16RevC.01  3-Jul-2019

 --------------------------------------
 # opt=modredundant wb97xd/6-311+g(d,p)
 --------------------------------------

 -------------
 pBTTT_165.pdb
 -------------
 Symbolic Z-matrix:
 Charge =  0 Multiplicity = 1

 SCF Done:  E(RwB97XD) =  -1618.46111903     A.U. after   19 cycles
 SCF Done:  E(RwB97XD) =  -1618.49436711     A.U. after   18 cycles
 SCF Done:  E(RwB97XD) =  -1618.50390855     A.U. after   14 cycles
 SCF Done:  E(RwB97XD) =  -1618.50640634     A.U. after   14 cycles
 SCF Done:  E(RwB97XD) =  -1618.50714517     A.U. after   14 cycles
 SCF Done:  E(RwB97XD) =  -1618.50723630     A.U. after   13 cycles
 SCF Done:  E(RwB97XD) =  -1618.50745265     A.U. after   12 cycles
 SCF Done:  E(RwB97XD) =  -1618.50746725     A.U. after   13 cycles
 SCF Done:  E(RwB97XD) =  -1618.50751277     A.U. after   12 cycles
 SCF Done:  E(RwB97XD) =  -1618.50752228     A.U. after   12 cycles
 SCF Done:  E(RwB97XD) =  -1618.50752720     A.U. after   11 cycles
 SCF Done:  E(RwB97XD) =  -1618.50752904     A.U. after   10 cycles
 SCF Done:  E(RwB97XD) =  -1618.50752975     A.U. after   10 cycles
 Optimization completed.
    -- Stationary point found.

                         Standard orientation:
 ---------------------------------------------------------------------
 Center     Atomic      Atomic             Coordinates (Angstroms)
 Number     Number       Type             X           Y           Z
 ---------------------------------------------------------------------
      1          6           0       -3.945590    0.788988   -0.005861
      2          6           0       -2.569170    1.138641    0.127111
      3          6           0       -1.747605    0.038221    0.024845
      4          6           0       -2.121959    2.547422    0.384991
      5          6           0       -4.154914   -0.538189   -0.209982
      6          1           0       -4.747015    1.514084    0.060274
      7         16           0       -2.676759   -1.407281   -0.258253
      8          1           0       -5.093369   -1.057319   -0.331386
      9          6           0       -0.292310   -0.022031    0.048680
     10         16           0        0.516042   -1.564893    0.295433
     11          6           0        2.070927   -0.825973    0.130949
     12          6           0        1.947210    0.529463   -0.094097
     13          6           0        0.605210    0.992720   -0.151309
     14          1           0        0.321916    2.011159   -0.365089
     15         16           0        3.503297    1.271118   -0.257566
     16          6           0        4.287341   -0.260463   -0.017112
     17          6           0        3.417293   -1.286823    0.178046
     18          1           0        5.365784   -0.309283   -0.034816
     19          1           0        3.722614   -2.310170    0.344270
     20          1           0       -2.957067    3.149156    0.748173
     21          1           0       -1.746238    3.024187   -0.526552
     22          1           0       -1.326495    2.583237    1.133724
 ---------------------------------------------------------------------

 The electronic state is 1-A.
 Alpha  occ. eigenvalues --  -89.05110 -89.04994 -89.04828 -10.34041 -10.33024
 Alpha  occ. eigenvalues --  -10.32430 -10.32365 -10.32340 -10.31807 -10.30600
 Alpha  occ. eigenvalues --  -10.30553 -10.30472 -10.29356 -10.29053  -8.09155
 Alpha  occ. eigenvalues --   -8.09054  -8.08927  -6.04004  -6.03914  -6.03760
 Alpha  occ. eigenvalues --   -6.03631  -6.03540  -6.03372  -6.03218  -6.03087
 Alpha  occ. eigenvalues --   -6.03026  -1.02293  -0.99837  -0.95325  -0.88166
 Alpha  occ. eigenvalues --   -0.86809  -0.85882  -0.81081  -0.80288  -0.77928
 Alpha  occ. eigenvalues --   -0.70716  -0.66685  -0.66515  -0.63005  -0.61138
 Alpha  occ. eigenvalues --   -0.58915  -0.58561  -0.52951  -0.52614  -0.52234
 Alpha  occ. eigenvalues --   -0.50805  -0.50058  -0.48337  -0.47741  -0.47103
 Alpha  occ. eigenvalues --   -0.46547  -0.45957  -0.44216  -0.43126  -0.42971
 Alpha  occ. eigenvalues --   -0.41545  -0.37189  -0.34309  -0.32896  -0.30809
 Alpha  occ. eigenvalues --   -0.27416
 Alpha virt. eigenvalues --    0.00385   0.05134   0.05697   0.06017   0.06419
 Alpha virt. eigenvalues --    0.06705   0.07120   0.07721   0.08177   0.08941
 Alpha virt. eigenvalues --    0.09209   0.09380   0.09609   0.10184   0.10766

 Mulliken charges:
               1
     1  C    0.089215
     2  C    0.501694
     3  C    0.577783
     4  C   -1.182198
     5  C   -0.130772
     6  H    0.146436
     7  S   -0.571238
     8  H    0.185799
     9  C    0.226724
    10  S   -0.567542
    11  C    0.491058
    12  C    0.185624
    13  C   -0.021693
    14  H    0.158742
    15  S   -0.456607
    16  C   -0.108299
    17  C   -0.411123
    18  H    0.193109
    19  H    0.162366
    20  H    0.165969
    21  H    0.187643
    22  H    0.177310
 Sum of Mulliken charges =  -0.00000

 Dipole moment (field-independent basis, Debye):
    X=             -0.3450    Y=              0.8998    Z=              0.0422  Tot=              0.9646
 Quadrupole moment (field-independent basis, Debye-Ang):
   XX=            -86.2779   YY=            -96.2040   ZZ=           -108.9502
   XY=             -5.4078   XZ=              0.5359   YZ=             -0.2713

 Normal termination of Gaussian 16 at Tue Oct 26 02:05:57 2021.
