 Gaussian 16, Revision C.01,
 Gaussian 16:  ES64L-G16RevC.01  3-Jul-2019

 --------------------------------------
 # opt=modredundant wb97xd/6-311+g(d,p)
 --------------------------------------

 -------------
 pBTTT_105.pdb
 -------------
 Symbolic Z-matrix:
 Charge =  0 Multiplicity = 1

 SCF Done:  E(RwB97XD) =  -1618.45911161     A.U. after   18 cycles
 SCF Done:  E(RwB97XD) =  -1618.49404752     A.U. after   16 cycles
 SCF Done:  E(RwB97XD) =  -1618.50474678     A.U. after   17 cycles
 SCF Done:  E(RwB97XD) =  -1618.50718903     A.U. after   17 cycles
 SCF Done:  E(RwB97XD) =  -1618.50734455     A.U. after   15 cycles
 SCF Done:  E(RwB97XD) =  -1618.50802897     A.U. after   14 cycles
 SCF Done:  E(RwB97XD) =  -1618.50794450     A.U. after   14 cycles
 SCF Done:  E(RwB97XD) =  -1618.50807485     A.U. after   14 cycles
 SCF Done:  E(RwB97XD) =  -1618.50814232     A.U. after   13 cycles
 SCF Done:  E(RwB97XD) =  -1618.50822375     A.U. after   13 cycles
 SCF Done:  E(RwB97XD) =  -1618.50800313     A.U. after   14 cycles
 SCF Done:  E(RwB97XD) =  -1618.50569146     A.U. after   15 cycles
 SCF Done:  E(RwB97XD) =  -1618.50876299     A.U. after   15 cycles
 SCF Done:  E(RwB97XD) =  -1618.50508807     A.U. after   17 cycles
 SCF Done:  E(RwB97XD) =  -1618.50897416     A.U. after   13 cycles
 SCF Done:  E(RwB97XD) =  -1618.50898708     A.U. after   12 cycles
 SCF Done:  E(RwB97XD) =  -1618.50899449     A.U. after   12 cycles
 SCF Done:  E(RwB97XD) =  -1618.50899583     A.U. after   11 cycles
 SCF Done:  E(RwB97XD) =  -1618.50899584     A.U. after   10 cycles
 SCF Done:  E(RwB97XD) =  -1618.50899584     A.U. after    8 cycles
 Optimization completed.
    -- Stationary point found.

                         Standard orientation:
 ---------------------------------------------------------------------
 Center     Atomic      Atomic             Coordinates (Angstroms)
 Number     Number       Type             X           Y           Z
 ---------------------------------------------------------------------
      1          6           0       -3.938966    0.714227    0.205354
      2          6           0       -2.553950    0.974093    0.442973
      3          6           0       -1.753655    0.004650   -0.101690
      4          6           0       -2.056012    2.163448    1.209013
      5          6           0       -4.160194   -0.430257   -0.494255
      6          1           0       -4.733979    1.361146    0.554673
      7         16           0       -2.691497   -1.226048   -0.894528
      8          1           0       -5.106573   -0.851554   -0.798773
      9          6           0       -0.291512   -0.069770   -0.064730
     10         16           0        0.511956   -1.207969    1.001118
     11          6           0        2.064991   -0.632608    0.502259
     12          6           0        1.939510    0.385155   -0.423555
     13          6           0        0.593401    0.708410   -0.750354
     14          1           0        0.280374    1.466534   -1.454817
     15         16           0        3.494156    0.962267   -0.921655
     16          6           0        4.281345   -0.177644    0.126140
     17          6           0        3.414758   -0.960990    0.820735
     18          1           0        5.360196   -0.199497    0.165126
     19          1           0        3.723521   -1.726009    1.518985
     20          1           0       -2.559854    2.236847    2.176510
     21          1           0       -2.254449    3.090432    0.662845
     22          1           0       -0.981386    2.097812    1.385156
 ---------------------------------------------------------------------

 The electronic state is 1-A.
 Alpha  occ. eigenvalues --  -89.05123 -89.04970 -89.04605 -10.33531 -10.32468
 Alpha  occ. eigenvalues --  -10.32441 -10.32391 -10.32375 -10.31743 -10.30560
 Alpha  occ. eigenvalues --  -10.30550 -10.30428 -10.29165 -10.28427  -8.09168
 Alpha  occ. eigenvalues --   -8.09010  -8.08686  -6.04016  -6.03860  -6.03643
 Alpha  occ. eigenvalues --   -6.03511  -6.03488  -6.03231  -6.03130  -6.03063
 Alpha  occ. eigenvalues --   -6.02796  -1.02210  -0.99608  -0.95286  -0.87637
 Alpha  occ. eigenvalues --   -0.86925  -0.85498  -0.81077  -0.80268  -0.77451
 Alpha  occ. eigenvalues --   -0.70527  -0.66577  -0.65836  -0.63312  -0.60904
 Alpha  occ. eigenvalues --   -0.58733  -0.58458  -0.52936  -0.52312  -0.52161
 Alpha  occ. eigenvalues --   -0.50441  -0.50184  -0.47897  -0.47556  -0.47013
 Alpha  occ. eigenvalues --   -0.45961  -0.45402  -0.44698  -0.42977  -0.42140
 Alpha  occ. eigenvalues --   -0.42047  -0.36924  -0.32810  -0.32048  -0.30785
 Alpha  occ. eigenvalues --   -0.29374
 Alpha virt. eigenvalues --    0.02117   0.04231   0.05542   0.05893   0.06526
 Alpha virt. eigenvalues --    0.07018   0.07087   0.07160   0.07905   0.08898
 Alpha virt. eigenvalues --    0.09063   0.09257   0.09537   0.09956   0.10130

 Mulliken charges:
               1
     1  C   -0.139762
     2  C    0.091628
     3  C    0.163419
     4  C   -0.760995
     5  C   -0.077919
     6  H    0.153215
     7  S   -0.291552
     8  H    0.186383
     9  C    0.178396
    10  S   -0.596750
    11  C    0.255658
    12  C   -0.519566
    13  C    0.629628
    14  H    0.163989
    15  S   -0.440290
    16  C   -0.212544
    17  C    0.313933
    18  H    0.193547
    19  H    0.162725
    20  H    0.171641
    21  H    0.181188
    22  H    0.194028
 Sum of Mulliken charges =  -0.00000

 Dipole moment (field-independent basis, Debye):
    X=             -0.2106    Y=              0.8686    Z=              0.5083  Tot=              1.0282
 Quadrupole moment (field-independent basis, Debye-Ang):
   XX=            -86.7317   YY=           -100.8735   ZZ=           -104.1964
   XY=             -4.2720   XZ=              1.8827   YZ=             -1.2360

 Normal termination of Gaussian 16 at Tue Oct 26 02:27:05 2021.
