 Gaussian 16, Revision C.01,
 Gaussian 16:  ES64L-G16RevC.01  3-Jul-2019

 --------------------------------------
 # opt=modredundant wb97xd/6-311+g(d,p)
 --------------------------------------

 -------------
 pBTTT_115.pdb
 -------------
 Symbolic Z-matrix:
 Charge =  0 Multiplicity = 1

 SCF Done:  E(RwB97XD) =  -1618.45954728     A.U. after   18 cycles
 SCF Done:  E(RwB97XD) =  -1618.49438510     A.U. after   16 cycles
 SCF Done:  E(RwB97XD) =  -1618.50495151     A.U. after   17 cycles
 SCF Done:  E(RwB97XD) =  -1618.50734089     A.U. after   16 cycles
 SCF Done:  E(RwB97XD) =  -1618.50751423     A.U. after   15 cycles
 SCF Done:  E(RwB97XD) =  -1618.50824961     A.U. after   15 cycles
 SCF Done:  E(RwB97XD) =  -1618.50819235     A.U. after   14 cycles
 SCF Done:  E(RwB97XD) =  -1618.50836473     A.U. after   13 cycles
 SCF Done:  E(RwB97XD) =  -1618.50847299     A.U. after   13 cycles
 SCF Done:  E(RwB97XD) =  -1618.50888866     A.U. after   14 cycles
 SCF Done:  E(RwB97XD) =  -1618.50892055     A.U. after   15 cycles
 SCF Done:  E(RwB97XD) =  -1618.50917073     A.U. after   14 cycles
 SCF Done:  E(RwB97XD) =  -1618.50920806     A.U. after   13 cycles
 SCF Done:  E(RwB97XD) =  -1618.50922941     A.U. after   13 cycles
 SCF Done:  E(RwB97XD) =  -1618.50923021     A.U. after   11 cycles
 SCF Done:  E(RwB97XD) =  -1618.50923021     A.U. after   10 cycles
 SCF Done:  E(RwB97XD) =  -1618.50923028     A.U. after   10 cycles
 SCF Done:  E(RwB97XD) =  -1618.50923028     A.U. after    8 cycles
 Optimization completed.
    -- Stationary point found.

                         Standard orientation:
 ---------------------------------------------------------------------
 Center     Atomic      Atomic             Coordinates (Angstroms)
 Number     Number       Type             X           Y           Z
 ---------------------------------------------------------------------
      1          6           0       -3.931344    0.748159    0.198945
      2          6           0       -2.543235    1.012252    0.411181
      3          6           0       -1.752546    0.011266   -0.091106
      4          6           0       -2.036490    2.236840    1.113924
      5          6           0       -4.165688   -0.429570   -0.438358
      6          1           0       -4.719607    1.415493    0.524346
      7         16           0       -2.704991   -1.252256   -0.812300
      8          1           0       -5.117081   -0.862036   -0.709581
      9          6           0       -0.292784   -0.070174   -0.064117
     10         16           0        0.512760   -1.330851    0.852380
     11          6           0        2.065023   -0.697371    0.426269
     12          6           0        1.937919    0.429293   -0.363115
     13          6           0        0.591634    0.789091   -0.647082
     14          1           0        0.278576    1.625945   -1.255843
     15         16           0        3.491761    1.063861   -0.788069
     16          6           0        4.280818   -0.199921    0.104990
     17          6           0        3.415085   -1.064484    0.696889
     18          1           0        5.359719   -0.226755    0.138651
     19          1           0        3.724786   -1.911869    1.292022
     20          1           0       -2.613977    2.424449    2.022685
     21          1           0       -2.129118    3.121506    0.476454
     22          1           0       -0.986140    2.128922    1.388567
 ---------------------------------------------------------------------

 The electronic state is 1-A.
 Alpha  occ. eigenvalues --  -89.05120 -89.04988 -89.04642 -10.33579 -10.32537
 Alpha  occ. eigenvalues --  -10.32440 -10.32379 -10.32378 -10.31754 -10.30548
 Alpha  occ. eigenvalues --  -10.30541 -10.30450 -10.29196 -10.28484  -8.09166
 Alpha  occ. eigenvalues --   -8.09029  -8.08725  -6.04014  -6.03880  -6.03641
 Alpha  occ. eigenvalues --   -6.03551  -6.03509  -6.03229  -6.03169  -6.03080
 Alpha  occ. eigenvalues --   -6.02834  -1.02221  -0.99640  -0.95294  -0.87725
 Alpha  occ. eigenvalues --   -0.86881  -0.85557  -0.81082  -0.80270  -0.77501
 Alpha  occ. eigenvalues --   -0.70555  -0.66569  -0.65944  -0.63277  -0.60913
 Alpha  occ. eigenvalues --   -0.58753  -0.58470  -0.52939  -0.52345  -0.52164
 Alpha  occ. eigenvalues --   -0.50506  -0.50116  -0.47921  -0.47611  -0.47049
 Alpha  occ. eigenvalues --   -0.45981  -0.45519  -0.44637  -0.42986  -0.42249
 Alpha  occ. eigenvalues --   -0.42026  -0.36943  -0.32945  -0.32419  -0.30772
 Alpha  occ. eigenvalues --   -0.28946
 Alpha virt. eigenvalues --    0.01793   0.04486   0.05539   0.05921   0.06496
 Alpha virt. eigenvalues --    0.06997   0.07153   0.07181   0.07937   0.08971
 Alpha virt. eigenvalues --    0.09074   0.09260   0.09558   0.09920   0.10148

 Mulliken charges:
               1
     1  C   -0.225079
     2  C    0.225525
     3  C    0.100133
     4  C   -0.766829
     5  C   -0.039896
     6  H    0.153258
     7  S   -0.315181
     8  H    0.186594
     9  C    0.186071
    10  S   -0.616869
    11  C    0.273390
    12  C   -0.441345
    13  C    0.597339
    14  H    0.162860
    15  S   -0.441229
    16  C   -0.204063
    17  C    0.267578
    18  H    0.193615
    19  H    0.162620
    20  H    0.166311
    21  H    0.184870
    22  H    0.190329
 Sum of Mulliken charges =  -0.00000

 Dipole moment (field-independent basis, Debye):
    X=             -0.2197    Y=              0.8768    Z=              0.4710  Tot=              1.0192
 Quadrupole moment (field-independent basis, Debye-Ang):
   XX=            -86.7469   YY=            -99.7140   ZZ=           -105.3647
   XY=             -4.5755   XZ=              1.5764   YZ=             -1.1807

 Normal termination of Gaussian 16 at Tue Oct 26 02:14:43 2021.
