 Gaussian 16, Revision C.01,
 Gaussian 16:  ES64L-G16RevC.01  3-Jul-2019

 --------------------------------------
 # opt=modredundant wb97xd/6-311+g(d,p)
 --------------------------------------

 -------------
 pBTTT_125.pdb
 -------------
 Symbolic Z-matrix:
 Charge =  0 Multiplicity = 1

 SCF Done:  E(RwB97XD) =  -1618.46011717     A.U. after   18 cycles
 SCF Done:  E(RwB97XD) =  -1618.49480528     A.U. after   16 cycles
 SCF Done:  E(RwB97XD) =  -1618.50509661     A.U. after   16 cycles
 SCF Done:  E(RwB97XD) =  -1618.50749326     A.U. after   16 cycles
 SCF Done:  E(RwB97XD) =  -1618.50771399     A.U. after   14 cycles
 SCF Done:  E(RwB97XD) =  -1618.50851686     A.U. after   14 cycles
 SCF Done:  E(RwB97XD) =  -1618.50852173     A.U. after   14 cycles
 SCF Done:  E(RwB97XD) =  -1618.50878938     A.U. after   13 cycles
 SCF Done:  E(RwB97XD) =  -1618.50905508     A.U. after   13 cycles
 SCF Done:  E(RwB97XD) =  -1618.50913299     A.U. after   14 cycles
 SCF Done:  E(RwB97XD) =  -1618.50934502     A.U. after   13 cycles
 SCF Done:  E(RwB97XD) =  -1618.50938002     A.U. after   13 cycles
 SCF Done:  E(RwB97XD) =  -1618.50939304     A.U. after   12 cycles
 SCF Done:  E(RwB97XD) =  -1618.50939490     A.U. after   12 cycles
 SCF Done:  E(RwB97XD) =  -1618.50939507     A.U. after   10 cycles
 Optimization completed.
    -- Stationary point found.

                         Standard orientation:
 ---------------------------------------------------------------------
 Center     Atomic      Atomic             Coordinates (Angstroms)
 Number     Number       Type             X           Y           Z
 ---------------------------------------------------------------------
      1          6           0       -3.929678    0.770503    0.170732
      2          6           0       -2.541691    1.049553    0.360760
      3          6           0       -1.751033    0.016549   -0.075265
      4          6           0       -2.038298    2.319876    0.980374
      5          6           0       -4.165819   -0.447149   -0.385728
      6          1           0       -4.717321    1.456978    0.455222
      7         16           0       -2.705801   -1.291244   -0.710152
      8          1           0       -5.117729   -0.898155   -0.622476
      9          6           0       -0.293512   -0.063574   -0.051885
     10         16           0        0.513647   -1.411369    0.729909
     11          6           0        2.065532   -0.740372    0.363291
     12          6           0        1.937422    0.460858   -0.306557
     13          6           0        0.591152    0.848810   -0.549340
     14          1           0        0.279532    1.739547   -1.076725
     15         16           0        3.491026    1.131739   -0.672776
     16          6           0        4.280983   -0.218066    0.083172
     17          6           0        3.415590   -1.136217    0.588678
     18          1           0        5.359941   -0.250395    0.108747
     19          1           0        3.725726   -2.040185    1.093442
     20          1           0       -2.678373    2.618970    1.813859
     21          1           0       -2.038682    3.139595    0.254973
     22          1           0       -1.018938    2.203007    1.351874
 ---------------------------------------------------------------------

 The electronic state is 1-A.
 Alpha  occ. eigenvalues --  -89.05117 -89.05003 -89.04688 -10.33647 -10.32623
 Alpha  occ. eigenvalues --  -10.32444 -10.32379 -10.32364 -10.31764 -10.30547
 Alpha  occ. eigenvalues --  -10.30526 -10.30470 -10.29232 -10.28570  -8.09163
 Alpha  occ. eigenvalues --   -8.09046  -8.08773  -6.04012  -6.03900  -6.03638
 Alpha  occ. eigenvalues --   -6.03601  -6.03527  -6.03226  -6.03217  -6.03095
 Alpha  occ. eigenvalues --   -6.02880  -1.02239  -0.99682  -0.95306  -0.87822
 Alpha  occ. eigenvalues --   -0.86849  -0.85628  -0.81090  -0.80273  -0.77573
 Alpha  occ. eigenvalues --   -0.70590  -0.66573  -0.66075  -0.63222  -0.60936
 Alpha  occ. eigenvalues --   -0.58781  -0.58489  -0.52939  -0.52387  -0.52178
 Alpha  occ. eigenvalues --   -0.50571  -0.50062  -0.47968  -0.47674  -0.47085
 Alpha  occ. eigenvalues --   -0.46024  -0.45650  -0.44568  -0.43003  -0.42392
 Alpha  occ. eigenvalues --   -0.41985  -0.36975  -0.33231  -0.32618  -0.30793
 Alpha  occ. eigenvalues --   -0.28522
 Alpha virt. eigenvalues --    0.01457   0.04732   0.05562   0.05944   0.06485
 Alpha virt. eigenvalues --    0.06972   0.07166   0.07271   0.07998   0.09049
 Alpha virt. eigenvalues --    0.09079   0.09415   0.09608   0.09823   0.10304

 Mulliken charges:
               1
     1  C   -0.015605
     2  C   -0.100065
     3  C    0.613214
     4  C   -1.024655
     5  C   -0.131558
     6  H    0.151303
     7  S   -0.361383
     8  H    0.186476
     9  C    0.437260
    10  S   -0.597802
    11  C    0.383459
    12  C   -0.278984
    13  C    0.363500
    14  H    0.163430
    15  S   -0.446071
    16  C   -0.183188
    17  C   -0.053422
    18  H    0.193525
    19  H    0.162688
    20  H    0.163035
    21  H    0.188115
    22  H    0.186727
 Sum of Mulliken charges =  -0.00000

 Dipole moment (field-independent basis, Debye):
    X=             -0.2385    Y=              0.8808    Z=              0.4070  Tot=              0.9992
 Quadrupole moment (field-independent basis, Debye-Ang):
   XX=            -86.7109   YY=            -98.7394   ZZ=           -106.3611
   XY=             -4.8068   XZ=              1.3298   YZ=             -1.0690

 Normal termination of Gaussian 16 at Tue Oct 26 02:29:12 2021.
