 Gaussian 16, Revision C.01,
 Gaussian 16:  ES64L-G16RevC.01  3-Jul-2019

 --------------------------------------
 # opt=modredundant wb97xd/6-311+g(d,p)
 --------------------------------------

 -------------
 pBTTT_180.pdb
 -------------
 Symbolic Z-matrix:
 Charge =  0 Multiplicity = 1

 SCF Done:  E(RwB97XD) =  -1618.46086213     A.U. after   19 cycles
 SCF Done:  E(RwB97XD) =  -1618.49382881     A.U. after   15 cycles
 SCF Done:  E(RwB97XD) =  -1618.50316740     A.U. after   15 cycles
 SCF Done:  E(RwB97XD) =  -1618.50558961     A.U. after   15 cycles
 SCF Done:  E(RwB97XD) =  -1618.50630939     A.U. after   14 cycles
 SCF Done:  E(RwB97XD) =  -1618.50633623     A.U. after   13 cycles
 SCF Done:  E(RwB97XD) =  -1618.50654849     A.U. after   13 cycles
 SCF Done:  E(RwB97XD) =  -1618.50655328     A.U. after   11 cycles
 SCF Done:  E(RwB97XD) =  -1618.50656434     A.U. after   11 cycles
 SCF Done:  E(RwB97XD) =  -1618.50656526     A.U. after   10 cycles
 SCF Done:  E(RwB97XD) =  -1618.50656567     A.U. after   10 cycles
 SCF Done:  E(RwB97XD) =  -1618.50656597     A.U. after    9 cycles
 SCF Done:  E(RwB97XD) =  -1618.50656610     A.U. after   10 cycles
 Optimization completed.
    -- Stationary point found.

                         Standard orientation:
 ---------------------------------------------------------------------
 Center     Atomic      Atomic             Coordinates (Angstroms)
 Number     Number       Type             X           Y           Z
 ---------------------------------------------------------------------
      1          6           0       -3.951305    0.787776    0.000090
      2          6           0       -2.572979    1.153409    0.000152
      3          6           0       -1.746979    0.049751    0.000105
      4          6           0       -2.131919    2.587124    0.000366
      5          6           0       -4.161952   -0.554551   -0.000278
      6          1           0       -4.753069    1.515427    0.000154
      7         16           0       -2.682078   -1.420212   -0.000300
      8          1           0       -5.101037   -1.086428   -0.000480
      9          6           0       -0.290827   -0.014537    0.000151
     10         16           0        0.509915   -1.582922    0.000346
     11          6           0        2.070640   -0.838819    0.000055
     12          6           0        1.955807    0.535199   -0.000201
     13          6           0        0.617486    1.011997   -0.000226
     14          1           0        0.351763    2.055977   -0.000490
     15         16           0        3.517618    1.283475   -0.000237
     16          6           0        4.291270   -0.272019    0.000016
     17          6           0        3.413811   -1.310667    0.000141
     18          1           0        5.369680   -0.324553   -0.000043
     19          1           0        3.712108   -2.349448    0.000458
     20          1           0       -2.999242    3.249108    0.000961
     21          1           0       -1.533314    2.823511   -0.884716
     22          1           0       -1.532474    2.822989    0.885000
 ---------------------------------------------------------------------

 The electronic state is 1-A.
 Alpha  occ. eigenvalues --  -89.05100 -89.04974 -89.04861 -10.34148 -10.33134
 Alpha  occ. eigenvalues --  -10.32411 -10.32347 -10.32330 -10.31831 -10.30665
 Alpha  occ. eigenvalues --  -10.30548 -10.30447 -10.29383 -10.29180  -8.09145
 Alpha  occ. eigenvalues --   -8.09039  -8.08967  -6.03994  -6.03901  -6.03800
 Alpha  occ. eigenvalues --   -6.03621  -6.03526  -6.03412  -6.03207  -6.03067
 Alpha  occ. eigenvalues --   -6.03064  -1.02289  -0.99876  -0.95316  -0.88241
 Alpha  occ. eigenvalues --   -0.86807  -0.85928  -0.81063  -0.80296  -0.78024
 Alpha  occ. eigenvalues --   -0.70739  -0.66737  -0.66575  -0.62973  -0.61209
 Alpha  occ. eigenvalues --   -0.58955  -0.58566  -0.52857  -0.52793  -0.52227
 Alpha  occ. eigenvalues --   -0.50837  -0.50115  -0.48431  -0.47766  -0.47077
 Alpha  occ. eigenvalues --   -0.46689  -0.45981  -0.44139  -0.43159  -0.43101
 Alpha  occ. eigenvalues --   -0.41379  -0.37232  -0.34470  -0.32983  -0.30773
 Alpha  occ. eigenvalues --   -0.27263
 Alpha virt. eigenvalues --    0.00203   0.05114   0.05692   0.06047   0.06373
 Alpha virt. eigenvalues --    0.06640   0.07099   0.07716   0.08355   0.08819
 Alpha virt. eigenvalues --    0.09249   0.09335   0.09566   0.10558   0.10766

 Mulliken charges:
               1
     1  C    0.068588
     2  C    0.365526
     3  C    0.934714
     4  C   -1.187961
     5  C   -0.251978
     6  H    0.144627
     7  S   -0.620137
     8  H    0.186091
     9  C    0.168201
    10  S   -0.629399
    11  C    0.375494
    12  C    0.152963
    13  C    0.128071
    14  H    0.155380
    15  S   -0.455602
    16  C   -0.117995
    17  C   -0.300465
    18  H    0.193129
    19  H    0.161775
    20  H    0.167724
    21  H    0.180659
    22  H    0.180596
 Sum of Mulliken charges =  -0.00000

 Dipole moment (field-independent basis, Debye):
    X=             -0.3850    Y=              0.9112    Z=             -0.0000  Tot=              0.9892
 Quadrupole moment (field-independent basis, Debye-Ang):
   XX=            -86.1911   YY=            -95.7637   ZZ=           -109.3758
   XY=             -5.4209   XZ=              0.0016   YZ=             -0.0004

 Normal termination of Gaussian 16 at Tue Oct 26 02:28:43 2021.
