 Gaussian 16, Revision C.01,
 Gaussian 16:  ES64L-G16RevC.01  3-Jul-2019

 --------------------------------------
 # opt=modredundant wb97xd/6-311+g(d,p)
 --------------------------------------

 --------------
 pBTTT_-135.pdb
 --------------
 Symbolic Z-matrix:
 Charge =  0 Multiplicity = 1

 SCF Done:  E(RwB97XD) =  -1618.45953330     A.U. after   18 cycles
 SCF Done:  E(RwB97XD) =  -1618.49395933     A.U. after   16 cycles
 SCF Done:  E(RwB97XD) =  -1618.50468012     A.U. after   15 cycles
 SCF Done:  E(RwB97XD) =  -1618.50717229     A.U. after   15 cycles
 SCF Done:  E(RwB97XD) =  -1618.50772490     A.U. after   16 cycles
 SCF Done:  E(RwB97XD) =  -1618.50856736     A.U. after   14 cycles
 SCF Done:  E(RwB97XD) =  -1618.50860050     A.U. after   15 cycles
 SCF Done:  E(RwB97XD) =  -1618.50909858     A.U. after   14 cycles
 SCF Done:  E(RwB97XD) =  -1618.50933105     A.U. after   13 cycles
 SCF Done:  E(RwB97XD) =  -1618.50942587     A.U. after   13 cycles
 SCF Done:  E(RwB97XD) =  -1618.50945017     A.U. after   13 cycles
 SCF Done:  E(RwB97XD) =  -1618.50945417     A.U. after   12 cycles
 SCF Done:  E(RwB97XD) =  -1618.50945550     A.U. after   11 cycles
 SCF Done:  E(RwB97XD) =  -1618.50945559     A.U. after   10 cycles
 Optimization completed.
    -- Stationary point found.

                         Standard orientation:
 ---------------------------------------------------------------------
 Center     Atomic      Atomic             Coordinates (Angstroms)
 Number     Number       Type             X           Y           Z
 ---------------------------------------------------------------------
      1          6           0        3.931949    0.783723    0.128127
      2          6           0        2.546435    1.079000    0.307512
      3          6           0        1.749857    0.019301   -0.050344
      4          6           0        2.054010    2.390153    0.846187
      5          6           0        4.162738   -0.468767   -0.347309
      6          1           0        4.722511    1.485650    0.362357
      7         16           0        2.698876   -1.328102   -0.606889
      8          1           0        5.111930   -0.937993   -0.557757
      9          6           0        0.293945   -0.054274   -0.026393
     10         16           0       -0.516602   -1.468145    0.625925
     11          6           0       -2.067522   -0.770804    0.306631
     12          6           0       -1.937070    0.484833   -0.253474
     13          6           0       -0.590538    0.895426   -0.451697
     14          1           0       -0.280967    1.825884   -0.906111
     15         16           0       -3.489577    1.182251   -0.571771
     16          6           0       -4.281973   -0.230304    0.056451
     17          6           0       -3.417866   -1.187476    0.486438
     18          1           0       -5.360988   -0.267005    0.070098
     19          1           0       -3.729413   -2.132973    0.907287
     20          1           0        2.756075    2.788111    1.582369
     21          1           0        1.077919    2.282426    1.322884
     22          1           0        1.955996    3.134978    0.049865
 ---------------------------------------------------------------------

 The electronic state is 1-A.
 Alpha  occ. eigenvalues --  -89.05116 -89.05014 -89.04735 -10.33730 -10.32713
 Alpha  occ. eigenvalues --  -10.32449 -10.32379 -10.32355 -10.31771 -10.30548
 Alpha  occ. eigenvalues --  -10.30517 -10.30490 -10.29269 -10.28678  -8.09161
 Alpha  occ. eigenvalues --   -8.09061  -8.08822  -6.04010  -6.03915  -6.03651
 Alpha  occ. eigenvalues --   -6.03637  -6.03543  -6.03266  -6.03224  -6.03106
 Alpha  occ. eigenvalues --   -6.02927  -1.02256  -0.99723  -0.95315  -0.87914
 Alpha  occ. eigenvalues --   -0.86828  -0.85698  -0.81095  -0.80276  -0.77653
 Alpha  occ. eigenvalues --   -0.70626  -0.66588  -0.66204  -0.63161  -0.60970
 Alpha  occ. eigenvalues --   -0.58812  -0.58511  -0.52937  -0.52429  -0.52197
 Alpha  occ. eigenvalues --   -0.50634  -0.50029  -0.48042  -0.47717  -0.47112
 Alpha  occ. eigenvalues --   -0.46099  -0.45771  -0.44487  -0.43026  -0.42541
 Alpha  occ. eigenvalues --   -0.41920  -0.37021  -0.33558  -0.32703  -0.30818
 Alpha  occ. eigenvalues --   -0.28161
 Alpha virt. eigenvalues --    0.01143   0.04924   0.05575   0.05957   0.06463
 Alpha virt. eigenvalues --    0.06913   0.07149   0.07389   0.08020   0.09062
 Alpha virt. eigenvalues --    0.09122   0.09393   0.09625   0.09800   0.10435

 Mulliken charges:
               1
     1  C   -0.001049
     2  C   -0.082076
     3  C    0.643747
     4  C   -1.053109
     5  C   -0.133937
     6  H    0.150867
     7  S   -0.408846
     8  H    0.186376
     9  C    0.465266
    10  S   -0.610567
    11  C    0.426354
    12  C   -0.217019
    13  C    0.325820
    14  H    0.164739
    15  S   -0.447454
    16  C   -0.169014
    17  C   -0.132397
    18  H    0.193474
    19  H    0.162737
    20  H    0.162196
    21  H    0.184828
    22  H    0.189064
 Sum of Mulliken charges =  -0.00000

 Dipole moment (field-independent basis, Debye):
    X=              0.2580    Y=              0.8828    Z=              0.3208  Tot=              0.9741
 Quadrupole moment (field-independent basis, Debye-Ang):
   XX=            -86.6342   YY=            -97.9507   ZZ=           -107.1781
   XY=              5.0040   XZ=             -1.1288   YZ=             -0.8995

 Normal termination of Gaussian 16 at Tue Oct 26 01:33:30 2021.
