 Gaussian 16, Revision C.01,
 Gaussian 16:  ES64L-G16RevC.01  3-Jul-2019

 --------------------------------------
 # opt=modredundant wb97xd/6-311+g(d,p)
 --------------------------------------

 --------------
 pBTTT_-110.pdb
 --------------
 Symbolic Z-matrix:
 Charge =  0 Multiplicity = 1

 SCF Done:  E(RwB97XD) =  -1618.45851107     A.U. after   18 cycles
 SCF Done:  E(RwB97XD) =  -1618.49354162     A.U. after   15 cycles
 SCF Done:  E(RwB97XD) =  -1618.50457782     A.U. after   15 cycles
 SCF Done:  E(RwB97XD) =  -1618.50698476     A.U. after   15 cycles
 SCF Done:  E(RwB97XD) =  -1618.50725752     A.U. after   15 cycles
 SCF Done:  E(RwB97XD) =  -1618.50802235     A.U. after   14 cycles
 SCF Done:  E(RwB97XD) =  -1618.50790122     A.U. after   14 cycles
 SCF Done:  E(RwB97XD) =  -1618.50807109     A.U. after   14 cycles
 SCF Done:  E(RwB97XD) =  -1618.50814866     A.U. after   13 cycles
 SCF Done:  E(RwB97XD) =  -1618.50822601     A.U. after   13 cycles
 SCF Done:  E(RwB97XD) =  -1618.50832792     A.U. after   12 cycles
 SCF Done:  E(RwB97XD) =  -1618.50882230     A.U. after   15 cycles
 SCF Done:  E(RwB97XD) =  -1618.50874115     A.U. after   14 cycles
 SCF Done:  E(RwB97XD) =  -1618.50908274     A.U. after   14 cycles
 SCF Done:  E(RwB97XD) =  -1618.50910219     A.U. after   14 cycles
 SCF Done:  E(RwB97XD) =  -1618.50910359     A.U. after   12 cycles
 SCF Done:  E(RwB97XD) =  -1618.50910352     A.U. after   11 cycles
 SCF Done:  E(RwB97XD) =  -1618.50910393     A.U. after   11 cycles
 SCF Done:  E(RwB97XD) =  -1618.50910393     A.U. after    9 cycles
 SCF Done:  E(RwB97XD) =  -1618.50910395     A.U. after   10 cycles
 Optimization completed.
    -- Stationary point found.

                         Standard orientation:
 ---------------------------------------------------------------------
 Center     Atomic      Atomic             Coordinates (Angstroms)
 Number     Number       Type             X           Y           Z
 ---------------------------------------------------------------------
      1          6           0        3.934439    0.732104    0.206592
      2          6           0        2.547403    0.992617    0.430877
      3          6           0        1.753137    0.008725   -0.097542
      4          6           0        2.043457    2.197064    1.169189
      5          6           0        4.163722   -0.426952   -0.465847
      6          1           0        4.725294    1.388597    0.547389
      7         16           0        2.699941   -1.235766   -0.857842
      8          1           0        5.113230   -0.852535   -0.754143
      9          6           0        0.292181   -0.070607   -0.066387
     10         16           0       -0.512077   -1.277279    0.921009
     11          6           0       -2.064809   -0.669087    0.461489
     12          6           0       -1.938742    0.410015   -0.391988
     13          6           0       -0.592624    0.753510   -0.696799
     14          1           0       -0.279641    1.556065   -1.350198
     15         16           0       -3.493079    1.019666   -0.850438
     16          6           0       -4.280970   -0.190086    0.115400
     17          6           0       -3.414664   -1.019245    0.755077
     18          1           0       -5.359835   -0.214633    0.152094
     19          1           0       -3.723745   -1.830671    1.398671
     20          1           0        2.584914    2.325659    2.110026
     21          1           0        0.979649    2.106412    1.393443
     22          1           0        2.188389    3.106793    0.578685
 ---------------------------------------------------------------------

 The electronic state is 1-A.
 Alpha  occ. eigenvalues --  -89.05122 -89.04979 -89.04622 -10.33553 -10.32500
 Alpha  occ. eigenvalues --  -10.32440 -10.32385 -10.32376 -10.31748 -10.30550
 Alpha  occ. eigenvalues --  -10.30549 -10.30440 -10.29180 -10.28452  -8.09167
 Alpha  occ. eigenvalues --   -8.09018  -8.08703  -6.04016  -6.03870  -6.03643
 Alpha  occ. eigenvalues --   -6.03529  -6.03498  -6.03230  -6.03147  -6.03071
 Alpha  occ. eigenvalues --   -6.02813  -1.02215  -0.99623  -0.95289  -0.87680
 Alpha  occ. eigenvalues --   -0.86902  -0.85526  -0.81079  -0.80269  -0.77473
 Alpha  occ. eigenvalues --   -0.70540  -0.66571  -0.65886  -0.63298  -0.60907
 Alpha  occ. eigenvalues --   -0.58741  -0.58463  -0.52939  -0.52328  -0.52161
 Alpha  occ. eigenvalues --   -0.50473  -0.50149  -0.47907  -0.47581  -0.47031
 Alpha  occ. eigenvalues --   -0.45968  -0.45458  -0.44669  -0.42980  -0.42188
 Alpha  occ. eigenvalues --   -0.42040  -0.36932  -0.32861  -0.32252  -0.30771
 Alpha  occ. eigenvalues --   -0.29163
 Alpha virt. eigenvalues --    0.01959   0.04357   0.05540   0.05908   0.06511
 Alpha virt. eigenvalues --    0.07012   0.07117   0.07171   0.07920   0.08933
 Alpha virt. eigenvalues --    0.09075   0.09254   0.09546   0.09961   0.10106

 Mulliken charges:
               1
     1  C   -0.183953
     2  C    0.158371
     3  C    0.128140
     4  C   -0.761993
     5  C   -0.056826
     6  H    0.153255
     7  S   -0.303239
     8  H    0.186514
     9  C    0.177097
    10  S   -0.608100
    11  C    0.265950
    12  C   -0.482620
    13  C    0.620956
    14  H    0.163180
    15  S   -0.440748
    16  C   -0.208395
    17  C    0.292003
    18  H    0.193588
    19  H    0.162676
    20  H    0.168825
    21  H    0.192214
    22  H    0.183107
 Sum of Mulliken charges =  -0.00000

 Dipole moment (field-independent basis, Debye):
    X=              0.2140    Y=              0.8723    Z=              0.4950  Tot=              1.0255
 Quadrupole moment (field-independent basis, Debye-Ang):
   XX=            -86.7435   YY=           -100.2625   ZZ=           -104.8101
   XY=              4.4391   XZ=             -1.7108   YZ=             -1.2177

 Normal termination of Gaussian 16 at Tue Oct 26 01:44:27 2021.
