 Gaussian 16, Revision C.01,
 Gaussian 16:  ES64L-G16RevC.01  3-Jul-2019

 --------------------------------------
 # opt=modredundant wb97xd/6-311+g(d,p)
 --------------------------------------

 --------------
 pBTTT_-145.pdb
 --------------
 Symbolic Z-matrix:
 Charge =  0 Multiplicity = 1

 SCF Done:  E(RwB97XD) =  -1618.45997313     A.U. after   18 cycles
 SCF Done:  E(RwB97XD) =  -1618.49394737     A.U. after   15 cycles
 SCF Done:  E(RwB97XD) =  -1618.50442619     A.U. after   15 cycles
 SCF Done:  E(RwB97XD) =  -1618.50712195     A.U. after   15 cycles
 SCF Done:  E(RwB97XD) =  -1618.50786196     A.U. after   16 cycles
 SCF Done:  E(RwB97XD) =  -1618.50865713     A.U. after   13 cycles
 SCF Done:  E(RwB97XD) =  -1618.50882686     A.U. after   14 cycles
 SCF Done:  E(RwB97XD) =  -1618.50902051     A.U. after   13 cycles
 SCF Done:  E(RwB97XD) =  -1618.50906112     A.U. after   12 cycles
 SCF Done:  E(RwB97XD) =  -1618.50912218     A.U. after   13 cycles
 SCF Done:  E(RwB97XD) =  -1618.50914136     A.U. after   12 cycles
 SCF Done:  E(RwB97XD) =  -1618.50914293     A.U. after   11 cycles
 SCF Done:  E(RwB97XD) =  -1618.50914361     A.U. after   10 cycles
 SCF Done:  E(RwB97XD) =  -1618.50914376     A.U. after    8 cycles
 Optimization completed.
    -- Stationary point found.

                         Standard orientation:
 ---------------------------------------------------------------------
 Center     Atomic      Atomic             Coordinates (Angstroms)
 Number     Number       Type             X           Y           Z
 ---------------------------------------------------------------------
      1          6           0        3.936708    0.788360    0.078003
      2          6           0        2.555174    1.102469    0.251837
      3          6           0        1.748837    0.023671   -0.021476
      4          6           0        2.079438    2.450371    0.708732
      5          6           0        4.157712   -0.494195   -0.314388
      6          1           0        4.732316    1.501010    0.255969
      7         16           0        2.687339   -1.360955   -0.500439
      8          1           0        5.102264   -0.981794   -0.502356
      9          6           0        0.293814   -0.042172    0.005398
     10         16           0       -0.518510   -1.509014    0.527691
     11          6           0       -2.069267   -0.793332    0.251576
     12          6           0       -1.938353    0.504405   -0.201226
     13          6           0       -0.592298    0.935176   -0.352027
     14          1           0       -0.287654    1.898309   -0.734864
     15         16           0       -3.490619    1.221054   -0.475001
     16          6           0       -4.283286   -0.241048    0.027345
     17          6           0       -3.419167   -1.227527    0.385214
     18          1           0       -5.362209   -0.282311    0.027537
     19          1           0       -3.730592   -2.205511    0.723874
     20          1           0        2.833039    2.926034    1.339996
     21          1           0        1.151709    2.372455    1.279469
     22          1           0        1.893886    3.117377   -0.139567
 ---------------------------------------------------------------------

 The electronic state is 1-A.
 Alpha  occ. eigenvalues --  -89.05116 -89.05017 -89.04770 -10.33826 -10.32809
 Alpha  occ. eigenvalues --  -10.32453 -10.32379 -10.32351 -10.31779 -10.30552
 Alpha  occ. eigenvalues --  -10.30514 -10.30509 -10.29301 -10.28797  -8.09161
 Alpha  occ. eigenvalues --   -8.09068  -8.08860  -6.04010  -6.03924  -6.03690
 Alpha  occ. eigenvalues --   -6.03637  -6.03551  -6.03305  -6.03224  -6.03109
 Alpha  occ. eigenvalues --   -6.02963  -1.02276  -0.99763  -0.95326  -0.88002
 Alpha  occ. eigenvalues --   -0.86818  -0.85768  -0.81098  -0.80280  -0.77740
 Alpha  occ. eigenvalues --   -0.70660  -0.66613  -0.66326  -0.63103  -0.61016
 Alpha  occ. eigenvalues --   -0.58844  -0.58533  -0.52943  -0.52478  -0.52217
 Alpha  occ. eigenvalues --   -0.50699  -0.50017  -0.48138  -0.47733  -0.47129
 Alpha  occ. eigenvalues --   -0.46217  -0.45862  -0.44399  -0.43055  -0.42693
 Alpha  occ. eigenvalues --   -0.41827  -0.37078  -0.33854  -0.32764  -0.30835
 Alpha  occ. eigenvalues --   -0.27860
 Alpha virt. eigenvalues --    0.00858   0.05053   0.05644   0.06002   0.06461
 Alpha virt. eigenvalues --    0.06847   0.07135   0.07519   0.08056   0.09049
 Alpha virt. eigenvalues --    0.09193   0.09394   0.09610   0.09879   0.10542

 Mulliken charges:
               1
     1  C   -0.043445
     2  C    0.444809
     3  C    0.476416
     4  C   -1.105900
     5  C   -0.091315
     6  H    0.149221
     7  S   -0.480453
     8  H    0.186176
     9  C    0.412297
    10  S   -0.552357
    11  C    0.511036
    12  C    0.146085
    13  C   -0.169079
    14  H    0.165100
    15  S   -0.451529
    16  C   -0.114722
    17  C   -0.370524
    18  H    0.193291
    19  H    0.162841
    20  H    0.162727
    21  H    0.181257
    22  H    0.188068
 Sum of Mulliken charges =  -0.00000

 Dipole moment (field-independent basis, Debye):
    X=              0.2792    Y=              0.8847    Z=              0.2228  Tot=              0.9541
 Quadrupole moment (field-independent basis, Debye-Ang):
   XX=            -86.5242   YY=            -97.2831   ZZ=           -107.8719
   XY=              5.1833   XZ=             -0.9457   YZ=             -0.6955

 Normal termination of Gaussian 16 at Tue Oct 26 01:16:17 2021.
