 Gaussian 16, Revision C.01,
 Gaussian 16:  ES64L-G16RevC.01  3-Jul-2019

 --------------------------------------
 # opt=modredundant wb97xd/6-311+g(d,p)
 --------------------------------------

 ------------
 pBTTT_30.pdb
 ------------
 Symbolic Z-matrix:
 Charge =  0 Multiplicity = 1

 SCF Done:  E(RwB97XD) =  -1618.46052577     A.U. after   19 cycles
 SCF Done:  E(RwB97XD) =  -1618.49426933     A.U. after   16 cycles
 SCF Done:  E(RwB97XD) =  -1618.50441485     A.U. after   16 cycles
 SCF Done:  E(RwB97XD) =  -1618.50681748     A.U. after   16 cycles
 SCF Done:  E(RwB97XD) =  -1618.50730918     A.U. after   15 cycles
 SCF Done:  E(RwB97XD) =  -1618.50796079     A.U. after   13 cycles
 SCF Done:  E(RwB97XD) =  -1618.50804946     A.U. after   13 cycles
 SCF Done:  E(RwB97XD) =  -1618.50809160     A.U. after   12 cycles
 SCF Done:  E(RwB97XD) =  -1618.50813729     A.U. after   11 cycles
 SCF Done:  E(RwB97XD) =  -1618.50820527     A.U. after   13 cycles
 SCF Done:  E(RwB97XD) =  -1618.50822370     A.U. after   12 cycles
 SCF Done:  E(RwB97XD) =  -1618.50822580     A.U. after   11 cycles
 SCF Done:  E(RwB97XD) =  -1618.50822772     A.U. after   11 cycles
 SCF Done:  E(RwB97XD) =  -1618.50822785     A.U. after   10 cycles
 SCF Done:  E(RwB97XD) =  -1618.50822796     A.U. after   10 cycles
 SCF Done:  E(RwB97XD) =  -1618.50822799     A.U. after    8 cycles
 Optimization completed.
    -- Stationary point found.

                         Standard orientation:
 ---------------------------------------------------------------------
 Center     Atomic      Atomic             Coordinates (Angstroms)
 Number     Number       Type             X           Y           Z
 ---------------------------------------------------------------------
      1          6           0        4.021214    0.280692    0.165283
      2          6           0        2.704737    0.822555    0.270727
      3          6           0        1.740990   -0.127882    0.028951
      4          6           0        2.457891    2.259433    0.634415
      5          6           0        4.045345   -1.039991   -0.154725
      6          1           0        4.915118    0.867376    0.336165
      7         16           0        2.460166   -1.665977   -0.355567
      8          1           0        4.904162   -1.681158   -0.283421
      9          6           0        0.286805   -0.021000    0.013272
     10         16           0       -0.518101    1.473500   -0.438202
     11          6           0       -2.073576    0.746012   -0.233447
     12          6           0       -1.951663   -0.573493    0.153798
     13          6           0       -0.609889   -1.013290    0.301936
     14          1           0       -0.313550   -2.003729    0.619306
     15         16           0       -3.509131   -1.297000    0.374035
     16          6           0       -4.291364    0.192348   -0.060510
     17          6           0       -3.420262    1.193086   -0.356615
     18          1           0       -5.370086    0.236796   -0.073602
     19          1           0       -3.724748    2.188235   -0.648379
     20          1           0        3.336423    2.677203    1.129982
     21          1           0        1.606082    2.366417    1.308946
     22          1           0        2.258278    2.869675   -0.251778
 ---------------------------------------------------------------------

 The electronic state is 1-A.
 Alpha  occ. eigenvalues --  -89.05124 -89.05072 -89.04748 -10.33910 -10.32888
 Alpha  occ. eigenvalues --  -10.32423 -10.32354 -10.32326 -10.31747 -10.30553
 Alpha  occ. eigenvalues --  -10.30532 -10.30387 -10.29278 -10.28687  -8.09173
 Alpha  occ. eigenvalues --   -8.09116  -8.08841  -6.04030  -6.03966  -6.03673
 Alpha  occ. eigenvalues --   -6.03656  -6.03592  -6.03287  -6.03215  -6.03178
 Alpha  occ. eigenvalues --   -6.02942  -1.02273  -0.99748  -0.95322  -0.87760
 Alpha  occ. eigenvalues --   -0.87184  -0.85629  -0.81084  -0.80189  -0.77750
 Alpha  occ. eigenvalues --   -0.70656  -0.67024  -0.66092  -0.62536  -0.61184
 Alpha  occ. eigenvalues --   -0.58938  -0.58536  -0.52846  -0.52460  -0.52245
 Alpha  occ. eigenvalues --   -0.50674  -0.50093  -0.48115  -0.47527  -0.47067
 Alpha  occ. eigenvalues --   -0.46478  -0.45652  -0.44712  -0.43038  -0.42495
 Alpha  occ. eigenvalues --   -0.41770  -0.37123  -0.33989  -0.32785  -0.30849
 Alpha  occ. eigenvalues --   -0.27616
 Alpha virt. eigenvalues --    0.00672   0.05348   0.05547   0.06020   0.06461
 Alpha virt. eigenvalues --    0.06660   0.07231   0.07682   0.08330   0.08710
 Alpha virt. eigenvalues --    0.09225   0.09278   0.09739   0.09992   0.10819

 Mulliken charges:
               1
     1  C   -0.007512
     2  C    0.245909
     3  C    0.610053
     4  C   -1.020426
     5  C   -0.121284
     6  H    0.147497
     7  S   -0.521284
     8  H    0.186464
     9  C    0.501447
    10  S   -0.563357
    11  C    0.435735
    12  C    0.117739
    13  C   -0.145761
    14  H    0.170934
    15  S   -0.452614
    16  C   -0.137820
    17  C   -0.343226
    18  H    0.193180
    19  H    0.161744
    20  H    0.161028
    21  H    0.184094
    22  H    0.197460
 Sum of Mulliken charges =  -0.00000

 Dipole moment (field-independent basis, Debye):
    X=              0.4171    Y=              0.9217    Z=              0.2599  Tot=              1.0446
 Quadrupole moment (field-independent basis, Debye-Ang):
   XX=            -86.2140   YY=            -96.9088   ZZ=           -108.2976
   XY=             -2.1029   XZ=              1.5621   YZ=             -0.6384

 Normal termination of Gaussian 16 at Tue Oct 26 01:56:16 2021.
