 Gaussian 16, Revision C.01,
 Gaussian 16:  ES64L-G16RevC.01  3-Jul-2019

 --------------------------------------
 # opt=modredundant wb97xd/6-311+g(d,p)
 --------------------------------------

 -----------
 pBTTT_5.pdb
 -----------
 Symbolic Z-matrix:
 Charge =  0 Multiplicity = 1

 SCF Done:  E(RwB97XD) =  -1618.46115356     A.U. after   19 cycles
 SCF Done:  E(RwB97XD) =  -1618.49433029     A.U. after   16 cycles
 SCF Done:  E(RwB97XD) =  -1618.50369015     A.U. after   15 cycles
 SCF Done:  E(RwB97XD) =  -1618.50604423     A.U. after   14 cycles
 SCF Done:  E(RwB97XD) =  -1618.50656559     A.U. after   15 cycles
 SCF Done:  E(RwB97XD) =  -1618.50685845     A.U. after   13 cycles
 SCF Done:  E(RwB97XD) =  -1618.50697345     A.U. after   12 cycles
 SCF Done:  E(RwB97XD) =  -1618.50696283     A.U. after   11 cycles
 SCF Done:  E(RwB97XD) =  -1618.50697771     A.U. after   12 cycles
 SCF Done:  E(RwB97XD) =  -1618.50698511     A.U. after   11 cycles
 SCF Done:  E(RwB97XD) =  -1618.50698782     A.U. after   11 cycles
 SCF Done:  E(RwB97XD) =  -1618.50699053     A.U. after   10 cycles
 SCF Done:  E(RwB97XD) =  -1618.50699065     A.U. after   10 cycles
 SCF Done:  E(RwB97XD) =  -1618.50699114     A.U. after    9 cycles
 SCF Done:  E(RwB97XD) =  -1618.50699120     A.U. after    8 cycles
 Optimization completed.
    -- Stationary point found.

                         Standard orientation:
 ---------------------------------------------------------------------
 Center     Atomic      Atomic             Coordinates (Angstroms)
 Number     Number       Type             X           Y           Z
 ---------------------------------------------------------------------
      1          6           0       -4.029510    0.274162   -0.028210
      2          6           0       -2.718446    0.839088   -0.048215
      3          6           0       -1.740510   -0.129499   -0.007893
      4          6           0       -2.497982    2.323649   -0.112235
      5          6           0       -4.040374   -1.082427    0.029096
      6          1           0       -4.929171    0.875746   -0.058010
      7         16           0       -2.447881   -1.721026    0.064748
      8          1           0       -4.891285   -1.746020    0.052628
      9          6           0       -0.287320   -0.016858   -0.003531
     10         16           0        0.526756    1.541508    0.075922
     11          6           0        2.079209    0.782161    0.041804
     12          6           0        1.953727   -0.590075   -0.027085
     13          6           0        0.611907   -1.048811   -0.055680
     14          1           0        0.321849   -2.088908   -0.115510
     15         16           0        3.509468   -1.349438   -0.066073
     16          6           0        4.295578    0.198660    0.011641
     17          6           0        3.426620    1.242758    0.064062
     18          1           0        5.374383    0.242360    0.014644
     19          1           0        3.733360    2.277827    0.116170
     20          1           0       -3.454428    2.840254   -0.207497
     21          1           0       -1.879273    2.605818   -0.968388
     22          1           0       -2.006320    2.699362    0.789882
 ---------------------------------------------------------------------

 The electronic state is 1-A.
 Alpha  occ. eigenvalues --  -89.05172 -89.05040 -89.04787 -10.34089 -10.33117
 Alpha  occ. eigenvalues --  -10.32407 -10.32282 -10.32280 -10.31847 -10.30669
 Alpha  occ. eigenvalues --  -10.30535 -10.30319 -10.29351 -10.28859  -8.09219
 Alpha  occ. eigenvalues --   -8.09084  -8.08891  -6.04078  -6.03934  -6.03728
 Alpha  occ. eigenvalues --   -6.03702  -6.03561  -6.03339  -6.03257  -6.03145
 Alpha  occ. eigenvalues --   -6.02984  -1.02278  -0.99820  -0.95315  -0.87956
 Alpha  occ. eigenvalues --   -0.87200  -0.85683  -0.81061  -0.80203  -0.77913
 Alpha  occ. eigenvalues --   -0.70723  -0.67204  -0.66143  -0.62328  -0.61301
 Alpha  occ. eigenvalues --   -0.59078  -0.58584  -0.52832  -0.52663  -0.52268
 Alpha  occ. eigenvalues --   -0.50705  -0.50146  -0.48257  -0.47578  -0.46949
 Alpha  occ. eigenvalues --   -0.46697  -0.45943  -0.44601  -0.43202  -0.42526
 Alpha  occ. eigenvalues --   -0.41500  -0.37265  -0.34389  -0.32918  -0.30882
 Alpha  occ. eigenvalues --   -0.27172
 Alpha virt. eigenvalues --    0.00326   0.05390   0.05573   0.06036   0.06349
 Alpha virt. eigenvalues --    0.06611   0.07226   0.08321   0.08400   0.08662
 Alpha virt. eigenvalues --    0.08947   0.09362   0.09714   0.10332   0.10819

 Mulliken charges:
               1
     1  C    0.041443
     2  C    0.285956
     3  C    0.721830
     4  C   -1.039006
     5  C   -0.236771
     6  H    0.145189
     7  S   -0.644419
     8  H    0.187441
     9  C    0.497244
    10  S   -0.704954
    11  C    0.244815
    12  C    0.134308
    13  C    0.123888
    14  H    0.166447
    15  S   -0.445451
    16  C   -0.154177
    17  C   -0.222073
    18  H    0.193174
    19  H    0.160324
    20  H    0.164606
    21  H    0.186884
    22  H    0.193299
 Sum of Mulliken charges =  -0.00000

 Dipole moment (field-independent basis, Debye):
    X=             -0.5287    Y=              0.9596    Z=             -0.0490  Tot=              1.0967
 Quadrupole moment (field-independent basis, Debye-Ang):
   XX=            -85.9367   YY=            -96.0192   ZZ=           -109.3476
   XY=              2.0350   XZ=              0.2775   YZ=              0.1174

 Normal termination of Gaussian 16 at Tue Oct 26 01:48:39 2021.
