 Gaussian 16, Revision C.01,
 Gaussian 16:  ES64L-G16RevC.01  3-Jul-2019

 --------------------------------------
 # opt=modredundant wb97xd/6-311+g(d,p)
 --------------------------------------

 -------------
 pBTTT_-25.pdb
 -------------
 Symbolic Z-matrix:
 Charge =  0 Multiplicity = 1

 SCF Done:  E(RwB97XD) =  -1618.46190307     A.U. after   18 cycles
 SCF Done:  E(RwB97XD) =  -1618.49538572     A.U. after   16 cycles
 SCF Done:  E(RwB97XD) =  -1618.50483755     A.U. after   16 cycles
 SCF Done:  E(RwB97XD) =  -1618.50704991     A.U. after   15 cycles
 SCF Done:  E(RwB97XD) =  -1618.50730872     A.U. after   14 cycles
 SCF Done:  E(RwB97XD) =  -1618.50777205     A.U. after   13 cycles
 SCF Done:  E(RwB97XD) =  -1618.50783021     A.U. after   13 cycles
 SCF Done:  E(RwB97XD) =  -1618.50785493     A.U. after   12 cycles
 SCF Done:  E(RwB97XD) =  -1618.50788696     A.U. after   12 cycles
 SCF Done:  E(RwB97XD) =  -1618.50790851     A.U. after   13 cycles
 SCF Done:  E(RwB97XD) =  -1618.50089997     A.U. after   17 cycles
 SCF Done:  E(RwB97XD) =  -1618.50763305     A.U. after   16 cycles
 SCF Done:  E(RwB97XD) =  -1618.50617734     A.U. after   14 cycles
 SCF Done:  E(RwB97XD) =  -1618.50792378     A.U. after    5 cycles
 SCF Done:  E(RwB97XD) =  -1618.50763860     A.U. after   13 cycles
 SCF Done:  E(RwB97XD) =  -1618.50790668     A.U. after   13 cycles
 SCF Done:  E(RwB97XD) =  -1618.50792288     A.U. after   12 cycles
 SCF Done:  E(RwB97XD) =  -1618.50792380     A.U. after   10 cycles
 SCF Done:  E(RwB97XD) =  -1618.50792600     A.U. after   11 cycles
 SCF Done:  E(RwB97XD) =  -1618.50792615     A.U. after   10 cycles
 Optimization completed.
    -- Stationary point found.

                         Standard orientation:
 ---------------------------------------------------------------------
 Center     Atomic      Atomic             Coordinates (Angstroms)
 Number     Number       Type             X           Y           Z
 ---------------------------------------------------------------------
      1          6           0       -4.023747    0.277040    0.138309
      2          6           0       -2.709489    0.827021    0.229534
      3          6           0       -1.740618   -0.128288    0.027901
      4          6           0       -2.472688    2.278389    0.537913
      5          6           0       -4.042445   -1.054204   -0.133288
      6          1           0       -4.920073    0.867126    0.282562
      7         16           0       -2.454390   -1.682034   -0.303138
      8          1           0       -4.898270   -1.702803   -0.243060
      9          6           0       -0.286856   -0.019374    0.012080
     10         16           0        0.520342    1.494146   -0.369447
     11          6           0        2.075042    0.756732   -0.198778
     12          6           0        1.952163   -0.578395    0.129468
     13          6           0        0.610420   -1.023328    0.257490
     14          1           0        0.315384   -2.027410    0.530078
     15         16           0        3.509129   -1.312198    0.316768
     16          6           0        4.292399    0.194544   -0.051154
     17          6           0        3.421921    1.207986   -0.302466
     18          1           0        5.371147    0.238741   -0.062274
     19          1           0        3.727007    2.214904   -0.549851
     20          1           0       -3.367556    2.717988    0.982521
     21          1           0       -2.239969    2.848860   -0.366580
     22          1           0       -1.645562    2.415210    1.237626
 ---------------------------------------------------------------------

 The electronic state is 1-A.
 Alpha  occ. eigenvalues --  -89.05139 -89.05065 -89.04754 -10.33956 -10.32948
 Alpha  occ. eigenvalues --  -10.32419 -10.32341 -10.32315 -10.31769 -10.30565
 Alpha  occ. eigenvalues --  -10.30550 -10.30366 -10.29295 -10.28727  -8.09189
 Alpha  occ. eigenvalues --   -8.09109  -8.08849  -6.04046  -6.03959  -6.03683
 Alpha  occ. eigenvalues --   -6.03671  -6.03586  -6.03296  -6.03230  -6.03171
 Alpha  occ. eigenvalues --   -6.02948  -1.02277  -0.99764  -0.95323  -0.87808
 Alpha  occ. eigenvalues --   -0.87189  -0.85644  -0.81081  -0.80189  -0.77791
 Alpha  occ. eigenvalues --   -0.70673  -0.67071  -0.66108  -0.62480  -0.61211
 Alpha  occ. eigenvalues --   -0.58970  -0.58550  -0.52848  -0.52503  -0.52252
 Alpha  occ. eigenvalues --   -0.50687  -0.50102  -0.48151  -0.47537  -0.47046
 Alpha  occ. eigenvalues --   -0.46523  -0.45733  -0.44681  -0.43068  -0.42513
 Alpha  occ. eigenvalues --   -0.41712  -0.37159  -0.34107  -0.32814  -0.30856
 Alpha  occ. eigenvalues --   -0.27489
 Alpha virt. eigenvalues --    0.00575   0.05372   0.05553   0.06029   0.06440
 Alpha virt. eigenvalues --    0.06649   0.07237   0.07809   0.08362   0.08698
 Alpha virt. eigenvalues --    0.09170   0.09298   0.09744   0.10058   0.10827

 Mulliken charges:
               1
     1  C    0.017544
     2  C    0.287178
     3  C    0.602150
     4  C   -1.038488
     5  C   -0.132779
     6  H    0.147033
     7  S   -0.554765
     8  H    0.186488
     9  C    0.463935
    10  S   -0.579585
    11  C    0.395881
    12  C    0.144485
    13  C   -0.085852
    14  H    0.169380
    15  S   -0.453201
    16  C   -0.139183
    17  C   -0.327428
    18  H    0.193137
    19  H    0.161489
    20  H    0.161921
    21  H    0.198177
    22  H    0.182484
 Sum of Mulliken charges =  -0.00000

 Dipole moment (field-independent basis, Debye):
    X=             -0.4439    Y=              0.9344    Z=              0.2241  Tot=              1.0585
 Quadrupole moment (field-independent basis, Debye-Ang):
   XX=            -86.1334   YY=            -96.6505   ZZ=           -108.5953
   XY=              2.0923   XZ=             -1.3222   YZ=             -0.5428

 Normal termination of Gaussian 16 at Tue Oct 26 03:23:27 2021.
