 Gaussian 16, Revision C.01,
 Gaussian 16:  ES64L-G16RevC.01  3-Jul-2019

 --------------------------------------
 # opt=modredundant wb97xd/6-311+g(d,p)
 --------------------------------------

 -------------
 pBTTT_-55.pdb
 -------------
 Symbolic Z-matrix:
 Charge =  0 Multiplicity = 1

 SCF Done:  E(RwB97XD) =  -1618.46079552     A.U. after   18 cycles
 SCF Done:  E(RwB97XD) =  -1618.49519897     A.U. after   16 cycles
 SCF Done:  E(RwB97XD) =  -1618.50544483     A.U. after   16 cycles
 SCF Done:  E(RwB97XD) =  -1618.50767185     A.U. after   16 cycles
 SCF Done:  E(RwB97XD) =  -1618.50790920     A.U. after   15 cycles
 SCF Done:  E(RwB97XD) =  -1618.50859900     A.U. after   14 cycles
 SCF Done:  E(RwB97XD) =  -1618.50859555     A.U. after   14 cycles
 SCF Done:  E(RwB97XD) =  -1618.50872008     A.U. after   14 cycles
 SCF Done:  E(RwB97XD) =  -1618.50884804     A.U. after   12 cycles
 SCF Done:  E(RwB97XD) =  -1618.50906754     A.U. after   13 cycles
 SCF Done:  E(RwB97XD) =  -1618.50913772     A.U. after   13 cycles
 SCF Done:  E(RwB97XD) =  -1618.50916085     A.U. after   12 cycles
 SCF Done:  E(RwB97XD) =  -1618.50916609     A.U. after   11 cycles
 SCF Done:  E(RwB97XD) =  -1618.50916717     A.U. after   11 cycles
 SCF Done:  E(RwB97XD) =  -1618.50916729     A.U. after   10 cycles
 SCF Done:  E(RwB97XD) =  -1618.50916729     A.U. after    8 cycles
 Optimization completed.
    -- Stationary point found.

                         Standard orientation:
 ---------------------------------------------------------------------
 Center     Atomic      Atomic             Coordinates (Angstroms)
 Number     Number       Type             X           Y           Z
 ---------------------------------------------------------------------
      1          6           0       -4.003372    0.314791    0.313722
      2          6           0       -2.666413    0.791303    0.470887
      3          6           0       -1.745589   -0.123094    0.025753
      4          6           0       -2.340306    2.125534    1.077749
      5          6           0       -4.076309   -0.927574   -0.234580
      6          1           0       -4.874083    0.883127    0.616146
      7         16           0       -2.517698   -1.553015   -0.591350
      8          1           0       -4.959366   -1.511829   -0.445469
      9          6           0       -0.287054   -0.033446    0.007873
     10         16           0        0.509688    1.317409   -0.779615
     11          6           0        2.067655    0.665433   -0.404581
     12          6           0        1.949048   -0.533841    0.270494
     13          6           0        0.606403   -0.936564    0.507843
     14          1           0        0.304525   -1.833453    1.031112
     15         16           0        3.507814   -1.184088    0.651210
     16          6           0        4.286892    0.171934   -0.104538
     17          6           0        3.414334    1.077425   -0.620745
     18          1           0        5.365558    0.216499   -0.123688
     19          1           0        3.717357    1.982370   -1.128085
     20          1           0       -3.054809    2.368348    1.867653
     21          1           0       -2.389777    2.923230    0.330293
     22          1           0       -1.337996    2.135405    1.508853
 ---------------------------------------------------------------------

 The electronic state is 1-A.
 Alpha  occ. eigenvalues --  -89.05098 -89.05031 -89.04693 -10.33677 -10.32599
 Alpha  occ. eigenvalues --  -10.32438 -10.32374 -10.32366 -10.31698 -10.30553
 Alpha  occ. eigenvalues --  -10.30503 -10.30410 -10.29202 -10.28495  -8.09143
 Alpha  occ. eigenvalues --   -8.09075  -8.08775  -6.03992  -6.03930  -6.03619
 Alpha  occ. eigenvalues --   -6.03602  -6.03557  -6.03218  -6.03206  -6.03123
 Alpha  occ. eigenvalues --   -6.02883  -1.02232  -0.99660  -0.95299  -0.87539
 Alpha  occ. eigenvalues --   -0.87154  -0.85529  -0.81080  -0.80214  -0.77550
 Alpha  occ. eigenvalues --   -0.70569  -0.66791  -0.65956  -0.62868  -0.61046
 Alpha  occ. eigenvalues --   -0.58800  -0.58475  -0.52857  -0.52299  -0.52238
 Alpha  occ. eigenvalues --   -0.50549  -0.50107  -0.47958  -0.47496  -0.47080
 Alpha  occ. eigenvalues --   -0.46212  -0.45279  -0.44863  -0.42976  -0.42311
 Alpha  occ. eigenvalues --   -0.41943  -0.36976  -0.33222  -0.32545  -0.30834
 Alpha  occ. eigenvalues --   -0.28487
 Alpha virt. eigenvalues --    0.01383   0.04969   0.05554   0.05915   0.06546
 Alpha virt. eigenvalues --    0.06774   0.07163   0.07184   0.08122   0.08733
 Alpha virt. eigenvalues --    0.09048   0.09492   0.09628   0.09814   0.10603

 Mulliken charges:
               1
     1  C   -0.015578
     2  C   -0.319899
     3  C    0.439490
     4  C   -0.916305
     5  C   -0.187727
     6  H    0.151368
     7  S   -0.299218
     8  H    0.186385
     9  C    0.682899
    10  S   -0.573454
    11  C    0.359679
    12  C   -0.631946
    13  C    0.646834
    14  H    0.172191
    15  S   -0.428559
    16  C   -0.215007
    17  C    0.056116
    18  H    0.193463
    19  H    0.162259
    20  H    0.160472
    21  H    0.195145
    22  H    0.181390
 Sum of Mulliken charges =  -0.00000

 Dipole moment (field-independent basis, Debye):
    X=             -0.3155    Y=              0.8417    Z=              0.4190  Tot=              0.9917
 Quadrupole moment (field-independent basis, Debye-Ang):
   XX=            -86.4999   YY=            -98.7571   ZZ=           -106.3094
   XY=              1.9764   XZ=             -2.6749   YZ=             -1.0416

 Normal termination of Gaussian 16 at Tue Oct 26 01:51:48 2021.
