 Gaussian 16, Revision C.01,
 Gaussian 16:  ES64L-G16RevC.01  3-Jul-2019

 --------------------------------------
 # opt=modredundant wb97xd/6-311+g(d,p)
 --------------------------------------

 -------------
 pBTTT_120.pdb
 -------------
 Symbolic Z-matrix:
 Charge =  0 Multiplicity = 1

 SCF Done:  E(RwB97XD) =  -1618.45981315     A.U. after   18 cycles
 SCF Done:  E(RwB97XD) =  -1618.49459608     A.U. after   16 cycles
 SCF Done:  E(RwB97XD) =  -1618.50504019     A.U. after   17 cycles
 SCF Done:  E(RwB97XD) =  -1618.50742130     A.U. after   16 cycles
 SCF Done:  E(RwB97XD) =  -1618.50758395     A.U. after   14 cycles
 SCF Done:  E(RwB97XD) =  -1618.50834514     A.U. after   15 cycles
 SCF Done:  E(RwB97XD) =  -1618.50831320     A.U. after   14 cycles
 SCF Done:  E(RwB97XD) =  -1618.50855810     A.U. after   13 cycles
 SCF Done:  E(RwB97XD) =  -1618.50867534     A.U. after   13 cycles
 SCF Done:  E(RwB97XD) =  -1618.50910309     A.U. after   15 cycles
 SCF Done:  E(RwB97XD) =  -1618.50930461     A.U. after   14 cycles
 SCF Done:  E(RwB97XD) =  -1618.50932651     A.U. after   13 cycles
 SCF Done:  E(RwB97XD) =  -1618.50934960     A.U. after   13 cycles
 SCF Done:  E(RwB97XD) =  -1618.50935077     A.U. after   11 cycles
 SCF Done:  E(RwB97XD) =  -1618.50935122     A.U. after   11 cycles
 Optimization completed.
    -- Stationary point found.

                         Standard orientation:
 ---------------------------------------------------------------------
 Center     Atomic      Atomic             Coordinates (Angstroms)
 Number     Number       Type             X           Y           Z
 ---------------------------------------------------------------------
      1          6           0       -3.930103    0.760428    0.185843
      2          6           0       -2.541857    1.031483    0.386947
      3          6           0       -1.751778    0.014010   -0.083586
      4          6           0       -2.036283    2.278871    1.049656
      5          6           0       -4.166050   -0.437556   -0.411847
      6          1           0       -4.717681    1.437747    0.491681
      7         16           0       -2.706155   -1.271693   -0.762234
      8          1           0       -5.117997   -0.879075   -0.665864
      9          6           0       -0.293158   -0.067240   -0.059034
     10         16           0        0.513225   -1.374316    0.789554
     11          6           0        2.065276   -0.720578    0.393940
     12          6           0        1.937599    0.446138   -0.334678
     13          6           0        0.591287    0.820856   -0.597935
     14          1           0        0.278791    1.686619   -1.165054
     15         16           0        3.491302    1.100343   -0.729371
     16          6           0        4.280865   -0.209354    0.094329
     17          6           0        3.415359   -1.102857    0.641992
     18          1           0        5.359800   -0.239002    0.124119
     19          1           0        3.725328   -1.980669    1.191092
     20          1           0       -2.645548    2.522296    1.923584
     21          1           0       -2.083351    3.133419    0.367490
     22          1           0       -1.000222    2.164117    1.371996
 ---------------------------------------------------------------------

 The electronic state is 1-A.
 Alpha  occ. eigenvalues --  -89.05119 -89.04996 -89.04665 -10.33611 -10.32579
 Alpha  occ. eigenvalues --  -10.32441 -10.32379 -10.32370 -10.31758 -10.30546
 Alpha  occ. eigenvalues --  -10.30533 -10.30462 -10.29214 -10.28524  -8.09164
 Alpha  occ. eigenvalues --   -8.09037  -8.08748  -6.04013  -6.03890  -6.03640
 Alpha  occ. eigenvalues --   -6.03575  -6.03518  -6.03227  -6.03193  -6.03088
 Alpha  occ. eigenvalues --   -6.02856  -1.02229  -0.99660  -0.95299  -0.87771
 Alpha  occ. eigenvalues --   -0.86863  -0.85591  -0.81086  -0.80270  -0.77535
 Alpha  occ. eigenvalues --   -0.70571  -0.66569  -0.66007  -0.63251  -0.60922
 Alpha  occ. eigenvalues --   -0.58766  -0.58478  -0.52939  -0.52364  -0.52169
 Alpha  occ. eigenvalues --   -0.50539  -0.50086  -0.47941  -0.47643  -0.47067
 Alpha  occ. eigenvalues --   -0.46000  -0.45584  -0.44603  -0.42992  -0.42317
 Alpha  occ. eigenvalues --   -0.42008  -0.36956  -0.33071  -0.32540  -0.30780
 Alpha  occ. eigenvalues --   -0.28729
 Alpha virt. eigenvalues --    0.01625   0.04613   0.05538   0.05933   0.06481
 Alpha virt. eigenvalues --    0.06977   0.07168   0.07216   0.07955   0.09010
 Alpha virt. eigenvalues --    0.09072   0.09263   0.09577   0.09868   0.10217

 Mulliken charges:
               1
     1  C   -0.255965
     2  C    0.292392
     3  C    0.074374
     4  C   -0.776234
     5  C   -0.025634
     6  H    0.153224
     7  S   -0.329862
     8  H    0.186614
     9  C    0.202261
    10  S   -0.623576
    11  C    0.279566
    12  C   -0.393793
    13  C    0.559051
    14  H    0.163221
    15  S   -0.441646
    16  C   -0.199657
    17  C    0.240446
    18  H    0.193624
    19  H    0.162568
    20  H    0.164442
    21  H    0.186376
    22  H    0.188209
 Sum of Mulliken charges =  -0.00000

 Dipole moment (field-independent basis, Debye):
    X=             -0.2290    Y=              0.8798    Z=              0.4401  Tot=              1.0101
 Quadrupole moment (field-independent basis, Debye-Ang):
   XX=            -86.7369   YY=            -99.2022   ZZ=           -105.8812
   XY=             -4.6959   XZ=              1.4507   YZ=             -1.1301

 Normal termination of Gaussian 16 at Tue Oct 26 02:24:47 2021.
