 Gaussian 16, Revision C.01,
 Gaussian 16:  ES64L-G16RevC.01  3-Jul-2019

 --------------------------------------
 # opt=modredundant wb97xd/6-311+g(d,p)
 --------------------------------------

 --------------
 pBTTT_-175.pdb
 --------------
 Symbolic Z-matrix:
 Charge =  0 Multiplicity = 1

 SCF Done:  E(RwB97XD) =  -1618.46079407     A.U. after   19 cycles
 SCF Done:  E(RwB97XD) =  -1618.49376693     A.U. after   15 cycles
 SCF Done:  E(RwB97XD) =  -1618.50311817     A.U. after   15 cycles
 SCF Done:  E(RwB97XD) =  -1618.50561854     A.U. after   15 cycles
 SCF Done:  E(RwB97XD) =  -1618.50637731     A.U. after   13 cycles
 SCF Done:  E(RwB97XD) =  -1618.50644819     A.U. after   13 cycles
 SCF Done:  E(RwB97XD) =  -1618.50666436     A.U. after   13 cycles
 SCF Done:  E(RwB97XD) =  -1618.50667948     A.U. after   12 cycles
 SCF Done:  E(RwB97XD) =  -1618.50668955     A.U. after   11 cycles
 SCF Done:  E(RwB97XD) =  -1618.50669622     A.U. after   11 cycles
 SCF Done:  E(RwB97XD) =  -1618.50669957     A.U. after   11 cycles
 SCF Done:  E(RwB97XD) =  -1618.50670037     A.U. after   11 cycles
 SCF Done:  E(RwB97XD) =  -1618.50670065     A.U. after    9 cycles
 Optimization completed.
    -- Stationary point found.

                         Standard orientation:
 ---------------------------------------------------------------------
 Center     Atomic      Atomic             Coordinates (Angstroms)
 Number     Number       Type             X           Y           Z
 ---------------------------------------------------------------------
      1          6           0        3.950592    0.787406   -0.009733
      2          6           0        2.572870    1.151272    0.045841
      3          6           0        1.747091    0.048134    0.015510
      4          6           0        2.131885    2.581717    0.144012
      5          6           0        4.160354   -0.553011   -0.084451
      6          1           0        4.752599    1.514528    0.010378
      7         16           0        2.680414   -1.418752   -0.094747
      8          1           0        5.099052   -1.083414   -0.132517
      9          6           0        0.291036   -0.015176    0.024957
     10         16           0       -0.510917   -1.580256    0.112588
     11          6           0       -2.070653   -0.836929    0.047969
     12          6           0       -1.954538    0.534686   -0.033119
     13          6           0       -0.615660    1.009753   -0.050774
     14          1           0       -0.347419    2.050093   -0.132772
     15         16           0       -3.515441    1.282019   -0.096472
     16          6           0       -4.290653   -0.270400   -0.011240
     17          6           0       -3.414292   -1.307393    0.061737
     18          1           0       -5.369043   -0.322541   -0.020591
     19          1           0       -3.713599   -2.344200    0.120878
     20          1           0        2.995336    3.234587    0.281364
     21          1           0        1.456879    2.736009    0.990771
     22          1           0        1.613106    2.906398   -0.763666
 ---------------------------------------------------------------------

 The electronic state is 1-A.
 Alpha  occ. eigenvalues --  -89.05101 -89.04976 -89.04855 -10.34133 -10.33118
 Alpha  occ. eigenvalues --  -10.32413 -10.32350 -10.32332 -10.31827 -10.30655
 Alpha  occ. eigenvalues --  -10.30549 -10.30452 -10.29379 -10.29161  -8.09147
 Alpha  occ. eigenvalues --   -8.09040  -8.08960  -6.03996  -6.03902  -6.03793
 Alpha  occ. eigenvalues --   -6.03623  -6.03527  -6.03405  -6.03209  -6.03069
 Alpha  occ. eigenvalues --   -6.03057  -1.02290  -0.99869  -0.95317  -0.88228
 Alpha  occ. eigenvalues --   -0.86808  -0.85922  -0.81066  -0.80293  -0.78009
 Alpha  occ. eigenvalues --   -0.70736  -0.66728  -0.66568  -0.62977  -0.61197
 Alpha  occ. eigenvalues --   -0.58949  -0.58565  -0.52897  -0.52741  -0.52226
 Alpha  occ. eigenvalues --   -0.50833  -0.50105  -0.48416  -0.47761  -0.47079
 Alpha  occ. eigenvalues --   -0.46672  -0.45978  -0.44150  -0.43155  -0.43081
 Alpha  occ. eigenvalues --   -0.41403  -0.37226  -0.34449  -0.32969  -0.30778
 Alpha  occ. eigenvalues --   -0.27284
 Alpha virt. eigenvalues --    0.00228   0.05119   0.05695   0.06040   0.06384
 Alpha virt. eigenvalues --    0.06650   0.07105   0.07728   0.08319   0.08849
 Alpha virt. eigenvalues --    0.09240   0.09347   0.09582   0.10450   0.10823

 Mulliken charges:
               1
     1  C    0.105124
     2  C    0.391720
     3  C    0.849095
     4  C   -1.188267
     5  C   -0.222856
     6  H    0.144762
     7  S   -0.616706
     8  H    0.185886
     9  C    0.152632
    10  S   -0.614668
    11  C    0.407674
    12  C    0.176127
    13  C    0.089951
    14  H    0.155632
    15  S   -0.456129
    16  C   -0.115758
    17  C   -0.328881
    18  H    0.193120
    19  H    0.161864
    20  H    0.167483
    21  H    0.177826
    22  H    0.184368
 Sum of Mulliken charges =  -0.00000

 Dipole moment (field-independent basis, Debye):
    X=              0.3794    Y=              0.9095    Z=              0.0020  Tot=              0.9854
 Quadrupole moment (field-independent basis, Debye-Ang):
   XX=            -86.1965   YY=            -95.8239   ZZ=           -109.3162
   XY=              5.4237   XZ=             -0.2028   YZ=             -0.0854

 Normal termination of Gaussian 16 at Tue Oct 26 01:04:08 2021.
