 Gaussian 16, Revision C.01,
 Gaussian 16:  ES64L-G16RevC.01  3-Jul-2019

 --------------------------------------
 # opt=modredundant wb97xd/6-311+g(d,p)
 --------------------------------------

 ------------
 pBTTT_50.pdb
 ------------
 Symbolic Z-matrix:
 Charge =  0 Multiplicity = 1

 SCF Done:  E(RwB97XD) =  -1618.46035718     A.U. after   19 cycles
 SCF Done:  E(RwB97XD) =  -1618.49455965     A.U. after   16 cycles
 SCF Done:  E(RwB97XD) =  -1618.50495679     A.U. after   16 cycles
 SCF Done:  E(RwB97XD) =  -1618.50736807     A.U. after   15 cycles
 SCF Done:  E(RwB97XD) =  -1618.50775621     A.U. after   14 cycles
 SCF Done:  E(RwB97XD) =  -1618.50847506     A.U. after   14 cycles
 SCF Done:  E(RwB97XD) =  -1618.50861488     A.U. after   13 cycles
 SCF Done:  E(RwB97XD) =  -1618.50870394     A.U. after   13 cycles
 SCF Done:  E(RwB97XD) =  -1618.50881169     A.U. after   13 cycles
 SCF Done:  E(RwB97XD) =  -1618.50889110     A.U. after   13 cycles
 SCF Done:  E(RwB97XD) =  -1618.50902758     A.U. after   13 cycles
 SCF Done:  E(RwB97XD) =  -1618.50908342     A.U. after   13 cycles
 SCF Done:  E(RwB97XD) =  -1618.50910512     A.U. after   12 cycles
 SCF Done:  E(RwB97XD) =  -1618.50910794     A.U. after   12 cycles
 SCF Done:  E(RwB97XD) =  -1618.50910828     A.U. after    9 cycles
 SCF Done:  E(RwB97XD) =  -1618.50910869     A.U. after   10 cycles
 SCF Done:  E(RwB97XD) =  -1618.50910875     A.U. after   10 cycles
 SCF Done:  E(RwB97XD) =  -1618.50910877     A.U. after   10 cycles
 Optimization completed.
    -- Stationary point found.

                         Standard orientation:
 ---------------------------------------------------------------------
 Center     Atomic      Atomic             Coordinates (Angstroms)
 Number     Number       Type             X           Y           Z
 ---------------------------------------------------------------------
      1          6           0        4.007645    0.307355    0.280651
      2          6           0        2.675546    0.798777    0.431746
      3          6           0        1.744293   -0.125075    0.027827
      4          6           0        2.368221    2.156484    0.995666
      5          6           0        4.068525   -0.953974   -0.223837
      6          1           0        4.884272    0.880252    0.556166
      7         16           0        2.503029   -1.580035   -0.547150
      8          1           0        4.945873   -1.551474   -0.420785
      9          6           0        0.286874   -0.031163    0.011294
     10         16           0       -0.510230    1.355666   -0.710794
     11          6           0       -2.068307    0.685474   -0.369973
     12          6           0       -1.949883   -0.544189    0.247734
     13          6           0       -0.607652   -0.956688    0.468227
     14          1           0       -0.307211   -1.876329    0.951329
     15         16           0       -3.508958   -1.211905    0.595858
     16          6           0       -4.287645    0.177897   -0.096528
     17          6           0       -3.414694    1.106975   -0.568299
     18          1           0       -5.366295    0.222925   -0.115076
     19          1           0       -3.717378    2.034755   -1.032796
     20          1           0        3.123391    2.440314    1.732045
     21          1           0        1.391992    2.177729    1.482738
     22          1           0        2.366362    2.920967    0.212699
 ---------------------------------------------------------------------

 The electronic state is 1-A.
 Alpha  occ. eigenvalues --  -89.05094 -89.05050 -89.04707 -10.33721 -10.32653
 Alpha  occ. eigenvalues --  -10.32438 -10.32375 -10.32359 -10.31701 -10.30554
 Alpha  occ. eigenvalues --  -10.30481 -10.30428 -10.29216 -10.28527  -8.09139
 Alpha  occ. eigenvalues --   -8.09097  -8.08790  -6.03988  -6.03951  -6.03618
 Alpha  occ. eigenvalues --   -6.03614  -6.03578  -6.03234  -6.03202  -6.03143
 Alpha  occ. eigenvalues --   -6.02897  -1.02241  -0.99675  -0.95305  -0.87573
 Alpha  occ. eigenvalues --   -0.87161  -0.85550  -0.81083  -0.80207  -0.77586
 Alpha  occ. eigenvalues --   -0.70585  -0.66833  -0.65989  -0.62798  -0.61071
 Alpha  occ. eigenvalues --   -0.58823  -0.58485  -0.52853  -0.52320  -0.52239
 Alpha  occ. eigenvalues --   -0.50580  -0.50092  -0.47982  -0.47500  -0.47089
 Alpha  occ. eigenvalues --   -0.46264  -0.45341  -0.44837  -0.42979  -0.42353
 Alpha  occ. eigenvalues --   -0.41925  -0.36998  -0.33384  -0.32614  -0.30833
 Alpha  occ. eigenvalues --   -0.28286
 Alpha virt. eigenvalues --    0.01218   0.05086   0.05550   0.05931   0.06531
 Alpha virt. eigenvalues --    0.06740   0.07194   0.07243   0.08159   0.08728
 Alpha virt. eigenvalues --    0.09095   0.09460   0.09657   0.09816   0.10675

 Mulliken charges:
               1
     1  C   -0.040856
     2  C   -0.270257
     3  C    0.470613
     4  C   -0.921410
     5  C   -0.171083
     6  H    0.151101
     7  S   -0.330241
     8  H    0.186345
     9  C    0.642915
    10  S   -0.585921
    11  C    0.370572
    12  C   -0.661225
    13  C    0.689437
    14  H    0.172842
    15  S   -0.432829
    16  C   -0.215415
    17  C    0.051896
    18  H    0.193417
    19  H    0.162198
    20  H    0.159967
    21  H    0.181734
    22  H    0.196196
 Sum of Mulliken charges =  -0.00000

 Dipole moment (field-independent basis, Debye):
    X=              0.3313    Y=              0.8597    Z=              0.3859  Tot=              0.9989
 Quadrupole moment (field-independent basis, Debye-Ang):
   XX=            -86.4638   YY=            -98.3146   ZZ=           -106.7679
   XY=             -2.0233   XZ=              2.4533   YZ=             -0.9771

 Normal termination of Gaussian 16 at Tue Oct 26 02:10:57 2021.
