 Gaussian 16, Revision C.01,
 Gaussian 16:  ES64L-G16RevC.01  3-Jul-2019

 --------------------------------------
 # opt=modredundant wb97xd/6-311+g(d,p)
 --------------------------------------

 -------------
 pBTTT_-90.pdb
 -------------
 Symbolic Z-matrix:
 Charge =  0 Multiplicity = 1

 SCF Done:  E(RwB97XD) =  -1618.45855893     A.U. after   17 cycles
 SCF Done:  E(RwB97XD) =  -1618.49368766     A.U. after   16 cycles
 SCF Done:  E(RwB97XD) =  -1618.50448823     A.U. after   16 cycles
 SCF Done:  E(RwB97XD) =  -1618.50701128     A.U. after   17 cycles
 SCF Done:  E(RwB97XD) =  -1618.50724442     A.U. after   15 cycles
 SCF Done:  E(RwB97XD) =  -1618.50792016     A.U. after   14 cycles
 SCF Done:  E(RwB97XD) =  -1618.50788594     A.U. after   13 cycles
 SCF Done:  E(RwB97XD) =  -1618.50790483     A.U. after   13 cycles
 SCF Done:  E(RwB97XD) =  -1618.50796838     A.U. after   13 cycles
 SCF Done:  E(RwB97XD) =  -1618.50797270     A.U. after   12 cycles
 SCF Done:  E(RwB97XD) =  -1618.50829134     A.U. after   14 cycles
 SCF Done:  E(RwB97XD) =  -1618.50872243     A.U. after   13 cycles
 SCF Done:  E(RwB97XD) =  -1618.50878677     A.U. after   13 cycles
 SCF Done:  E(RwB97XD) =  -1618.50879363     A.U. after   13 cycles
 SCF Done:  E(RwB97XD) =  -1618.50868738     A.U. after   14 cycles
 SCF Done:  E(RwB97XD) =  -1618.50875050     A.U. after   14 cycles
 SCF Done:  E(RwB97XD) =  -1618.50879568     A.U. after   13 cycles
 SCF Done:  E(RwB97XD) =  -1618.50880398     A.U. after   12 cycles
 SCF Done:  E(RwB97XD) =  -1618.50880393     A.U. after   10 cycles
 SCF Done:  E(RwB97XD) =  -1618.50880393     A.U. after   10 cycles
 Optimization completed.
    -- Stationary point found.

                         Standard orientation:
 ---------------------------------------------------------------------
 Center     Atomic      Atomic             Coordinates (Angstroms)
 Number     Number       Type             X           Y           Z
 ---------------------------------------------------------------------
      1          6           0        3.956752    0.662877   -0.121545
      2          6           0        2.580970    1.029307    0.001096
      3          6           0        1.753793   -0.057693   -0.096880
      4          6           0        2.113632    2.438232    0.214276
      5          6           0        4.143906   -0.671710   -0.302287
      6          1           0        4.769400    1.377085   -0.076076
      7         16           0        2.654080   -1.525953   -0.331024
      8          1           0        5.076618   -1.201867   -0.424422
      9          6           0        0.289609   -0.077908   -0.022373
     10         16           0       -0.510955   -0.285588    1.524736
     11          6           0       -2.065612   -0.161979    0.776756
     12          6           0       -1.942519    0.028243   -0.586136
     13          6           0       -0.597145    0.075542   -1.045901
     14          1           0       -0.286497    0.216678   -2.071883
     15         16           0       -3.498398    0.156480   -1.335026
     16          6           0       -4.282839   -0.048372    0.201000
     17          6           0       -3.414575   -0.206932    1.234458
     18          1           0       -5.361611   -0.039606    0.246957
     19          1           0       -3.721477   -0.347657    2.261175
     20          1           0        2.485026    3.093828   -0.578262
     21          1           0        2.482937    2.829311    1.166655
     22          1           0        1.024129    2.495568    0.222095
 ---------------------------------------------------------------------

 The electronic state is 1-A.
 Alpha  occ. eigenvalues --  -89.05122 -89.04954 -89.04590 -10.33507 -10.32441
 Alpha  occ. eigenvalues --  -10.32415 -10.32400 -10.32369 -10.31725 -10.30582
 Alpha  occ. eigenvalues --  -10.30552 -10.30401 -10.29142 -10.28396  -8.09167
 Alpha  occ. eigenvalues --   -8.08993  -8.08669  -6.04016  -6.03844  -6.03643
 Alpha  occ. eigenvalues --   -6.03495  -6.03471  -6.03230  -6.03113  -6.03048
 Alpha  occ. eigenvalues --   -6.02780  -1.02202  -0.99588  -0.95279  -0.87536
 Alpha  occ. eigenvalues --   -0.87006  -0.85448  -0.81071  -0.80263  -0.77420
 Alpha  occ. eigenvalues --   -0.70508  -0.66607  -0.65763  -0.63284  -0.60919
 Alpha  occ. eigenvalues --   -0.58722  -0.58451  -0.52922  -0.52279  -0.52178
 Alpha  occ. eigenvalues --   -0.50336  -0.50297  -0.47886  -0.47512  -0.46985
 Alpha  occ. eigenvalues --   -0.45972  -0.45266  -0.44784  -0.42977  -0.42110
 Alpha  occ. eigenvalues --   -0.42000  -0.36918  -0.32767  -0.31535  -0.30942
 Alpha  occ. eigenvalues --   -0.29722
 Alpha virt. eigenvalues --    0.02367   0.04030   0.05540   0.05863   0.06561
 Alpha virt. eigenvalues --    0.06962   0.07082   0.07108   0.07896   0.08833
 Alpha virt. eigenvalues --    0.08920   0.09339   0.09505   0.09962   0.10216

 Mulliken charges:
               1
     1  C   -0.071590
     2  C   -0.072027
     3  C    0.228485
     4  C   -0.739205
     5  C   -0.133633
     6  H    0.153031
     7  S   -0.252195
     8  H    0.186114
     9  C    0.280048
    10  S   -0.577647
    11  C    0.232858
    12  C   -0.584206
    13  C    0.588146
    14  H    0.167337
    15  S   -0.436936
    16  C   -0.220138
    17  C    0.343796
    18  H    0.193472
    19  H    0.162687
    20  H    0.174002
    21  H    0.181510
    22  H    0.196091
 Sum of Mulliken charges =  -0.00000

 Dipole moment (field-independent basis, Debye):
    X=              0.2171    Y=              0.9959    Z=              0.0886  Tot=              1.0232
 Quadrupole moment (field-independent basis, Debye-Ang):
   XX=            -86.6811   YY=           -103.3827   ZZ=           -101.6886
   XY=              2.1505   XZ=             -3.7515   YZ=             -0.3433

 Normal termination of Gaussian 16 at Tue Oct 26 02:11:23 2021.
