 Gaussian 16, Revision C.01,
 Gaussian 16:  ES64L-G16RevC.01  3-Jul-2019

 --------------------------------------
 # opt=modredundant wb97xd/6-311+g(d,p)
 --------------------------------------

 -------------
 pBTTT_150.pdb
 -------------
 Symbolic Z-matrix:
 Charge =  0 Multiplicity = 1

 SCF Done:  E(RwB97XD) =  -1618.46104074     A.U. after   18 cycles
 SCF Done:  E(RwB97XD) =  -1618.49485777     A.U. after   16 cycles
 SCF Done:  E(RwB97XD) =  -1618.50477010     A.U. after   15 cycles
 SCF Done:  E(RwB97XD) =  -1618.50741167     A.U. after   14 cycles
 SCF Done:  E(RwB97XD) =  -1618.50794111     A.U. after   14 cycles
 SCF Done:  E(RwB97XD) =  -1618.50859653     A.U. after   13 cycles
 SCF Done:  E(RwB97XD) =  -1618.50864394     A.U. after   13 cycles
 SCF Done:  E(RwB97XD) =  -1618.50878094     A.U. after   12 cycles
 SCF Done:  E(RwB97XD) =  -1618.50883469     A.U. after   12 cycles
 SCF Done:  E(RwB97XD) =  -1618.50885456     A.U. after   12 cycles
 SCF Done:  E(RwB97XD) =  -1618.50886085     A.U. after   11 cycles
 SCF Done:  E(RwB97XD) =  -1618.50886323     A.U. after   10 cycles
 SCF Done:  E(RwB97XD) =  -1618.50886344     A.U. after    9 cycles
 Optimization completed.
    -- Stationary point found.

                         Standard orientation:
 ---------------------------------------------------------------------
 Center     Atomic      Atomic             Coordinates (Angstroms)
 Number     Number       Type             X           Y           Z
 ---------------------------------------------------------------------
      1          6           0       -3.939402    0.788277    0.050790
      2          6           0       -2.560290    1.112057    0.223566
      3          6           0       -1.748469    0.026305   -0.005350
      4          6           0       -2.094245    2.476153    0.640690
      5          6           0       -4.154800   -0.507190   -0.299987
      6          1           0       -4.737802    1.504573    0.199130
      7         16           0       -2.681040   -1.375146   -0.446671
      8          1           0       -5.096667   -1.003639   -0.477777
      9          6           0       -0.293569   -0.035759    0.023179
     10         16           0        0.519113   -1.524760    0.479816
     11          6           0        2.070078   -0.802060    0.224920
     12          6           0        1.939552    0.512618   -0.175441
     13          6           0        0.594032    0.952458   -0.301372
     14          1           0        0.293233    1.929827   -0.648510
     15         16           0        3.491942    1.236467   -0.428832
     16          6           0        4.284003   -0.245596    0.012182
     17          6           0        3.419513   -1.243640    0.335598
     18          1           0        5.362813   -0.289007    0.005300
     19          1           0        3.730475   -2.234614    0.634589
     20          1           0       -2.872087    2.984520    1.214180
     21          1           0       -1.863551    3.103677   -0.226547
     22          1           0       -1.195068    2.417963    1.257974
 ---------------------------------------------------------------------

 The electronic state is 1-A.
 Alpha  occ. eigenvalues --  -89.05116 -89.05015 -89.04785 -10.33877 -10.32859
 Alpha  occ. eigenvalues --  -10.32450 -10.32378 -10.32349 -10.31782 -10.30553
 Alpha  occ. eigenvalues --  -10.30527 -10.30504 -10.29315 -10.28857  -8.09162
 Alpha  occ. eigenvalues --   -8.09068  -8.08877  -6.04010  -6.03925  -6.03708
 Alpha  occ. eigenvalues --   -6.03637  -6.03552  -6.03322  -6.03224  -6.03108
 Alpha  occ. eigenvalues --   -6.02979  -1.02284  -0.99782  -0.95329  -0.88042
 Alpha  occ. eigenvalues --   -0.86815  -0.85799  -0.81097  -0.80281  -0.77783
 Alpha  occ. eigenvalues --   -0.70676  -0.66628  -0.66381  -0.63077  -0.61041
 Alpha  occ. eigenvalues --   -0.58860  -0.58542  -0.52949  -0.52502  -0.52223
 Alpha  occ. eigenvalues --   -0.50730  -0.50018  -0.48185  -0.47734  -0.47130
 Alpha  occ. eigenvalues --   -0.46293  -0.45893  -0.44354  -0.43072  -0.42764
 Alpha  occ. eigenvalues --   -0.41768  -0.37108  -0.33982  -0.32792  -0.30837
 Alpha  occ. eigenvalues --   -0.27733
 Alpha virt. eigenvalues --    0.00729   0.05092   0.05660   0.06002   0.06452
 Alpha virt. eigenvalues --    0.06811   0.07130   0.07580   0.08067   0.09029
 Alpha virt. eigenvalues --    0.09207   0.09391   0.09606   0.09935   0.10594

 Mulliken charges:
               1
     1  C   -0.017754
     2  C    0.475058
     3  C    0.474383
     4  C   -1.130223
     5  C   -0.090000
     6  H    0.148689
     7  S   -0.500437
     8  H    0.186107
     9  C    0.387804
    10  S   -0.550523
    11  C    0.523394
    12  C    0.145278
    13  C   -0.140603
    14  H    0.163905
    15  S   -0.453098
    16  C   -0.110981
    17  C   -0.398535
    18  H    0.193235
    19  H    0.162807
    20  H    0.163387
    21  H    0.187744
    22  H    0.180363
 Sum of Mulliken charges =  -0.00000

 Dipole moment (field-independent basis, Debye):
    X=             -0.2926    Y=              0.8854    Z=              0.1718  Tot=              0.9482
 Quadrupole moment (field-independent basis, Debye-Ang):
   XX=            -86.4632   YY=            -96.9949   ZZ=           -108.1640
   XY=             -5.2571   XZ=              0.8632   YZ=             -0.5888

 Normal termination of Gaussian 16 at Tue Oct 26 02:06:42 2021.
