 Gaussian 16, Revision C.01,
 Gaussian 16:  ES64L-G16RevC.01  3-Jul-2019

 --------------------------------------
 # opt=modredundant wb97xd/6-311+g(d,p)
 --------------------------------------

 --------------
 pBTTT_-150.pdb
 --------------
 Symbolic Z-matrix:
 Charge =  0 Multiplicity = 1

 SCF Done:  E(RwB97XD) =  -1618.46015752     A.U. after   18 cycles
 SCF Done:  E(RwB97XD) =  -1618.49390784     A.U. after   16 cycles
 SCF Done:  E(RwB97XD) =  -1618.50424549     A.U. after   15 cycles
 SCF Done:  E(RwB97XD) =  -1618.50696139     A.U. after   14 cycles
 SCF Done:  E(RwB97XD) =  -1618.50774868     A.U. after   14 cycles
 SCF Done:  E(RwB97XD) =  -1618.50852629     A.U. after   13 cycles
 SCF Done:  E(RwB97XD) =  -1618.50867257     A.U. after   13 cycles
 SCF Done:  E(RwB97XD) =  -1618.50875609     A.U. after   12 cycles
 SCF Done:  E(RwB97XD) =  -1618.50881835     A.U. after   12 cycles
 SCF Done:  E(RwB97XD) =  -1618.50885693     A.U. after   13 cycles
 SCF Done:  E(RwB97XD) =  -1618.50886362     A.U. after   11 cycles
 SCF Done:  E(RwB97XD) =  -1618.50886437     A.U. after   11 cycles
 SCF Done:  E(RwB97XD) =  -1618.50886486     A.U. after   10 cycles
 Optimization completed.
    -- Stationary point found.

                         Standard orientation:
 ---------------------------------------------------------------------
 Center     Atomic      Atomic             Coordinates (Angstroms)
 Number     Number       Type             X           Y           Z
 ---------------------------------------------------------------------
      1          6           0        3.939657    0.787867    0.050966
      2          6           0        2.560582    1.112060    0.223506
      3          6           0        1.748453    0.026511   -0.005568
      4          6           0        2.094920    2.476263    0.640800
      5          6           0        4.154721   -0.507617   -0.299918
      6          1           0        4.738215    1.503922    0.199545
      7         16           0        2.680752   -1.375186   -0.446874
      8          1           0        5.096492   -1.004307   -0.477589
      9          6           0        0.293541   -0.035454    0.023124
     10         16           0       -0.519012   -1.524477    0.480056
     11          6           0       -2.070074   -0.801983    0.224992
     12          6           0       -1.939691    0.512610   -0.175637
     13          6           0       -0.594206    0.952535   -0.301892
     14          1           0       -0.293633    1.929759   -0.649620
     15         16           0       -3.492175    1.236401   -0.428788
     16          6           0       -4.284083   -0.245708    0.012397
     17          6           0       -3.419484   -1.243663    0.335874
     18          1           0       -5.362885   -0.289357    0.005129
     19          1           0       -3.730311   -2.234881    0.634190
     20          1           0        2.873007    2.984388    1.214183
     21          1           0        1.195875    2.418231    1.258293
     22          1           0        1.864203    3.103919   -0.226283
 ---------------------------------------------------------------------

 The electronic state is 1-A.
 Alpha  occ. eigenvalues --  -89.05116 -89.05015 -89.04785 -10.33878 -10.32860
 Alpha  occ. eigenvalues --  -10.32451 -10.32378 -10.32349 -10.31783 -10.30553
 Alpha  occ. eigenvalues --  -10.30529 -10.30505 -10.29315 -10.28856  -8.09162
 Alpha  occ. eigenvalues --   -8.09068  -8.08877  -6.04010  -6.03925  -6.03708
 Alpha  occ. eigenvalues --   -6.03638  -6.03552  -6.03322  -6.03224  -6.03108
 Alpha  occ. eigenvalues --   -6.02979  -1.02283  -0.99780  -0.95328  -0.88041
 Alpha  occ. eigenvalues --   -0.86815  -0.85799  -0.81097  -0.80281  -0.77782
 Alpha  occ. eigenvalues --   -0.70676  -0.66628  -0.66380  -0.63077  -0.61040
 Alpha  occ. eigenvalues --   -0.58860  -0.58542  -0.52949  -0.52501  -0.52221
 Alpha  occ. eigenvalues --   -0.50730  -0.50018  -0.48184  -0.47734  -0.47130
 Alpha  occ. eigenvalues --   -0.46292  -0.45893  -0.44355  -0.43071  -0.42764
 Alpha  occ. eigenvalues --   -0.41767  -0.37107  -0.33981  -0.32792  -0.30837
 Alpha  occ. eigenvalues --   -0.27734
 Alpha virt. eigenvalues --    0.00729   0.05091   0.05660   0.06002   0.06452
 Alpha virt. eigenvalues --    0.06811   0.07131   0.07580   0.08067   0.09029
 Alpha virt. eigenvalues --    0.09207   0.09391   0.09606   0.09935   0.10593

 Mulliken charges:
               1
     1  C   -0.018215
     2  C    0.474712
     3  C    0.474624
     4  C   -1.129738
     5  C   -0.089944
     6  H    0.148692
     7  S   -0.500425
     8  H    0.186108
     9  C    0.388291
    10  S   -0.550616
    11  C    0.523020
    12  C    0.145499
    13  C   -0.140985
    14  H    0.163913
    15  S   -0.453072
    16  C   -0.111047
    17  C   -0.398328
    18  H    0.193239
    19  H    0.162809
    20  H    0.163355
    21  H    0.180369
    22  H    0.187740
 Sum of Mulliken charges =  -0.00000

 Dipole moment (field-independent basis, Debye):
    X=              0.2927    Y=              0.8848    Z=              0.1709  Tot=              0.9475
 Quadrupole moment (field-independent basis, Debye-Ang):
   XX=            -86.4626   YY=            -96.9936   ZZ=           -108.1643
   XY=              5.2577   XZ=             -0.8567   YZ=             -0.5885

 Normal termination of Gaussian 16 at Tue Oct 26 01:21:53 2021.
