 Gaussian 16, Revision C.01,
 Gaussian 16:  ES64L-G16RevC.01  3-Jul-2019

 --------------------------------------
 # opt=modredundant wb97xd/6-311+g(d,p)
 --------------------------------------

 ------------
 pBTTT_55.pdb
 ------------
 Symbolic Z-matrix:
 Charge =  0 Multiplicity = 1

 SCF Done:  E(RwB97XD) =  -1618.46007151     A.U. after   18 cycles
 SCF Done:  E(RwB97XD) =  -1618.49456544     A.U. after   16 cycles
 SCF Done:  E(RwB97XD) =  -1618.50495091     A.U. after   16 cycles
 SCF Done:  E(RwB97XD) =  -1618.50735186     A.U. after   15 cycles
 SCF Done:  E(RwB97XD) =  -1618.50772590     A.U. after   14 cycles
 SCF Done:  E(RwB97XD) =  -1618.50844288     A.U. after   14 cycles
 SCF Done:  E(RwB97XD) =  -1618.50855579     A.U. after   14 cycles
 SCF Done:  E(RwB97XD) =  -1618.50863855     A.U. after   13 cycles
 SCF Done:  E(RwB97XD) =  -1618.50875534     A.U. after   13 cycles
 SCF Done:  E(RwB97XD) =  -1618.50885300     A.U. after   14 cycles
 SCF Done:  E(RwB97XD) =  -1618.50899839     A.U. after   13 cycles
 SCF Done:  E(RwB97XD) =  -1618.50911719     A.U. after   14 cycles
 SCF Done:  E(RwB97XD) =  -1618.50916254     A.U. after   13 cycles
 SCF Done:  E(RwB97XD) =  -1618.50916286     A.U. after   12 cycles
 SCF Done:  E(RwB97XD) =  -1618.50916693     A.U. after   12 cycles
 SCF Done:  E(RwB97XD) =  -1618.50916710     A.U. after   10 cycles
 SCF Done:  E(RwB97XD) =  -1618.50916715     A.U. after   10 cycles
 Optimization completed.
    -- Stationary point found.

                         Standard orientation:
 ---------------------------------------------------------------------
 Center     Atomic      Atomic             Coordinates (Angstroms)
 Number     Number       Type             X           Y           Z
 ---------------------------------------------------------------------
      1          6           0        4.003388    0.314782    0.313589
      2          6           0        2.666443    0.791348    0.470698
      3          6           0        1.745582   -0.123112    0.025771
      4          6           0        2.340403    2.125716    1.077276
      5          6           0        4.076282   -0.927676   -0.234501
      6          1           0        4.874118    0.883179    0.615853
      7         16           0        2.517650   -1.553164   -0.591100
      8          1           0        4.959331   -1.511965   -0.445331
      9          6           0        0.287052   -0.033474    0.007875
     10         16           0       -0.509678    1.317598   -0.779260
     11          6           0       -2.067653    0.665542   -0.404392
     12          6           0       -1.949057   -0.533924    0.270336
     13          6           0       -0.606417   -0.936714    0.507601
     14          1           0       -0.304557   -1.833746    1.030639
     15         16           0       -3.507828   -1.184260    0.650874
     16          6           0       -4.286895    0.171998   -0.104460
     17          6           0       -3.414329    1.077645   -0.620373
     18          1           0       -5.365560    0.216592   -0.123591
     19          1           0       -3.717346    1.982750   -1.127433
     20          1           0        3.054405    2.368291    1.867710
     21          1           0        1.337765    2.135963    1.507596
     22          1           0        2.390745    2.923363    0.329820
 ---------------------------------------------------------------------

 The electronic state is 1-A.
 Alpha  occ. eigenvalues --  -89.05098 -89.05031 -89.04693 -10.33677 -10.32600
 Alpha  occ. eigenvalues --  -10.32438 -10.32374 -10.32365 -10.31698 -10.30553
 Alpha  occ. eigenvalues --  -10.30503 -10.30410 -10.29202 -10.28495  -8.09143
 Alpha  occ. eigenvalues --   -8.09076  -8.08775  -6.03992  -6.03930  -6.03619
 Alpha  occ. eigenvalues --   -6.03602  -6.03557  -6.03218  -6.03206  -6.03123
 Alpha  occ. eigenvalues --   -6.02883  -1.02232  -0.99660  -0.95299  -0.87539
 Alpha  occ. eigenvalues --   -0.87154  -0.85529  -0.81080  -0.80214  -0.77550
 Alpha  occ. eigenvalues --   -0.70569  -0.66792  -0.65956  -0.62868  -0.61046
 Alpha  occ. eigenvalues --   -0.58800  -0.58475  -0.52858  -0.52300  -0.52239
 Alpha  occ. eigenvalues --   -0.50549  -0.50107  -0.47958  -0.47496  -0.47080
 Alpha  occ. eigenvalues --   -0.46212  -0.45279  -0.44862  -0.42976  -0.42311
 Alpha  occ. eigenvalues --   -0.41943  -0.36976  -0.33223  -0.32545  -0.30834
 Alpha  occ. eigenvalues --   -0.28486
 Alpha virt. eigenvalues --    0.01383   0.04970   0.05554   0.05915   0.06546
 Alpha virt. eigenvalues --    0.06774   0.07163   0.07184   0.08122   0.08733
 Alpha virt. eigenvalues --    0.09049   0.09492   0.09629   0.09814   0.10603

 Mulliken charges:
               1
     1  C   -0.015518
     2  C   -0.319605
     3  C    0.439424
     4  C   -0.916192
     5  C   -0.187618
     6  H    0.151372
     7  S   -0.299382
     8  H    0.186384
     9  C    0.682676
    10  S   -0.573591
    11  C    0.359719
    12  C   -0.632096
    13  C    0.647031
    14  H    0.172196
    15  S   -0.428583
    16  C   -0.215028
    17  C    0.056129
    18  H    0.193462
    19  H    0.162258
    20  H    0.160489
    21  H    0.181338
    22  H    0.195135
 Sum of Mulliken charges =  -0.00000

 Dipole moment (field-independent basis, Debye):
    X=              0.3157    Y=              0.8419    Z=              0.4188  Tot=              0.9919
 Quadrupole moment (field-independent basis, Debye-Ang):
   XX=            -86.4992   YY=            -98.7545   ZZ=           -106.3123
   XY=             -1.9765   XZ=              2.6732   YZ=             -1.0412

 Normal termination of Gaussian 16 at Tue Oct 26 01:58:23 2021.
