 Gaussian 16, Revision C.01,
 Gaussian 16:  ES64L-G16RevC.01  3-Jul-2019

 --------------------------------------
 # opt=modredundant wb97xd/6-311+g(d,p)
 --------------------------------------

 ------------
 pBTTT_45.pdb
 ------------
 Symbolic Z-matrix:
 Charge =  0 Multiplicity = 1

 SCF Done:  E(RwB97XD) =  -1618.46039496     A.U. after   19 cycles
 SCF Done:  E(RwB97XD) =  -1618.49451760     A.U. after   16 cycles
 SCF Done:  E(RwB97XD) =  -1618.50487465     A.U. after   16 cycles
 SCF Done:  E(RwB97XD) =  -1618.50730313     A.U. after   16 cycles
 SCF Done:  E(RwB97XD) =  -1618.50772192     A.U. after   15 cycles
 SCF Done:  E(RwB97XD) =  -1618.50845141     A.U. after   14 cycles
 SCF Done:  E(RwB97XD) =  -1618.50858530     A.U. after   13 cycles
 SCF Done:  E(RwB97XD) =  -1618.50866637     A.U. after   13 cycles
 SCF Done:  E(RwB97XD) =  -1618.50876391     A.U. after   12 cycles
 SCF Done:  E(RwB97XD) =  -1618.50888229     A.U. after   13 cycles
 SCF Done:  E(RwB97XD) =  -1618.50895937     A.U. after   13 cycles
 SCF Done:  E(RwB97XD) =  -1618.50898420     A.U. after   13 cycles
 SCF Done:  E(RwB97XD) =  -1618.50898569     A.U. after   11 cycles
 SCF Done:  E(RwB97XD) =  -1618.50898610     A.U. after   10 cycles
 SCF Done:  E(RwB97XD) =  -1618.50898617     A.U. after   10 cycles
 Optimization completed.
    -- Stationary point found.

                         Standard orientation:
 ---------------------------------------------------------------------
 Center     Atomic      Atomic             Coordinates (Angstroms)
 Number     Number       Type             X           Y           Z
 ---------------------------------------------------------------------
      1          6           0        4.011434    0.299892    0.250403
      2          6           0        2.683873    0.805797    0.392059
      3          6           0        1.743213   -0.126205    0.028569
      4          6           0        2.393920    2.185996    0.909433
      5          6           0        4.061522   -0.978849   -0.209096
      6          1           0        4.893218    0.876692    0.500085
      7         16           0        2.490087   -1.604733   -0.501566
      8          1           0        4.933571   -1.588996   -0.389914
      9          6           0        0.286796   -0.028634    0.012785
     10         16           0       -0.511757    1.390268   -0.643019
     11          6           0       -2.069433    0.703330   -0.335765
     12          6           0       -1.950382   -0.553415    0.224349
     13          6           0       -0.608363   -0.974160    0.427474
     14          1           0       -0.308860   -1.914297    0.870054
     15         16           0       -3.509296   -1.237227    0.540579
     16          6           0       -4.288491    0.182807   -0.086903
     17          6           0       -3.415755    1.133156   -0.514793
     18          1           0       -5.367150    0.228000   -0.103994
     19          1           0       -3.718686    2.081320   -0.935958
     20          1           0        3.186682    2.508997    1.587658
     21          1           0        1.447014    2.222875    1.450663
     22          1           0        2.339671    2.914206    0.094410
 ---------------------------------------------------------------------

 The electronic state is 1-A.
 Alpha  occ. eigenvalues --  -89.05090 -89.05069 -89.04720 -10.33767 -10.32709
 Alpha  occ. eigenvalues --  -10.32437 -10.32374 -10.32351 -10.31707 -10.30555
 Alpha  occ. eigenvalues --  -10.30458 -10.30449 -10.29231 -10.28563  -8.09134
 Alpha  occ. eigenvalues --   -8.09116  -8.08805  -6.03983  -6.03972  -6.03633
 Alpha  occ. eigenvalues --   -6.03610  -6.03598  -6.03249  -6.03197  -6.03161
 Alpha  occ. eigenvalues --   -6.02911  -1.02250  -0.99693  -0.95310  -0.87614
 Alpha  occ. eigenvalues --   -0.87167  -0.85571  -0.81085  -0.80200  -0.77624
 Alpha  occ. eigenvalues --   -0.70602  -0.66878  -0.66020  -0.62728  -0.61098
 Alpha  occ. eigenvalues --   -0.58848  -0.58497  -0.52849  -0.52347  -0.52239
 Alpha  occ. eigenvalues --   -0.50607  -0.50085  -0.48011  -0.47505  -0.47094
 Alpha  occ. eigenvalues --   -0.46318  -0.45412  -0.44807  -0.42985  -0.42395
 Alpha  occ. eigenvalues --   -0.41898  -0.37024  -0.33549  -0.32668  -0.30835
 Alpha  occ. eigenvalues --   -0.28096
 Alpha virt. eigenvalues --    0.01062   0.05182   0.05546   0.05946   0.06515
 Alpha virt. eigenvalues --    0.06711   0.07204   0.07336   0.08197   0.08724
 Alpha virt. eigenvalues --    0.09141   0.09411   0.09684   0.09837   0.10728

 Mulliken charges:
               1
     1  C   -0.061474
     2  C   -0.201857
     3  C    0.493443
     4  C   -0.935339
     5  C   -0.151689
     6  H    0.150727
     7  S   -0.364755
     8  H    0.186314
     9  C    0.586292
    10  S   -0.597242
    11  C    0.373746
    12  C   -0.696068
    13  C    0.751338
    14  H    0.173091
    15  S   -0.437610
    16  C   -0.216741
    17  C    0.053120
    18  H    0.193363
    19  H    0.162111
    20  H    0.159852
    21  H    0.182620
    22  H    0.196757
 Sum of Mulliken charges =  -0.00000

 Dipole moment (field-independent basis, Debye):
    X=              0.3488    Y=              0.8765    Z=              0.3554  Tot=              1.0081
 Quadrupole moment (field-independent basis, Debye-Ang):
   XX=            -86.4170   YY=            -97.9066   ZZ=           -107.2000
   XY=             -2.0617   XZ=              2.2343   YZ=             -0.9006

 Normal termination of Gaussian 16 at Tue Oct 26 02:05:09 2021.
