 Gaussian 16, Revision C.01,
 Gaussian 16:  ES64L-G16RevC.01  3-Jul-2019

 --------------------------------------
 # opt=modredundant wb97xd/6-311+g(d,p)
 --------------------------------------

 -------------
 pBTTT_-50.pdb
 -------------
 Symbolic Z-matrix:
 Charge =  0 Multiplicity = 1

 SCF Done:  E(RwB97XD) =  -1618.46117473     A.U. after   18 cycles
 SCF Done:  E(RwB97XD) =  -1618.49537116     A.U. after   16 cycles
 SCF Done:  E(RwB97XD) =  -1618.50547647     A.U. after   16 cycles
 SCF Done:  E(RwB97XD) =  -1618.50770008     A.U. after   15 cycles
 SCF Done:  E(RwB97XD) =  -1618.50796323     A.U. after   16 cycles
 SCF Done:  E(RwB97XD) =  -1618.50862338     A.U. after   14 cycles
 SCF Done:  E(RwB97XD) =  -1618.50862138     A.U. after   14 cycles
 SCF Done:  E(RwB97XD) =  -1618.50875492     A.U. after   14 cycles
 SCF Done:  E(RwB97XD) =  -1618.50886375     A.U. after   12 cycles
 SCF Done:  E(RwB97XD) =  -1618.50903908     A.U. after   14 cycles
 SCF Done:  E(RwB97XD) =  -1618.50909378     A.U. after   13 cycles
 SCF Done:  E(RwB97XD) =  -1618.50910599     A.U. after   12 cycles
 SCF Done:  E(RwB97XD) =  -1618.50910846     A.U. after   11 cycles
 SCF Done:  E(RwB97XD) =  -1618.50910891     A.U. after   11 cycles
 SCF Done:  E(RwB97XD) =  -1618.50910897     A.U. after    9 cycles
 Optimization completed.
    -- Stationary point found.

                         Standard orientation:
 ---------------------------------------------------------------------
 Center     Atomic      Atomic             Coordinates (Angstroms)
 Number     Number       Type             X           Y           Z
 ---------------------------------------------------------------------
      1          6           0       -4.007637    0.307313    0.280661
      2          6           0       -2.675574    0.798730    0.431819
      3          6           0       -1.744287   -0.125128    0.027945
      4          6           0       -2.368160    2.156498    0.995540
      5          6           0       -4.068482   -0.953991   -0.223928
      6          1           0       -4.884299    0.880192    0.556113
      7         16           0       -2.502988   -1.580001   -0.547226
      8          1           0       -4.945859   -1.551416   -0.420961
      9          6           0       -0.286873   -0.031197    0.011524
     10         16           0        0.510135    1.355576   -0.710765
     11          6           0        2.068254    0.685499   -0.369926
     12          6           0        1.949897   -0.544134    0.247866
     13          6           0        0.607706   -0.956633    0.468527
     14          1           0        0.307309   -1.876257    0.951687
     15         16           0        3.509006   -1.211860    0.595784
     16          6           0        4.287614    0.177915   -0.096706
     17          6           0        3.414616    1.107005   -0.568351
     18          1           0        5.366262    0.222908   -0.115421
     19          1           0        3.717254    2.034744   -1.032960
     20          1           0       -3.123878    2.440893    1.731141
     21          1           0       -2.365294    2.920754    0.212343
     22          1           0       -1.392390    2.177502    1.483537
 ---------------------------------------------------------------------

 The electronic state is 1-A.
 Alpha  occ. eigenvalues --  -89.05094 -89.05050 -89.04707 -10.33720 -10.32652
 Alpha  occ. eigenvalues --  -10.32438 -10.32375 -10.32359 -10.31700 -10.30554
 Alpha  occ. eigenvalues --  -10.30481 -10.30427 -10.29216 -10.28527  -8.09139
 Alpha  occ. eigenvalues --   -8.09096  -8.08790  -6.03987  -6.03951  -6.03618
 Alpha  occ. eigenvalues --   -6.03614  -6.03578  -6.03234  -6.03201  -6.03142
 Alpha  occ. eigenvalues --   -6.02898  -1.02241  -0.99676  -0.95305  -0.87573
 Alpha  occ. eigenvalues --   -0.87161  -0.85550  -0.81083  -0.80207  -0.77586
 Alpha  occ. eigenvalues --   -0.70585  -0.66833  -0.65989  -0.62798  -0.61071
 Alpha  occ. eigenvalues --   -0.58823  -0.58485  -0.52853  -0.52320  -0.52239
 Alpha  occ. eigenvalues --   -0.50580  -0.50092  -0.47982  -0.47500  -0.47090
 Alpha  occ. eigenvalues --   -0.46264  -0.45341  -0.44837  -0.42979  -0.42353
 Alpha  occ. eigenvalues --   -0.41925  -0.36998  -0.33384  -0.32615  -0.30833
 Alpha  occ. eigenvalues --   -0.28286
 Alpha virt. eigenvalues --    0.01218   0.05086   0.05550   0.05931   0.06532
 Alpha virt. eigenvalues --    0.06740   0.07194   0.07242   0.08159   0.08728
 Alpha virt. eigenvalues --    0.09095   0.09460   0.09657   0.09816   0.10675

 Mulliken charges:
               1
     1  C   -0.040666
     2  C   -0.270862
     3  C    0.470580
     4  C   -0.921609
     5  C   -0.171239
     6  H    0.151092
     7  S   -0.330125
     8  H    0.186341
     9  C    0.643112
    10  S   -0.585874
    11  C    0.370740
    12  C   -0.660977
    13  C    0.689465
    14  H    0.172837
    15  S   -0.432814
    16  C   -0.215367
    17  C    0.051807
    18  H    0.193417
    19  H    0.162196
    20  H    0.159952
    21  H    0.196205
    22  H    0.181790
 Sum of Mulliken charges =  -0.00000

 Dipole moment (field-independent basis, Debye):
    X=             -0.3313    Y=              0.8595    Z=              0.3853  Tot=              0.9985
 Quadrupole moment (field-independent basis, Debye-Ang):
   XX=            -86.4647   YY=            -98.3149   ZZ=           -106.7670
   XY=              2.0224   XZ=             -2.4533   YZ=             -0.9774

 Normal termination of Gaussian 16 at Tue Oct 26 01:52:36 2021.
