 Gaussian 16, Revision C.01,
 Gaussian 16:  ES64L-G16RevC.01  3-Jul-2019

 --------------------------------------
 # opt=modredundant wb97xd/6-311+g(d,p)
 --------------------------------------

 -------------
 pBTTT_-65.pdb
 -------------
 Symbolic Z-matrix:
 Charge =  0 Multiplicity = 1

 SCF Done:  E(RwB97XD) =  -1618.45985589     A.U. after   18 cycles
 SCF Done:  E(RwB97XD) =  -1618.49463725     A.U. after   16 cycles
 SCF Done:  E(RwB97XD) =  -1618.50523986     A.U. after   16 cycles
 SCF Done:  E(RwB97XD) =  -1618.50750302     A.U. after   16 cycles
 SCF Done:  E(RwB97XD) =  -1618.50773901     A.U. after   15 cycles
 SCF Done:  E(RwB97XD) =  -1618.50841546     A.U. after   14 cycles
 SCF Done:  E(RwB97XD) =  -1618.50837191     A.U. after   14 cycles
 SCF Done:  E(RwB97XD) =  -1618.50851878     A.U. after   14 cycles
 SCF Done:  E(RwB97XD) =  -1618.50860660     A.U. after   12 cycles
 SCF Done:  E(RwB97XD) =  -1618.50891243     A.U. after   14 cycles
 SCF Done:  E(RwB97XD) =  -1618.50901004     A.U. after   14 cycles
 SCF Done:  E(RwB97XD) =  -1618.50910002     A.U. after   13 cycles
 SCF Done:  E(RwB97XD) =  -1618.50910900     A.U. after   12 cycles
 SCF Done:  E(RwB97XD) =  -1618.50911480     A.U. after   11 cycles
 SCF Done:  E(RwB97XD) =  -1618.50911520     A.U. after   11 cycles
 SCF Done:  E(RwB97XD) =  -1618.50911527     A.U. after   10 cycles
 SCF Done:  E(RwB97XD) =  -1618.50911527     A.U. after    9 cycles
 Optimization completed.
    -- Stationary point found.

                         Standard orientation:
 ---------------------------------------------------------------------
 Center     Atomic      Atomic             Coordinates (Angstroms)
 Number     Number       Type             X           Y           Z
 ---------------------------------------------------------------------
      1          6           0       -3.993979    0.330154    0.380148
      2          6           0       -2.646976    0.775352    0.546093
      3          6           0       -1.748378   -0.118282    0.023683
      4          6           0       -2.282445    2.061005    1.229386
      5          6           0       -4.093081   -0.870919   -0.250125
      6          1           0       -4.851637    0.888881    0.733480
      7         16           0       -2.549740   -1.494665   -0.671524
      8          1           0       -4.988130   -1.426667   -0.486337
      9          6           0       -0.287483   -0.037977   -0.000929
     10         16           0        0.509737    1.225258   -0.921685
     11          6           0        2.066982    0.616899   -0.477003
     12          6           0        1.947239   -0.506064    0.318783
     13          6           0        0.603639   -0.884408    0.590980
     14          1           0        0.298740   -1.725210    1.198739
     15         16           0        3.505083   -1.113729    0.767380
     16          6           0        4.285742    0.156018   -0.124145
     17          6           0        3.414469    1.003235   -0.733000
     18          1           0        5.364462    0.198410   -0.145734
     19          1           0        3.718710    1.850538   -1.331057
     20          1           0       -2.915776    2.221461    2.105258
     21          1           0       -2.420707    2.915338    0.559819
     22          1           0       -1.241305    2.057347    1.555856
 ---------------------------------------------------------------------

 The electronic state is 1-A.
 Alpha  occ. eigenvalues --  -89.05106 -89.04994 -89.04660 -10.33600 -10.32506
 Alpha  occ. eigenvalues --  -10.32437 -10.32378 -10.32371 -10.31699 -10.30551
 Alpha  occ. eigenvalues --  -10.30542 -10.30388 -10.29176 -10.28448  -8.09151
 Alpha  occ. eigenvalues --   -8.09036  -8.08739  -6.04000  -6.03889  -6.03627
 Alpha  occ. eigenvalues --   -6.03565  -6.03517  -6.03215  -6.03182  -6.03086
 Alpha  occ. eigenvalues --   -6.02849  -1.02216  -0.99630  -0.95288  -0.87493
 Alpha  occ. eigenvalues --   -0.87131  -0.85488  -0.81075  -0.80230  -0.77490
 Alpha  occ. eigenvalues --   -0.70540  -0.66719  -0.65883  -0.63009  -0.60999
 Alpha  occ. eigenvalues --   -0.58765  -0.58459  -0.52870  -0.52269  -0.52230
 Alpha  occ. eigenvalues --   -0.50485  -0.50155  -0.47921  -0.47492  -0.47048
 Alpha  occ. eigenvalues --   -0.46121  -0.45199  -0.44888  -0.42975  -0.42229
 Alpha  occ. eigenvalues --   -0.41962  -0.36944  -0.32962  -0.32303  -0.30846
 Alpha  occ. eigenvalues --   -0.28920
 Alpha virt. eigenvalues --    0.01731   0.04673   0.05563   0.05886   0.06572
 Alpha virt. eigenvalues --    0.06850   0.07047   0.07160   0.08051   0.08757
 Alpha virt. eigenvalues --    0.08958   0.09506   0.09582   0.09874   0.10421

 Mulliken charges:
               1
     1  C    0.030257
     2  C   -0.359505
     3  C    0.375438
     4  C   -0.920572
     5  C   -0.201889
     6  H    0.151662
     7  S   -0.250718
     8  H    0.186418
     9  C    0.732472
    10  S   -0.548702
    11  C    0.342760
    12  C   -0.572978
    13  C    0.552741
    14  H    0.170446
    15  S   -0.425091
    16  C   -0.214373
    17  C    0.057335
    18  H    0.193517
    19  H    0.162401
    20  H    0.162853
    21  H    0.192383
    22  H    0.183146
 Sum of Mulliken charges =  -0.00000

 Dipole moment (field-independent basis, Debye):
    X=             -0.2858    Y=              0.8084    Z=              0.4829  Tot=              0.9840
 Quadrupole moment (field-independent basis, Debye-Ang):
   XX=            -86.5503   YY=            -99.7745   ZZ=           -105.2766
   XY=              1.8225   XZ=             -3.1271   YZ=             -1.1419

 Normal termination of Gaussian 16 at Tue Oct 26 01:57:37 2021.
