 Gaussian 16, Revision C.01,
 Gaussian 16:  ES64L-G16RevC.01  3-Jul-2019

 ----------------------------------
 # opt=modredundant mp2/aug-cc-pvdz
 ----------------------------------

 ------------
 pBTTT_50.pdb
 ------------
 Symbolic Z-matrix:
 Charge =  0 Multiplicity = 1

 SCF Done:  E(RHF) =  -1649.64206829     A.U. after   17 cycles
 E2 =    -0.1968974638D+01 EUMP2 =    -0.16516110429241D+04
 SCF Done:  E(RHF) =  -1649.63280265     A.U. after   15 cycles
 E2 =    -0.1988425041D+01 EUMP2 =    -0.16516212276950D+04
 SCF Done:  E(RHF) =  -1649.63048898     A.U. after   14 cycles
 E2 =    -0.1991349906D+01 EUMP2 =    -0.16516218388836D+04
 SCF Done:  E(RHF) =  -1649.62994001     A.U. after   13 cycles
 E2 =    -0.1991962711D+01 EUMP2 =    -0.16516219027258D+04
 SCF Done:  E(RHF) =  -1649.63004736     A.U. after   11 cycles
 E2 =    -0.1991862462D+01 EUMP2 =    -0.16516219098228D+04
 SCF Done:  E(RHF) =  -1649.63013721     A.U. after   12 cycles
 E2 =    -0.1991775322D+01 EUMP2 =    -0.16516219125360D+04
 SCF Done:  E(RHF) =  -1649.63016258     A.U. after   11 cycles
 E2 =    -0.1991751166D+01 EUMP2 =    -0.16516219137498D+04
 SCF Done:  E(RHF) =  -1649.63015851     A.U. after   11 cycles
 E2 =    -0.1991755834D+01 EUMP2 =    -0.16516219143444D+04
 SCF Done:  E(RHF) =  -1649.63012174     A.U. after    9 cycles
 E2 =    -0.1991793095D+01 EUMP2 =    -0.16516219148317D+04
 SCF Done:  E(RHF) =  -1649.63009391     A.U. after    9 cycles
 E2 =    -0.1991821429D+01 EUMP2 =    -0.16516219153395D+04
 SCF Done:  E(RHF) =  -1649.63009951     A.U. after    9 cycles
 E2 =    -0.1991816062D+01 EUMP2 =    -0.16516219155721D+04
 SCF Done:  E(RHF) =  -1649.63011963     A.U. after    9 cycles
 E2 =    -0.1991796051D+01 EUMP2 =    -0.16516219156832D+04
 Optimization completed.
    -- Stationary point found.

                         Standard orientation:
 ---------------------------------------------------------------------
 Center     Atomic      Atomic             Coordinates (Angstroms)
 Number     Number       Type             X           Y           Z
 ---------------------------------------------------------------------
      1          6           0        4.031438    0.348584    0.322705
      2          6           0        2.692490    0.820586    0.421031
      3          6           0        1.737692   -0.106069   -0.015737
      4          6           0        4.096122   -0.947154   -0.181015
      5          1           0        4.913652    0.924859    0.614830
      6         16           0        2.525352   -1.568624   -0.550065
      7          1           0        4.982840   -1.554759   -0.361983
      8          6           0        0.287639   -0.004353    0.013829
      9         16           0       -0.519975    1.432297   -0.618455
     10          6           0       -2.086353    0.728844   -0.330541
     11          6           0       -1.962319   -0.573720    0.215331
     12          6           0       -0.618933   -0.991826    0.412436
     13          1           0       -0.295353   -1.944599    0.837201
     14         16           0       -3.531443   -1.264561    0.525306
     15          6           0       -4.323827    0.178029   -0.068067
     16          6           0       -3.436082    1.161373   -0.487085
     17          1           0       -5.414070    0.217404   -0.080408
     18          1           0       -3.755734    2.125666   -0.886130
     19          8           0        2.298877    2.053156    0.895755
     20          1           0        3.087492    2.534617    1.184546
 ---------------------------------------------------------------------

 The electronic state is 1-A.
 Alpha  occ. eigenvalues --  -91.99745 -91.99015 -91.98775 -20.61445 -11.32510
 Alpha  occ. eigenvalues --  -11.29285 -11.29183 -11.28012 -11.27834 -11.27514
 Alpha  occ. eigenvalues --  -11.27392 -11.26487 -11.26085 -11.25963  -8.99874
 Alpha  occ. eigenvalues --   -8.99128  -8.98868  -6.68037  -6.67945  -6.67759
 Alpha  occ. eigenvalues --   -6.67294  -6.67214  -6.67028  -6.67017  -6.66943
 Alpha  occ. eigenvalues --   -6.66744  -1.41516  -1.20136  -1.17655  -1.11571
 Alpha  occ. eigenvalues --   -1.02373  -1.01858  -0.98861  -0.94442  -0.93796
 Alpha  occ. eigenvalues --   -0.82499  -0.80528  -0.76367  -0.73964  -0.71389
 Alpha  occ. eigenvalues --   -0.69527  -0.66405  -0.65824  -0.60920  -0.60367
 Alpha  occ. eigenvalues --   -0.58533  -0.56574  -0.55493  -0.54048  -0.52759
 Alpha  occ. eigenvalues --   -0.52537  -0.50826  -0.49545  -0.48359  -0.45815
 Alpha  occ. eigenvalues --   -0.45662  -0.38687  -0.35219  -0.33456  -0.31632
 Alpha  occ. eigenvalues --   -0.26942
 Alpha virt. eigenvalues --    0.02791   0.03735   0.03945   0.04963   0.05111
 Alpha virt. eigenvalues --    0.06232   0.06356   0.08405   0.08575   0.09156
 Alpha virt. eigenvalues --    0.10245   0.10403   0.10465   0.10718   0.11161

 Mulliken charges:
               1
     1  C    0.442832
     2  C    0.543421
     3  C    0.625782
     4  C   -0.257189
     5  H   -0.415851
     6  S    0.422327
     7  H   -0.317418
     8  C    0.183408
     9  S    0.455257
    10  C   -0.562921
    11  C   -0.206257
    12  C    0.122853
    13  H   -0.444855
    14  S    0.599330
    15  C   -0.155968
    16  C    0.375817
    17  H   -0.349911
    18  H   -0.289171
    19  O   -0.966836
    20  H    0.195349
 Sum of Mulliken charges =  -0.00000

 Dipole moment (field-independent basis, Debye):
    X=              2.4568    Y=              0.7876    Z=              0.5409  Tot=              2.6360
 Quadrupole moment (field-independent basis, Debye-Ang):
   XX=            -76.5341   YY=            -97.9574   ZZ=           -108.7174
   XY=              0.3821   XZ=              4.7975   YZ=             -0.0010

 Normal termination of Gaussian 16 at Wed Oct 27 07:16:43 2021.
