 Gaussian 16, Revision C.01,
 Gaussian 16:  ES64L-G16RevC.01  3-Jul-2019

 ----------------------------------
 # opt=modredundant mp2/aug-cc-pvdz
 ----------------------------------

 -------------
 pBTTT_175.pdb
 -------------
 Symbolic Z-matrix:
 Charge =  0 Multiplicity = 1

 SCF Done:  E(RHF) =  -1649.64230598     A.U. after   17 cycles
 E2 =    -0.1970734777D+01 EUMP2 =    -0.16516130407557D+04
 SCF Done:  E(RHF) =  -1649.63301203     A.U. after   15 cycles
 E2 =    -0.1989984993D+01 EUMP2 =    -0.16516229970278D+04
 SCF Done:  E(RHF) =  -1649.63087231     A.U. after   15 cycles
 E2 =    -0.1992675705D+01 EUMP2 =    -0.16516235480112D+04
 SCF Done:  E(RHF) =  -1649.63043782     A.U. after   14 cycles
 E2 =    -0.1993153367D+01 EUMP2 =    -0.16516235911850D+04
 SCF Done:  E(RHF) =  -1649.63056600     A.U. after   11 cycles
 E2 =    -0.1993027502D+01 EUMP2 =    -0.16516235935000D+04
 SCF Done:  E(RHF) =  -1649.63062171     A.U. after   10 cycles
 E2 =    -0.1992972392D+01 EUMP2 =    -0.16516235941037D+04
 Optimization completed.
    -- Stationary point found.

                         Standard orientation:
 ---------------------------------------------------------------------
 Center     Atomic      Atomic             Coordinates (Angstroms)
 Number     Number       Type             X           Y           Z
 ---------------------------------------------------------------------
      1          6           0       -3.946816    0.892680    0.019876
      2          6           0       -2.553966    1.178843    0.037558
      3          6           0       -1.739537    0.036504   -0.005278
      4          6           0       -4.203286   -0.472559   -0.037103
      5          1           0       -4.732931    1.652028    0.048020
      6         16           0       -2.739361   -1.394866   -0.074715
      7          1           0       -5.167470   -0.979707   -0.062071
      8          6           0       -0.291335   -0.034259   -0.000679
      9         16           0        0.515003   -1.608827    0.072093
     10          6           0        2.085483   -0.855333    0.032420
     11          6           0        1.962321    0.554166   -0.026902
     12          6           0        0.622276    1.026373   -0.046940
     13          1           0        0.307736    2.068598   -0.094181
     14         16           0        3.534456    1.304827   -0.061100
     15          6           0        4.323239   -0.255103    0.003673
     16          6           0        3.431562   -1.320888    0.050273
     17          1           0        5.413282   -0.299708    0.003351
     18          1           0        3.747544   -2.364620    0.094014
     19          8           0       -1.994578    2.439549    0.090376
     20          1           0       -2.712735    3.086339    0.146037
 ---------------------------------------------------------------------

 The electronic state is 1-A.
 Alpha  occ. eigenvalues --  -91.99779 -91.98997 -91.98973 -20.62016 -11.32601
 Alpha  occ. eigenvalues --  -11.29384 -11.29334 -11.28318 -11.27930 -11.27555
 Alpha  occ. eigenvalues --  -11.27422 -11.26642 -11.26130 -11.25452  -8.99939
 Alpha  occ. eigenvalues --   -8.99109  -8.99109  -6.68107  -6.68015  -6.67825
 Alpha  occ. eigenvalues --   -6.67278  -6.67275  -6.67196  -6.67195  -6.66999
 Alpha  occ. eigenvalues --   -6.66990  -1.41997  -1.20183  -1.17784  -1.11589
 Alpha  occ. eigenvalues --   -1.02419  -1.02047  -0.99023  -0.94405  -0.93818
 Alpha  occ. eigenvalues --   -0.82691  -0.80799  -0.76334  -0.74022  -0.71943
 Alpha  occ. eigenvalues --   -0.69757  -0.66554  -0.65478  -0.61246  -0.60800
 Alpha  occ. eigenvalues --   -0.58475  -0.56338  -0.55602  -0.54378  -0.53105
 Alpha  occ. eigenvalues --   -0.51558  -0.51341  -0.50048  -0.48133  -0.46346
 Alpha  occ. eigenvalues --   -0.45577  -0.39111  -0.35681  -0.34134  -0.31812
 Alpha  occ. eigenvalues --   -0.25791
 Alpha virt. eigenvalues --    0.02642   0.03715   0.03829   0.05065   0.05103
 Alpha virt. eigenvalues --    0.05402   0.06891   0.08245   0.08885   0.09679
 Alpha virt. eigenvalues --    0.10403   0.10535   0.10941   0.11020   0.11731

 Mulliken charges:
               1
     1  C    0.626612
     2  C    0.245739
     3  C    0.702760
     4  C   -0.334066
     5  H   -0.453880
     6  S    0.504861
     7  H   -0.354078
     8  C   -0.031530
     9  S    0.524771
    10  C   -0.574905
    11  C    0.098259
    12  C    0.341810
    13  H   -0.443129
    14  S    0.479623
    15  C   -0.234156
    16  C    0.343738
    17  H   -0.355993
    18  H   -0.295275
    19  O   -1.027141
    20  H    0.235981
 Sum of Mulliken charges =  -0.00000

 Dipole moment (field-independent basis, Debye):
    X=             -2.4045    Y=              1.1933    Z=              0.0793  Tot=              2.6855
 Quadrupole moment (field-independent basis, Debye-Ang):
   XX=            -77.7885   YY=            -93.9877   ZZ=           -111.5298
   XY=            -10.9067   XZ=             -0.1667   YZ=              0.1783

 Normal termination of Gaussian 16 at Wed Oct 27 07:20:30 2021.
