 Gaussian 16, Revision C.01,
 Gaussian 16:  ES64L-G16RevC.01  3-Jul-2019

 ----------------------------------
 # opt=modredundant mp2/aug-cc-pvdz
 ----------------------------------

 -------------
 pBTTT_100.pdb
 -------------
 Symbolic Z-matrix:
 Charge =  0 Multiplicity = 1

 SCF Done:  E(RHF) =  -1649.64148727     A.U. after   17 cycles
 E2 =    -0.1967885292D+01 EUMP2 =    -0.16516093725663D+04
 SCF Done:  E(RHF) =  -1649.63221081     A.U. after   14 cycles
 E2 =    -0.1987332911D+01 EUMP2 =    -0.16516195437243D+04
 SCF Done:  E(RHF) =  -1649.62991816     A.U. after   14 cycles
 E2 =    -0.1990228883D+01 EUMP2 =    -0.16516201470419D+04
 SCF Done:  E(RHF) =  -1649.62937191     A.U. after   13 cycles
 E2 =    -0.1990834907D+01 EUMP2 =    -0.16516202068172D+04
 SCF Done:  E(RHF) =  -1649.62947472     A.U. after   12 cycles
 E2 =    -0.1990737553D+01 EUMP2 =    -0.16516202122720D+04
 SCF Done:  E(RHF) =  -1649.62956244     A.U. after   11 cycles
 E2 =    -0.1990653048D+01 EUMP2 =    -0.16516202154865D+04
 SCF Done:  E(RHF) =  -1649.62959670     A.U. after   11 cycles
 E2 =    -0.1990619849D+01 EUMP2 =    -0.16516202165469D+04
 SCF Done:  E(RHF) =  -1649.62958956     A.U. after   10 cycles
 E2 =    -0.1990627279D+01 EUMP2 =    -0.16516202168422D+04
 SCF Done:  E(RHF) =  -1649.62956038     A.U. after    9 cycles
 E2 =    -0.1990656673D+01 EUMP2 =    -0.16516202170538D+04
 SCF Done:  E(RHF) =  -1649.62954880     A.U. after    8 cycles
 E2 =    -0.1990668389D+01 EUMP2 =    -0.16516202171842D+04
 SCF Done:  E(RHF) =  -1649.62954968     A.U. after    8 cycles
 E2 =    -0.1990667574D+01 EUMP2 =    -0.16516202172539D+04
 Optimization completed.
    -- Stationary point found.

                         Standard orientation:
 ---------------------------------------------------------------------
 Center     Atomic      Atomic             Coordinates (Angstroms)
 Number     Number       Type             X           Y           Z
 ---------------------------------------------------------------------
      1          6           0       -3.950550    0.734923    0.321742
      2          6           0       -2.557960    0.946696    0.532789
      3          6           0       -1.745546    0.021022   -0.129991
      4          6           0       -4.194449   -0.366963   -0.492739
      5          1           0       -4.744200    1.355017    0.747522
      6         16           0       -2.728513   -1.126783   -1.001140
      7          1           0       -5.157710   -0.757805   -0.821197
      8          6           0       -0.287965   -0.060314   -0.089496
      9         16           0        0.504321   -1.240445    0.956653
     10          6           0        2.078017   -0.656482    0.497047
     11          6           0        1.965267    0.420174   -0.419505
     12          6           0        0.625322    0.757695   -0.754297
     13          1           0        0.306476    1.548827   -1.435684
     14         16           0        3.540290    1.004039   -0.880987
     15          6           0        4.320009   -0.182078    0.141225
     16          6           0        3.424616   -1.002401    0.815861
     17          1           0        5.409673   -0.206109    0.189712
     18          1           0        3.735987   -1.796615    1.496592
     19          8           0       -1.994861    1.942726    1.298499
     20          1           0       -2.709454    2.452269    1.706812
 ---------------------------------------------------------------------

 The electronic state is 1-A.
 Alpha  occ. eigenvalues --  -91.99561 -91.99099 -91.98875 -20.61269 -11.32441
 Alpha  occ. eigenvalues --  -11.29230 -11.28799 -11.28162 -11.27638 -11.27473
 Alpha  occ. eigenvalues --  -11.27447 -11.26290 -11.26169 -11.26092  -8.99682
 Alpha  occ. eigenvalues --   -8.99213  -8.98965  -6.67844  -6.67753  -6.67569
 Alpha  occ. eigenvalues --   -6.67378  -6.67298  -6.67127  -6.67102  -6.67042
 Alpha  occ. eigenvalues --   -6.66845  -1.41349  -1.20126  -1.17506  -1.11555
 Alpha  occ. eigenvalues --   -1.02312  -1.01739  -0.98693  -0.94479  -0.93799
 Alpha  occ. eigenvalues --   -0.82326  -0.80214  -0.76378  -0.73688  -0.71937
 Alpha  occ. eigenvalues --   -0.69289  -0.66282  -0.65809  -0.60966  -0.60159
 Alpha  occ. eigenvalues --   -0.58087  -0.56535  -0.55584  -0.53833  -0.52980
 Alpha  occ. eigenvalues --   -0.52743  -0.50465  -0.49283  -0.48697  -0.45866
 Alpha  occ. eigenvalues --   -0.45441  -0.38482  -0.34835  -0.32143  -0.31503
 Alpha  occ. eigenvalues --   -0.28661
 Alpha virt. eigenvalues --    0.02794   0.03720   0.03955   0.04913   0.05077
 Alpha virt. eigenvalues --    0.06218   0.07716   0.08015   0.08363   0.08803
 Alpha virt. eigenvalues --    0.09168   0.10154   0.10382   0.10885   0.11362

 Mulliken charges:
               1
     1  C    0.629287
     2  C    0.397998
     3  C    0.457284
     4  C   -0.364951
     5  H   -0.406853
     6  S    0.396683
     7  H   -0.305998
     8  C    0.476067
     9  S    0.396563
    10  C   -0.756678
    11  C   -0.195297
    12  C   -0.014774
    13  H   -0.386351
    14  S    0.650714
    15  C   -0.128289
    16  C    0.581049
    17  H   -0.349901
    18  H   -0.294734
    19  O   -0.965898
    20  H    0.184081
 Sum of Mulliken charges =  -0.00000

 Dipole moment (field-independent basis, Debye):
    X=             -2.1354    Y=              0.9589    Z=              0.6981  Tot=              2.4427
 Quadrupole moment (field-independent basis, Debye-Ang):
   XX=            -77.8656   YY=           -100.9420   ZZ=           -104.6207
   XY=             -8.4887   XZ=             -0.4610   YZ=              0.0011

 Normal termination of Gaussian 16 at Wed Oct 27 07:22:17 2021.
