 Gaussian 16, Revision C.01,
 Gaussian 16:  ES64L-G16RevC.01  3-Jul-2019

 ----------------------------------
 # opt=modredundant mp2/aug-cc-pvdz
 ----------------------------------

 --------------
 pBTTT_-175.pdb
 --------------
 Symbolic Z-matrix:
 Charge =  0 Multiplicity = 1

 SCF Done:  E(RHF) =  -1649.64230586     A.U. after   17 cycles
 E2 =    -0.1970732525D+01 EUMP2 =    -0.16516130383890D+04
 SCF Done:  E(RHF) =  -1649.63301252     A.U. after   15 cycles
 E2 =    -0.1989984531D+01 EUMP2 =    -0.16516229970478D+04
 SCF Done:  E(RHF) =  -1649.63087198     A.U. after   15 cycles
 E2 =    -0.1992676093D+01 EUMP2 =    -0.16516235480686D+04
 SCF Done:  E(RHF) =  -1649.63043844     A.U. after   14 cycles
 E2 =    -0.1993152776D+01 EUMP2 =    -0.16516235912184D+04
 SCF Done:  E(RHF) =  -1649.63056596     A.U. after   11 cycles
 E2 =    -0.1993027566D+01 EUMP2 =    -0.16516235935283D+04
 SCF Done:  E(RHF) =  -1649.63062151     A.U. after   10 cycles
 E2 =    -0.1992972615D+01 EUMP2 =    -0.16516235941279D+04
 Optimization completed.
    -- Stationary point found.

                         Standard orientation:
 ---------------------------------------------------------------------
 Center     Atomic      Atomic             Coordinates (Angstroms)
 Number     Number       Type             X           Y           Z
 ---------------------------------------------------------------------
      1          6           0        3.946818    0.892677    0.019890
      2          6           0        2.553967    1.178841    0.037549
      3          6           0        1.739534    0.036503   -0.005293
      4          6           0        4.203287   -0.472561   -0.037086
      5          1           0        4.732931    1.652028    0.048056
      6         16           0        2.739360   -1.394868   -0.074699
      7          1           0        5.167471   -0.979711   -0.062036
      8          6           0        0.291331   -0.034259   -0.000699
      9         16           0       -0.515005   -1.608828    0.072066
     10          6           0       -2.085485   -0.855332    0.032420
     11          6           0       -1.962322    0.554169   -0.026889
     12          6           0       -0.622276    1.026376   -0.046936
     13          1           0       -0.307740    2.068602   -0.094158
     14         16           0       -3.534457    1.304829   -0.061093
     15          6           0       -4.323239   -0.255102    0.003689
     16          6           0       -3.431560   -1.320889    0.050265
     17          1           0       -5.413282   -0.299706    0.003396
     18          1           0       -3.747538   -2.364623    0.094009
     19          8           0        1.994589    2.439549    0.090404
     20          1           0        2.712763    3.086357    0.145653
 ---------------------------------------------------------------------

 The electronic state is 1-A.
 Alpha  occ. eigenvalues --  -91.99779 -91.98997 -91.98973 -20.62016 -11.32601
 Alpha  occ. eigenvalues --  -11.29384 -11.29334 -11.28318 -11.27930 -11.27555
 Alpha  occ. eigenvalues --  -11.27422 -11.26642 -11.26130 -11.25452  -8.99939
 Alpha  occ. eigenvalues --   -8.99109  -8.99109  -6.68107  -6.68015  -6.67825
 Alpha  occ. eigenvalues --   -6.67278  -6.67275  -6.67196  -6.67195  -6.66999
 Alpha  occ. eigenvalues --   -6.66990  -1.41997  -1.20183  -1.17784  -1.11589
 Alpha  occ. eigenvalues --   -1.02419  -1.02047  -0.99023  -0.94405  -0.93818
 Alpha  occ. eigenvalues --   -0.82691  -0.80799  -0.76334  -0.74022  -0.71943
 Alpha  occ. eigenvalues --   -0.69757  -0.66554  -0.65478  -0.61246  -0.60800
 Alpha  occ. eigenvalues --   -0.58475  -0.56338  -0.55602  -0.54378  -0.53105
 Alpha  occ. eigenvalues --   -0.51558  -0.51341  -0.50048  -0.48133  -0.46346
 Alpha  occ. eigenvalues --   -0.45577  -0.39111  -0.35681  -0.34134  -0.31812
 Alpha  occ. eigenvalues --   -0.25791
 Alpha virt. eigenvalues --    0.02642   0.03715   0.03829   0.05065   0.05103
 Alpha virt. eigenvalues --    0.05402   0.06891   0.08245   0.08885   0.09679
 Alpha virt. eigenvalues --    0.10403   0.10535   0.10941   0.11020   0.11731

 Mulliken charges:
               1
     1  C    0.626590
     2  C    0.245740
     3  C    0.702770
     4  C   -0.334058
     5  H   -0.453890
     6  S    0.504862
     7  H   -0.354077
     8  C   -0.031548
     9  S    0.524774
    10  C   -0.574882
    11  C    0.098256
    12  C    0.341835
    13  H   -0.443131
    14  S    0.479617
    15  C   -0.234150
    16  C    0.343724
    17  H   -0.355993
    18  H   -0.295274
    19  O   -1.027155
    20  H    0.235990
 Sum of Mulliken charges =  -0.00000

 Dipole moment (field-independent basis, Debye):
    X=              2.4045    Y=              1.1934    Z=              0.0787  Tot=              2.6855
 Quadrupole moment (field-independent basis, Debye-Ang):
   XX=            -77.7884   YY=            -93.9875   ZZ=           -111.5301
   XY=             10.9069   XZ=              0.1649   YZ=              0.1759

 Normal termination of Gaussian 16 at Wed Oct 27 04:39:23 2021.
