 Gaussian 16, Revision C.01,
 Gaussian 16:  ES64L-G16RevC.01  3-Jul-2019

 ----------------------------------
 # opt=modredundant mp2/aug-cc-pvdz
 ----------------------------------

 -------------
 pBTTT_130.pdb
 -------------
 Symbolic Z-matrix:
 Charge =  0 Multiplicity = 1

 SCF Done:  E(RHF) =  -1649.64232635     A.U. after   17 cycles
 E2 =    -0.1968939316D+01 EUMP2 =    -0.16516112656649D+04
 SCF Done:  E(RHF) =  -1649.63309573     A.U. after   15 cycles
 E2 =    -0.1988365609D+01 EUMP2 =    -0.16516214613358D+04
 SCF Done:  E(RHF) =  -1649.63074449     A.U. after   14 cycles
 E2 =    -0.1991361017D+01 EUMP2 =    -0.16516221055024D+04
 SCF Done:  E(RHF) =  -1649.63014340     A.U. after   13 cycles
 E2 =    -0.1992025154D+01 EUMP2 =    -0.16516221685585D+04
 SCF Done:  E(RHF) =  -1649.63021170     A.U. after   12 cycles
 E2 =    -0.1991963052D+01 EUMP2 =    -0.16516221747526D+04
 SCF Done:  E(RHF) =  -1649.63036333     A.U. after   11 cycles
 E2 =    -0.1991817473D+01 EUMP2 =    -0.16516221808056D+04
 SCF Done:  E(RHF) =  -1649.63041552     A.U. after   11 cycles
 E2 =    -0.1991766457D+01 EUMP2 =    -0.16516221819746D+04
 SCF Done:  E(RHF) =  -1649.63041153     A.U. after   11 cycles
 E2 =    -0.1991770974D+01 EUMP2 =    -0.16516221825054D+04
 SCF Done:  E(RHF) =  -1649.63037928     A.U. after   11 cycles
 E2 =    -0.1991803813D+01 EUMP2 =    -0.16516221830893D+04
 SCF Done:  E(RHF) =  -1649.63036602     A.U. after   10 cycles
 E2 =    -0.1991817494D+01 EUMP2 =    -0.16516221835098D+04
 SCF Done:  E(RHF) =  -1649.63036873     A.U. after    9 cycles
 E2 =    -0.1991814855D+01 EUMP2 =    -0.16516221835808D+04
 Optimization completed.
    -- Stationary point found.

                         Standard orientation:
 ---------------------------------------------------------------------
 Center     Atomic      Atomic             Coordinates (Angstroms)
 Number     Number       Type             X           Y           Z
 ---------------------------------------------------------------------
      1          6           0       -3.930450    0.848551    0.247266
      2          6           0       -2.532570    1.103461    0.329235
      3          6           0       -1.741564    0.038488   -0.119976
      4          6           0       -4.203833   -0.422477   -0.248953
      5          1           0       -4.707745    1.558069    0.544072
      6         16           0       -2.755890   -1.284918   -0.635930
      7          1           0       -5.177024   -0.882688   -0.420023
      8          6           0       -0.291374   -0.054925   -0.101442
      9         16           0        0.498487   -1.486792    0.569732
     10          6           0        2.073634   -0.794643    0.298647
     11          6           0        1.961558    0.506053   -0.254483
     12          6           0        0.623754    0.927364   -0.484512
     13          1           0        0.309287    1.883297   -0.906862
     14         16           0        3.537896    1.198934   -0.519456
     15          6           0        4.315941   -0.239134    0.102397
     16          6           0        3.418410   -1.222683    0.500257
     17          1           0        5.405510   -0.277846    0.143031
     18          1           0        3.728034   -2.184572    0.912725
     19          8           0       -1.946145    2.263615    0.788755
     20          1           0       -2.637816    2.818895    1.176858
 ---------------------------------------------------------------------

 The electronic state is 1-A.
 Alpha  occ. eigenvalues --  -91.99688 -91.99046 -91.98983 -20.61499 -11.32484
 Alpha  occ. eigenvalues --  -11.29267 -11.28995 -11.28031 -11.27832 -11.27588
 Alpha  occ. eigenvalues --  -11.27474 -11.26466 -11.26149 -11.25805  -8.99825
 Alpha  occ. eigenvalues --   -8.99159  -8.99083  -6.67989  -6.67897  -6.67712
 Alpha  occ. eigenvalues --   -6.67324  -6.67247  -6.67244  -6.67164  -6.67048
 Alpha  occ. eigenvalues --   -6.66963  -1.41518  -1.20155  -1.17639  -1.11576
 Alpha  occ. eigenvalues --   -1.02356  -1.01898  -0.98857  -0.94444  -0.93780
 Alpha  occ. eigenvalues --   -0.82499  -0.80409  -0.76344  -0.73760  -0.71988
 Alpha  occ. eigenvalues --   -0.69398  -0.66281  -0.65793  -0.61114  -0.60414
 Alpha  occ. eigenvalues --   -0.58197  -0.56407  -0.55528  -0.54137  -0.52880
 Alpha  occ. eigenvalues --   -0.52467  -0.50611  -0.49619  -0.48506  -0.45940
 Alpha  occ. eigenvalues --   -0.45747  -0.38707  -0.35172  -0.33471  -0.31756
 Alpha  occ. eigenvalues --   -0.26945
 Alpha virt. eigenvalues --    0.02751   0.03746   0.03887   0.05063   0.05084
 Alpha virt. eigenvalues --    0.06201   0.06633   0.08134   0.08511   0.09266
 Alpha virt. eigenvalues --    0.10119   0.10142   0.10502   0.10874   0.11284

 Mulliken charges:
               1
     1  C    0.537037
     2  C    0.393483
     3  C    0.664162
     4  C   -0.342456
     5  H   -0.412456
     6  S    0.440502
     7  H   -0.316543
     8  C    0.228060
     9  S    0.453324
    10  C   -0.726535
    11  C    0.004062
    12  C   -0.039733
    13  H   -0.407044
    14  S    0.609877
    15  C   -0.140826
    16  C    0.457445
    17  H   -0.350734
    18  H   -0.289933
    19  O   -0.960772
    20  H    0.199081
 Sum of Mulliken charges =  -0.00000

 Dipole moment (field-independent basis, Debye):
    X=             -2.2254    Y=              1.0387    Z=              0.7178  Tot=              2.5586
 Quadrupole moment (field-independent basis, Debye-Ang):
   XX=            -78.3128   YY=            -97.1413   ZZ=           -108.2346
   XY=             -9.5964   XZ=             -1.1278   YZ=              0.5505

 Normal termination of Gaussian 16 at Wed Oct 27 08:12:44 2021.
