 Gaussian 16, Revision C.01,
 Gaussian 16:  ES64L-G16RevC.01  3-Jul-2019

 ----------------------------------
 # opt=modredundant mp2/aug-cc-pvdz
 ----------------------------------

 ------------
 pBTTT_-5.pdb
 ------------
 Symbolic Z-matrix:
 Charge =  0 Multiplicity = 1

 SCF Done:  E(RHF) =  -1649.64263900     A.U. after   17 cycles
 E2 =    -0.1969929784D+01 EUMP2 =    -0.16516125687884D+04
 SCF Done:  E(RHF) =  -1649.63327759     A.U. after   15 cycles
 E2 =    -0.1989656182D+01 EUMP2 =    -0.16516229337711D+04
 SCF Done:  E(RHF) =  -1649.63096993     A.U. after   14 cycles
 E2 =    -0.1992548218D+01 EUMP2 =    -0.16516235181447D+04
 SCF Done:  E(RHF) =  -1649.63052306     A.U. after   13 cycles
 E2 =    -0.1993041205D+01 EUMP2 =    -0.16516235642700D+04
 SCF Done:  E(RHF) =  -1649.63065804     A.U. after   11 cycles
 E2 =    -0.1992909150D+01 EUMP2 =    -0.16516235671905D+04
 SCF Done:  E(RHF) =  -1649.63071473     A.U. after   10 cycles
 E2 =    -0.1992852766D+01 EUMP2 =    -0.16516235675000D+04
 SCF Done:  E(RHF) =  -1649.63070465     A.U. after    9 cycles
 E2 =    -0.1992863023D+01 EUMP2 =    -0.16516235676773D+04
 Optimization completed.
    -- Stationary point found.

                         Standard orientation:
 ---------------------------------------------------------------------
 Center     Atomic      Atomic             Coordinates (Angstroms)
 Number     Number       Type             X           Y           Z
 ---------------------------------------------------------------------
      1          6           0       -4.040772    0.390768    0.029390
      2          6           0       -2.701183    0.871479    0.040724
      3          6           0       -1.732518   -0.141015    0.000621
      4          6           0       -4.098909   -0.996263   -0.019712
      5          1           0       -4.926656    1.030881    0.056344
      6         16           0       -2.517882   -1.702635   -0.055503
      7          1           0       -4.981115   -1.635852   -0.038761
      8          6           0       -0.287625   -0.033424    0.008553
      9         16           0        0.509105    1.547271   -0.055879
     10          6           0        2.079891    0.796826   -0.034528
     11          6           0        1.971627   -0.614613    0.020545
     12          6           0        0.634719   -1.087674    0.046165
     13          1           0        0.333869   -2.137135    0.092187
     14         16           0        3.548938   -1.355182    0.050235
     15          6           0        4.324707    0.212781   -0.010501
     16          6           0        3.424443    1.270680   -0.050929
     17          1           0        5.414426    0.265715   -0.014171
     18          1           0        3.732778    2.316995   -0.091431
     19          8           0       -2.318418    2.195634    0.085682
     20          1           0       -3.114818    2.745776    0.106740
 ---------------------------------------------------------------------

 The electronic state is 1-A.
 Alpha  occ. eigenvalues --  -91.99769 -91.98865 -91.98757 -20.61885 -11.32721
 Alpha  occ. eigenvalues --  -11.29500 -11.29497 -11.28307 -11.27784 -11.27421
 Alpha  occ. eigenvalues --  -11.27041 -11.26715 -11.25951 -11.25708  -8.99929
 Alpha  occ. eigenvalues --   -8.98978  -8.98824  -6.68099  -6.68007  -6.67816
 Alpha  occ. eigenvalues --   -6.67144  -6.67065  -6.66979  -6.66893  -6.66868
 Alpha  occ. eigenvalues --   -6.66691  -1.41976  -1.20066  -1.17785  -1.11506
 Alpha  occ. eigenvalues --   -1.02465  -1.01918  -0.99034  -0.94344  -0.93766
 Alpha  occ. eigenvalues --   -0.82686  -0.80931  -0.76343  -0.74232  -0.70981
 Alpha  occ. eigenvalues --   -0.69822  -0.66869  -0.65610  -0.61053  -0.60833
 Alpha  occ. eigenvalues --   -0.58703  -0.56554  -0.55437  -0.54332  -0.52676
 Alpha  occ. eigenvalues --   -0.52029  -0.51366  -0.49725  -0.47851  -0.46289
 Alpha  occ. eigenvalues --   -0.45314  -0.39049  -0.35610  -0.34226  -0.31615
 Alpha  occ. eigenvalues --   -0.25744
 Alpha virt. eigenvalues --    0.02699   0.03685   0.03895   0.04969   0.05114
 Alpha virt. eigenvalues --    0.05442   0.06245   0.08491   0.09445   0.09549
 Alpha virt. eigenvalues --    0.10355   0.10695   0.10780   0.11123   0.11368

 Mulliken charges:
               1
     1  C    0.709888
     2  C    0.062797
     3  C    0.947409
     4  C   -0.363706
     5  H   -0.422737
     6  S    0.551369
     7  H   -0.362851
     8  C    0.132629
     9  S    0.460071
    10  C   -0.511418
    11  C   -0.030994
    12  C    0.168368
    13  H   -0.479920
    14  S    0.500271
    15  C   -0.218781
    16  C    0.288776
    17  H   -0.360910
    18  H   -0.304738
    19  O   -0.985333
    20  H    0.219809
 Sum of Mulliken charges =  -0.00000

 Dipole moment (field-independent basis, Debye):
    X=             -2.7983    Y=              1.0710    Z=              0.0420  Tot=              2.9966
 Quadrupole moment (field-independent basis, Debye-Ang):
   XX=            -76.4114   YY=            -95.2083   ZZ=           -111.5668
   XY=             -1.0694   XZ=             -0.4392   YZ=             -0.0365

 Normal termination of Gaussian 16 at Wed Oct 27 05:39:01 2021.
