 Gaussian 16, Revision C.01,
 Gaussian 16:  ES64L-G16RevC.01  3-Jul-2019

 ----------------------------------
 # opt=modredundant mp2/aug-cc-pvdz
 ----------------------------------

 --------------
 pBTTT_-120.pdb
 --------------
 Symbolic Z-matrix:
 Charge =  0 Multiplicity = 1

 SCF Done:  E(RHF) =  -1649.64200493     A.U. after   17 cycles
 E2 =    -0.1968669546D+01 EUMP2 =    -0.16516106744787D+04
 SCF Done:  E(RHF) =  -1649.63271360     A.U. after   15 cycles
 E2 =    -0.1988014101D+01 EUMP2 =    -0.16516207276993D+04
 SCF Done:  E(RHF) =  -1649.63042556     A.U. after   14 cycles
 E2 =    -0.1990922180D+01 EUMP2 =    -0.16516213477351D+04
 SCF Done:  E(RHF) =  -1649.62981354     A.U. after   13 cycles
 E2 =    -0.1991601059D+01 EUMP2 =    -0.16516214145994D+04
 SCF Done:  E(RHF) =  -1649.62989042     A.U. after   12 cycles
 E2 =    -0.1991530502D+01 EUMP2 =    -0.16516214209216D+04
 SCF Done:  E(RHF) =  -1649.63001748     A.U. after   11 cycles
 E2 =    -0.1991408652D+01 EUMP2 =    -0.16516214261313D+04
 SCF Done:  E(RHF) =  -1649.63006605     A.U. after   11 cycles
 E2 =    -0.1991361195D+01 EUMP2 =    -0.16516214272432D+04
 SCF Done:  E(RHF) =  -1649.63005427     A.U. after   10 cycles
 E2 =    -0.1991373303D+01 EUMP2 =    -0.16516214275758D+04
 SCF Done:  E(RHF) =  -1649.63002898     A.U. after    9 cycles
 E2 =    -0.1991398865D+01 EUMP2 =    -0.16516214278456D+04
 SCF Done:  E(RHF) =  -1649.63001866     A.U. after    9 cycles
 E2 =    -0.1991409394D+01 EUMP2 =    -0.16516214280522D+04
 SCF Done:  E(RHF) =  -1649.63002009     A.U. after    9 cycles
 E2 =    -0.1991408047D+01 EUMP2 =    -0.16516214281408D+04
 SCF Done:  E(RHF) =  -1649.63002695     A.U. after    9 cycles
 E2 =    -0.1991401228D+01 EUMP2 =    -0.16516214281793D+04
 Optimization completed.
    -- Stationary point found.

                         Standard orientation:
 ---------------------------------------------------------------------
 Center     Atomic      Atomic             Coordinates (Angstroms)
 Number     Number       Type             X           Y           Z
 ---------------------------------------------------------------------
      1          6           0        3.931290    0.822108    0.284341
      2          6           0        2.532909    1.064313    0.397090
      3          6           0        1.742798    0.037578   -0.133163
      4          6           0        4.204307   -0.403880   -0.314985
      5          1           0        4.709018    1.507595    0.632122
      6         16           0        2.756624   -1.239049   -0.755974
      7          1           0        5.177950   -0.844664   -0.529459
      8          6           0        0.290491   -0.059859   -0.111730
      9         16           0       -0.496393   -1.427243    0.683911
     10          6           0       -2.072605   -0.761775    0.360417
     11          6           0       -1.963445    0.484928   -0.306587
     12          6           0       -0.626127    0.883521   -0.577349
     13          1           0       -0.312381    1.799045   -1.082123
     14         16           0       -3.540863    1.150324   -0.628748
     15          6           0       -4.316062   -0.227710    0.119600
     16          6           0       -3.417020   -1.171335    0.601207
     17          1           0       -5.405491   -0.263137    0.166270
     18          1           0       -3.724939   -2.093030    1.098050
     19          8           0        1.945607    2.178016    0.957155
     20          1           0        2.641908    2.718231    1.357830
 ---------------------------------------------------------------------

 The electronic state is 1-A.
 Alpha  occ. eigenvalues --  -91.99638 -91.99064 -91.98951 -20.61397 -11.32479
 Alpha  occ. eigenvalues --  -11.29260 -11.28906 -11.28077 -11.27685 -11.27597
 Alpha  occ. eigenvalues --  -11.27484 -11.26402 -11.26156 -11.25908  -8.99770
 Alpha  occ. eigenvalues --   -8.99178  -8.99046  -6.67932  -6.67841  -6.67656
 Alpha  occ. eigenvalues --   -6.67343  -6.67263  -6.67209  -6.67125  -6.67067
 Alpha  occ. eigenvalues --   -6.66925  -1.41440  -1.20142  -1.17592  -1.11566
 Alpha  occ. eigenvalues --   -1.02337  -1.01842  -0.98798  -0.94453  -0.93784
 Alpha  occ. eigenvalues --   -0.82434  -0.80330  -0.76355  -0.73715  -0.71990
 Alpha  occ. eigenvalues --   -0.69336  -0.66266  -0.65822  -0.61065  -0.60311
 Alpha  occ. eigenvalues --   -0.58137  -0.56440  -0.55545  -0.54031  -0.52837
 Alpha  occ. eigenvalues --   -0.52672  -0.50524  -0.49489  -0.48583  -0.45887
 Alpha  occ. eigenvalues --   -0.45668  -0.38605  -0.35033  -0.33097  -0.31692
 Alpha  occ. eigenvalues --   -0.27460
 Alpha virt. eigenvalues --    0.02769   0.03739   0.03911   0.05012   0.05081
 Alpha virt. eigenvalues --    0.06231   0.06926   0.08097   0.08454   0.09115
 Alpha virt. eigenvalues --    0.09814   0.10111   0.10481   0.10907   0.11243

 Mulliken charges:
               1
     1  C    0.554775
     2  C    0.409314
     3  C    0.619687
     4  C   -0.344148
     5  H   -0.409072
     6  S    0.422369
     7  H   -0.315093
     8  C    0.279888
     9  S    0.429752
    10  C   -0.758511
    11  C   -0.043455
    12  C   -0.029186
    13  H   -0.397950
    14  S    0.625322
    15  C   -0.132863
    16  C    0.500018
    17  H   -0.349947
    18  H   -0.290777
    19  O   -0.963957
    20  H    0.193833
 Sum of Mulliken charges =  -0.00000

 Dipole moment (field-independent basis, Debye):
    X=              2.1867    Y=              1.0145    Z=              0.7413  Tot=              2.5220
 Quadrupole moment (field-independent basis, Debye-Ang):
   XX=            -78.2431   YY=            -98.1996   ZZ=           -107.1763
   XY=              9.2664   XZ=              1.0002   YZ=              0.3322

 Normal termination of Gaussian 16 at Wed Oct 27 06:22:54 2021.
