 Gaussian 16, Revision C.01,
 Gaussian 16:  ES64L-G16RevC.01  3-Jul-2019

 ----------------------------------
 # opt=modredundant mp2/aug-cc-pvdz
 ----------------------------------

 -------------
 pBTTT_125.pdb
 -------------
 Symbolic Z-matrix:
 Charge =  0 Multiplicity = 1

 SCF Done:  E(RHF) =  -1649.64217233     A.U. after   17 cycles
 E2 =    -0.1968705553D+01 EUMP2 =    -0.16516108778854D+04
 SCF Done:  E(RHF) =  -1649.63293525     A.U. after   15 cycles
 E2 =    -0.1988149031D+01 EUMP2 =    -0.16516210842818D+04
 SCF Done:  E(RHF) =  -1649.63058675     A.U. after   14 cycles
 E2 =    -0.1991146531D+01 EUMP2 =    -0.16516217332848D+04
 SCF Done:  E(RHF) =  -1649.62997949     A.U. after   13 cycles
 E2 =    -0.1991820681D+01 EUMP2 =    -0.16516218001731D+04
 SCF Done:  E(RHF) =  -1649.63005411     A.U. after   12 cycles
 E2 =    -0.1991752429D+01 EUMP2 =    -0.16516218065381D+04
 SCF Done:  E(RHF) =  -1649.63019367     A.U. after   12 cycles
 E2 =    -0.1991618539D+01 EUMP2 =    -0.16516218122052D+04
 SCF Done:  E(RHF) =  -1649.63024370     A.U. after   11 cycles
 E2 =    -0.1991569583D+01 EUMP2 =    -0.16516218132871D+04
 SCF Done:  E(RHF) =  -1649.63023378     A.U. after   11 cycles
 E2 =    -0.1991579893D+01 EUMP2 =    -0.16516218136722D+04
 SCF Done:  E(RHF) =  -1649.63020675     A.U. after    9 cycles
 E2 =    -0.1991607295D+01 EUMP2 =    -0.16516218140429D+04
 SCF Done:  E(RHF) =  -1649.63019475     A.U. after    9 cycles
 E2 =    -0.1991619564D+01 EUMP2 =    -0.16516218143187D+04
 SCF Done:  E(RHF) =  -1649.63019686     A.U. after    9 cycles
 E2 =    -0.1991617551D+01 EUMP2 =    -0.16516218144148D+04
 Optimization completed.
    -- Stationary point found.

                         Standard orientation:
 ---------------------------------------------------------------------
 Center     Atomic      Atomic             Coordinates (Angstroms)
 Number     Number       Type             X           Y           Z
 ---------------------------------------------------------------------
      1          6           0       -3.930184    0.836816    0.266959
      2          6           0       -2.531878    1.085903    0.361985
      3          6           0       -1.742133    0.038562   -0.127970
      4          6           0       -4.204270   -0.413650   -0.278825
      5          1           0       -4.707174    1.535309    0.589618
      6         16           0       -2.757110   -1.263451   -0.694201
      7          1           0       -5.178022   -0.864847   -0.469771
      8          6           0       -0.290995   -0.057574   -0.108452
      9         16           0        0.496932   -1.459719    0.624090
     10          6           0        2.072785   -0.779855    0.328547
     11          6           0        1.962502    0.496318   -0.279665
     12          6           0        0.625077    0.907102   -0.530575
     13          1           0        0.311272    1.844627   -0.993017
     14         16           0        3.539547    1.176477   -0.571707
     15          6           0        4.315804   -0.234339    0.111734
     16          6           0        3.417270   -1.199703    0.549544
     17          1           0        5.405285   -0.271579    0.155975
     18          1           0        3.725762   -2.143362    1.002934
     19          8           0       -1.944199    2.224757    0.869563
     20          1           0       -2.637316    2.771410    1.267142
 ---------------------------------------------------------------------

 The electronic state is 1-A.
 Alpha  occ. eigenvalues --  -91.99664 -91.99054 -91.98969 -20.61446 -11.32482
 Alpha  occ. eigenvalues --  -11.29264 -11.28950 -11.28053 -11.27760 -11.27591
 Alpha  occ. eigenvalues --  -11.27480 -11.26435 -11.26152 -11.25855  -8.99798
 Alpha  occ. eigenvalues --   -8.99168  -8.99066  -6.67962  -6.67870  -6.67685
 Alpha  occ. eigenvalues --   -6.67333  -6.67253  -6.67230  -6.67146  -6.67057
 Alpha  occ. eigenvalues --   -6.66946  -1.41477  -1.20148  -1.17616  -1.11570
 Alpha  occ. eigenvalues --   -1.02346  -1.01871  -0.98829  -0.94448  -0.93781
 Alpha  occ. eigenvalues --   -0.82467  -0.80368  -0.76349  -0.73736  -0.71990
 Alpha  occ. eigenvalues --   -0.69364  -0.66269  -0.65812  -0.61089  -0.60364
 Alpha  occ. eigenvalues --   -0.58166  -0.56424  -0.55532  -0.54086  -0.52856
 Alpha  occ. eigenvalues --   -0.52570  -0.50563  -0.49554  -0.48546  -0.45905
 Alpha  occ. eigenvalues --   -0.45719  -0.38654  -0.35102  -0.33302  -0.31727
 Alpha  occ. eigenvalues --   -0.27185
 Alpha virt. eigenvalues --    0.02761   0.03743   0.03899   0.05039   0.05083
 Alpha virt. eigenvalues --    0.06225   0.06758   0.08117   0.08483   0.09195
 Alpha virt. eigenvalues --    0.09979   0.10116   0.10495   0.10891   0.11262

 Mulliken charges:
               1
     1  C    0.542931
     2  C    0.405756
     3  C    0.643279
     4  C   -0.341994
     5  H   -0.410497
     6  S    0.430936
     7  H   -0.315768
     8  C    0.250376
     9  S    0.441624
    10  C   -0.745688
    11  C   -0.014540
    12  C   -0.037755
    13  H   -0.403110
    14  S    0.617958
    15  C   -0.136041
    16  C    0.478813
    17  H   -0.350311
    18  H   -0.290193
    19  O   -0.962423
    20  H    0.196644
 Sum of Mulliken charges =  -0.00000

 Dipole moment (field-independent basis, Debye):
    X=             -2.2058    Y=              1.0251    Z=              0.7377  Tot=              2.5417
 Quadrupole moment (field-independent basis, Debye-Ang):
   XX=            -78.2944   YY=            -97.6494   ZZ=           -107.7206
   XY=             -9.4288   XZ=             -1.0860   YZ=              0.4516

 Normal termination of Gaussian 16 at Wed Oct 27 07:44:24 2021.
