 Gaussian 16, Revision C.01,
 Gaussian 16:  ES64L-G16RevC.01  3-Jul-2019

 ----------------------------------
 # opt=modredundant mp2/aug-cc-pvdz
 ----------------------------------

 --------------
 pBTTT_-125.pdb
 --------------
 Symbolic Z-matrix:
 Charge =  0 Multiplicity = 1

 SCF Done:  E(RHF) =  -1649.64217311     A.U. after   17 cycles
 E2 =    -0.1968670882D+01 EUMP2 =    -0.16516108439882D+04
 SCF Done:  E(RHF) =  -1649.63294151     A.U. after   15 cycles
 E2 =    -0.1988142660D+01 EUMP2 =    -0.16516210841660D+04
 SCF Done:  E(RHF) =  -1649.63058823     A.U. after   14 cycles
 E2 =    -0.1991143793D+01 EUMP2 =    -0.16516217320280D+04
 SCF Done:  E(RHF) =  -1649.62997871     A.U. after   13 cycles
 E2 =    -0.1991819807D+01 EUMP2 =    -0.16516217985211D+04
 SCF Done:  E(RHF) =  -1649.63005134     A.U. after   12 cycles
 E2 =    -0.1991753557D+01 EUMP2 =    -0.16516218048972D+04
 SCF Done:  E(RHF) =  -1649.63019302     A.U. after   11 cycles
 E2 =    -0.1991617631D+01 EUMP2 =    -0.16516218106461D+04
 SCF Done:  E(RHF) =  -1649.63024283     A.U. after   11 cycles
 E2 =    -0.1991568903D+01 EUMP2 =    -0.16516218117347D+04
 SCF Done:  E(RHF) =  -1649.63023304     A.U. after   11 cycles
 E2 =    -0.1991579086D+01 EUMP2 =    -0.16516218121230D+04
 SCF Done:  E(RHF) =  -1649.63020595     A.U. after   10 cycles
 E2 =    -0.1991606551D+01 EUMP2 =    -0.16516218124980D+04
 SCF Done:  E(RHF) =  -1649.63019429     A.U. after    9 cycles
 E2 =    -0.1991618495D+01 EUMP2 =    -0.16516218127821D+04
 SCF Done:  E(RHF) =  -1649.63019679     A.U. after    9 cycles
 E2 =    -0.1991616086D+01 EUMP2 =    -0.16516218128778D+04
 Optimization completed.
    -- Stationary point found.

                         Standard orientation:
 ---------------------------------------------------------------------
 Center     Atomic      Atomic             Coordinates (Angstroms)
 Number     Number       Type             X           Y           Z
 ---------------------------------------------------------------------
      1          6           0        3.930194    0.836753    0.267017
      2          6           0        2.531889    1.085808    0.362145
      3          6           0        1.742135    0.038550   -0.127967
      4          6           0        4.204271   -0.413607   -0.279013
      5          1           0        4.707194    1.535186    0.589780
      6         16           0        2.757104   -1.263349   -0.694477
      7          1           0        5.178019   -0.864763   -0.470067
      8          6           0        0.290990   -0.057581   -0.108441
      9         16           0       -0.496939   -1.459585    0.624362
     10          6           0       -2.072788   -0.779779    0.328684
     11          6           0       -1.962505    0.496271   -0.279786
     12          6           0       -0.625080    0.907004   -0.530770
     13          1           0       -0.311266    1.844437   -0.993390
     14         16           0       -3.539549    1.176369   -0.571973
     15          6           0       -4.315805   -0.234301    0.111767
     16          6           0       -3.417273   -1.199579    0.549765
     17          1           0       -5.405285   -0.271534    0.156020
     18          1           0       -3.725773   -2.143142    1.003349
     19          8           0        1.944215    2.224551    0.869978
     20          1           0        2.637365    2.771215    1.267480
 ---------------------------------------------------------------------

 The electronic state is 1-A.
 Alpha  occ. eigenvalues --  -91.99664 -91.99055 -91.98969 -20.61446 -11.32482
 Alpha  occ. eigenvalues --  -11.29264 -11.28950 -11.28053 -11.27760 -11.27591
 Alpha  occ. eigenvalues --  -11.27480 -11.26435 -11.26152 -11.25856  -8.99798
 Alpha  occ. eigenvalues --   -8.99168  -8.99066  -6.67962  -6.67870  -6.67685
 Alpha  occ. eigenvalues --   -6.67333  -6.67253  -6.67230  -6.67146  -6.67057
 Alpha  occ. eigenvalues --   -6.66946  -1.41476  -1.20148  -1.17616  -1.11570
 Alpha  occ. eigenvalues --   -1.02346  -1.01871  -0.98829  -0.94448  -0.93781
 Alpha  occ. eigenvalues --   -0.82467  -0.80368  -0.76349  -0.73736  -0.71990
 Alpha  occ. eigenvalues --   -0.69364  -0.66269  -0.65812  -0.61089  -0.60364
 Alpha  occ. eigenvalues --   -0.58166  -0.56424  -0.55533  -0.54085  -0.52856
 Alpha  occ. eigenvalues --   -0.52571  -0.50563  -0.49554  -0.48546  -0.45905
 Alpha  occ. eigenvalues --   -0.45719  -0.38654  -0.35102  -0.33301  -0.31727
 Alpha  occ. eigenvalues --   -0.27186
 Alpha virt. eigenvalues --    0.02761   0.03743   0.03899   0.05039   0.05083
 Alpha virt. eigenvalues --    0.06225   0.06758   0.08117   0.08483   0.09194
 Alpha virt. eigenvalues --    0.09978   0.10116   0.10495   0.10891   0.11262

 Mulliken charges:
               1
     1  C    0.542982
     2  C    0.405753
     3  C    0.643190
     4  C   -0.341997
     5  H   -0.410494
     6  S    0.430909
     7  H   -0.315766
     8  C    0.250534
     9  S    0.441553
    10  C   -0.745748
    11  C   -0.014662
    12  C   -0.037729
    13  H   -0.403085
    14  S    0.617997
    15  C   -0.136020
    16  C    0.478896
    17  H   -0.350312
    18  H   -0.290196
    19  O   -0.962436
    20  H    0.196632
 Sum of Mulliken charges =  -0.00000

 Dipole moment (field-independent basis, Debye):
    X=              2.2057    Y=              1.0251    Z=              0.7375  Tot=              2.5416
 Quadrupole moment (field-independent basis, Debye-Ang):
   XX=            -78.2939   YY=            -97.6514   ZZ=           -107.7187
   XY=              9.4284   XZ=              1.0851   YZ=              0.4506

 Normal termination of Gaussian 16 at Wed Oct 27 06:26:00 2021.
