 Gaussian 16, Revision C.01,
 Gaussian 16:  ES64L-G16RevC.01  3-Jul-2019

 ----------------------------------
 # opt=modredundant mp2/aug-cc-pvdz
 ----------------------------------

 ------------
 pBTTT_20.pdb
 ------------
 Symbolic Z-matrix:
 Charge =  0 Multiplicity = 1

 SCF Done:  E(RHF) =  -1649.64252345     A.U. after   17 cycles
 E2 =    -0.1969824653D+01 EUMP2 =    -0.16516123481021D+04
 SCF Done:  E(RHF) =  -1649.63318869     A.U. after   15 cycles
 E2 =    -0.1989485507D+01 EUMP2 =    -0.16516226741934D+04
 SCF Done:  E(RHF) =  -1649.63085367     A.U. after   14 cycles
 E2 =    -0.1992411644D+01 EUMP2 =    -0.16516232653138D+04
 SCF Done:  E(RHF) =  -1649.63037773     A.U. after   13 cycles
 E2 =    -0.1992936770D+01 EUMP2 =    -0.16516233144986D+04
 SCF Done:  E(RHF) =  -1649.63049223     A.U. after   12 cycles
 E2 =    -0.1992825779D+01 EUMP2 =    -0.16516233180135D+04
 SCF Done:  E(RHF) =  -1649.63056514     A.U. after   12 cycles
 E2 =    -0.1992754693D+01 EUMP2 =    -0.16516233198308D+04
 SCF Done:  E(RHF) =  -1649.63058056     A.U. after   10 cycles
 E2 =    -0.1992739595D+01 EUMP2 =    -0.16516233201500D+04
 SCF Done:  E(RHF) =  -1649.63058435     A.U. after    9 cycles
 E2 =    -0.1992735983D+01 EUMP2 =    -0.16516233203333D+04
 SCF Done:  E(RHF) =  -1649.63056532     A.U. after    9 cycles
 E2 =    -0.1992755171D+01 EUMP2 =    -0.16516233204883D+04
 SCF Done:  E(RHF) =  -1649.63054991     A.U. after    8 cycles
 E2 =    -0.1992770736D+01 EUMP2 =    -0.16516233206459D+04
 SCF Done:  E(RHF) =  -1649.63055253     A.U. after    8 cycles
 E2 =    -0.1992768193D+01 EUMP2 =    -0.16516233207265D+04
 Optimization completed.
    -- Stationary point found.

                         Standard orientation:
 ---------------------------------------------------------------------
 Center     Atomic      Atomic             Coordinates (Angstroms)
 Number     Number       Type             X           Y           Z
 ---------------------------------------------------------------------
      1          6           0        4.040408    0.379458    0.121016
      2          6           0        2.702853    0.863406    0.162811
      3          6           0        1.732823   -0.134942   -0.001014
      4          6           0        4.094341   -0.995462   -0.075121
      5          1           0        4.928514    1.007602    0.231241
      6         16           0        2.512380   -1.683733   -0.221593
      7          1           0        4.975272   -1.632878   -0.149603
      8          6           0        0.287756   -0.026056    0.027180
      9         16           0       -0.509586    1.533137   -0.228081
     10          6           0       -2.080037    0.786784   -0.137092
     11          6           0       -1.969700   -0.608729    0.081853
     12          6           0       -0.632016   -1.071854    0.178724
     13          1           0       -0.327199   -2.105392    0.359755
     14         16           0       -3.546035   -1.341783    0.202900
     15          6           0       -4.323871    0.207695   -0.036801
     16          6           0       -3.425176    1.255053   -0.200278
     17          1           0       -5.413688    0.257990   -0.049194
     18          1           0       -3.734879    2.289373   -0.360789
     19          8           0        2.322480    2.176750    0.342255
     20          1           0        3.119717    2.715230    0.451266
 ---------------------------------------------------------------------

 The electronic state is 1-A.
 Alpha  occ. eigenvalues --  -91.99773 -91.98897 -91.98754 -20.61791 -11.32665
 Alpha  occ. eigenvalues --  -11.29445 -11.29437 -11.28209 -11.27833 -11.27438
 Alpha  occ. eigenvalues --  -11.27128 -11.26672 -11.25980 -11.25758  -8.99927
 Alpha  occ. eigenvalues --   -8.99010  -8.98829  -6.68095  -6.68003  -6.67813
 Alpha  occ. eigenvalues --   -6.67176  -6.67097  -6.66986  -6.66900  -6.66899
 Alpha  occ. eigenvalues --   -6.66698  -1.41872  -1.20084  -1.17761  -1.11522
 Alpha  occ. eigenvalues --   -1.02442  -1.01913  -0.99004  -0.94362  -0.93768
 Alpha  occ. eigenvalues --   -0.82652  -0.80849  -0.76347  -0.74173  -0.71051
 Alpha  occ. eigenvalues --   -0.69756  -0.66762  -0.65659  -0.61021  -0.60728
 Alpha  occ. eigenvalues --   -0.58684  -0.56542  -0.55453  -0.54279  -0.52695
 Alpha  occ. eigenvalues --   -0.52152  -0.51226  -0.49711  -0.47954  -0.46190
 Alpha  occ. eigenvalues --   -0.45409  -0.38969  -0.35550  -0.34119  -0.31612
 Alpha  occ. eigenvalues --   -0.25923
 Alpha virt. eigenvalues --    0.02722   0.03701   0.03911   0.04970   0.05120
 Alpha virt. eigenvalues --    0.05576   0.06249   0.08498   0.09157   0.09519
 Alpha virt. eigenvalues --    0.10348   0.10633   0.10680   0.10963   0.11290

 Mulliken charges:
               1
     1  C    0.588324
     2  C    0.210970
     3  C    0.917965
     4  C   -0.346580
     5  H   -0.421022
     6  S    0.483923
     7  H   -0.347993
     8  C    0.147599
     9  S    0.492348
    10  C   -0.528400
    11  C   -0.099218
    12  C    0.173315
    13  H   -0.472616
    14  S    0.530935
    15  C   -0.200797
    16  C    0.284315
    17  H   -0.356276
    18  H   -0.298832
    19  O   -0.970295
    20  H    0.212335
 Sum of Mulliken charges =  -0.00000

 Dipole moment (field-independent basis, Debye):
    X=              2.7274    Y=              1.0175    Z=              0.2093  Tot=              2.9185
 Quadrupole moment (field-independent basis, Debye-Ang):
   XX=            -76.4251   YY=            -95.6549   ZZ=           -111.1215
   XY=              0.9406   XZ=              1.8923   YZ=             -0.0124

 Normal termination of Gaussian 16 at Wed Oct 27 06:06:01 2021.
