 Gaussian 16, Revision C.01,
 Gaussian 16:  ES64L-G16RevC.01  3-Jul-2019

 ----------------------------------
 # opt=modredundant mp2/aug-cc-pvdz
 ----------------------------------

 -------------
 pBTTT_145.pdb
 -------------
 Symbolic Z-matrix:
 Charge =  0 Multiplicity = 1

 SCF Done:  E(RHF) =  -1649.64262489     A.U. after   17 cycles
 E2 =    -0.1969661773D+01 EUMP2 =    -0.16516122866585D+04
 SCF Done:  E(RHF) =  -1649.63337659     A.U. after   15 cycles
 E2 =    -0.1989068215D+01 EUMP2 =    -0.16516224448098D+04
 SCF Done:  E(RHF) =  -1649.63108631     A.U. after   14 cycles
 E2 =    -0.1991969768D+01 EUMP2 =    -0.16516230560750D+04
 SCF Done:  E(RHF) =  -1649.63053847     A.U. after   13 cycles
 E2 =    -0.1992569923D+01 EUMP2 =    -0.16516231083966D+04
 SCF Done:  E(RHF) =  -1649.63061240     A.U. after   11 cycles
 E2 =    -0.1992502431D+01 EUMP2 =    -0.16516231148341D+04
 SCF Done:  E(RHF) =  -1649.63075265     A.U. after   12 cycles
 E2 =    -0.1992367671D+01 EUMP2 =    -0.16516231203257D+04
 SCF Done:  E(RHF) =  -1649.63082318     A.U. after   11 cycles
 E2 =    -0.1992299170D+01 EUMP2 =    -0.16516231223515D+04
 SCF Done:  E(RHF) =  -1649.63083308     A.U. after   11 cycles
 E2 =    -0.1992290546D+01 EUMP2 =    -0.16516231236230D+04
 SCF Done:  E(RHF) =  -1649.63077183     A.U. after   11 cycles
 E2 =    -0.1992352883D+01 EUMP2 =    -0.16516231247176D+04
 SCF Done:  E(RHF) =  -1649.63076217     A.U. after    9 cycles
 E2 =    -0.1992362732D+01 EUMP2 =    -0.16516231249000D+04
 Optimization completed.
    -- Stationary point found.

                         Standard orientation:
 ---------------------------------------------------------------------
 Center     Atomic      Atomic             Coordinates (Angstroms)
 Number     Number       Type             X           Y           Z
 ---------------------------------------------------------------------
      1          6           0       -3.936810    0.872122    0.172103
      2          6           0       -2.541298    1.141932    0.234356
      3          6           0       -1.740232    0.035872   -0.081195
      4          6           0       -4.201650   -0.446982   -0.182010
      5          1           0       -4.718820    1.607178    0.381417
      6         16           0       -2.746213   -1.339372   -0.461912
      7          1           0       -5.170835   -0.929703   -0.306914
      8          6           0       -0.291871   -0.045102   -0.062382
      9         16           0        0.506286   -1.548570    0.417424
     10          6           0        2.078503   -0.826830    0.211230
     11          6           0        1.959693    0.530370   -0.179605
     12          6           0        0.620138    0.977497   -0.338088
     13          1           0        0.303172    1.976364   -0.641260
     14         16           0        3.533225    1.253281   -0.372007
     15          6           0        4.318153   -0.247819    0.064640
     16          6           0        3.424611   -1.273483    0.350356
     17          1           0        5.408087   -0.290042    0.088180
     18          1           0        3.738614   -2.277479    0.641256
     19          8           0       -1.965592    2.352538    0.560577
     20          1           0       -2.663663    2.942483    0.880196
 ---------------------------------------------------------------------

 The electronic state is 1-A.
 Alpha  occ. eigenvalues --  -91.99746 -91.99024 -91.99003 -20.61687 -11.32498
 Alpha  occ. eigenvalues --  -11.29274 -11.29143 -11.28037 -11.27977 -11.27585
 Alpha  occ. eigenvalues --  -11.27449 -11.26549 -11.26140 -11.25661  -8.99890
 Alpha  occ. eigenvalues --   -8.99137  -8.99116  -6.68055  -6.67964  -6.67777
 Alpha  occ. eigenvalues --   -6.67302  -6.67282  -6.67222  -6.67199  -6.67026
 Alpha  occ. eigenvalues --   -6.66996  -1.41678  -1.20174  -1.17702  -1.11589
 Alpha  occ. eigenvalues --   -1.02386  -1.01972  -0.98934  -0.94435  -0.93784
 Alpha  occ. eigenvalues --   -0.82588  -0.80548  -0.76334  -0.73846  -0.71974
 Alpha  occ. eigenvalues --   -0.69523  -0.66367  -0.65684  -0.61184  -0.60558
 Alpha  occ. eigenvalues --   -0.58299  -0.56354  -0.55551  -0.54271  -0.52963
 Alpha  occ. eigenvalues --   -0.52158  -0.50806  -0.49808  -0.48368  -0.46105
 Alpha  occ. eigenvalues --   -0.45731  -0.38876  -0.35385  -0.33831  -0.31816
 Alpha  occ. eigenvalues --   -0.26362
 Alpha virt. eigenvalues --    0.02716   0.03751   0.03856   0.05088   0.05107
 Alpha virt. eigenvalues --    0.05921   0.06577   0.08182   0.08608   0.09431
 Alpha virt. eigenvalues --    0.10258   0.10461   0.10575   0.10843   0.11349

 Mulliken charges:
               1
     1  C    0.543241
     2  C    0.335943
     3  C    0.704231
     4  C   -0.353458
     5  H   -0.421656
     6  S    0.471229
     7  H   -0.323093
     8  C    0.190565
     9  S    0.471982
    10  C   -0.658694
    11  C    0.034737
    12  C    0.012631
    13  H   -0.415310
    14  S    0.576624
    15  C   -0.165917
    16  C    0.395987
    17  H   -0.351919
    18  H   -0.290315
    19  O   -0.964411
    20  H    0.207604
 Sum of Mulliken charges =  -0.00000

 Dipole moment (field-independent basis, Debye):
    X=             -2.2926    Y=              1.0926    Z=              0.5625  Tot=              2.6012
 Quadrupole moment (field-independent basis, Debye-Ang):
   XX=            -78.1917   YY=            -95.7358   ZZ=           -109.7022
   XY=            -10.1527   XZ=             -1.0205   YZ=              0.6916

 Normal termination of Gaussian 16 at Wed Oct 27 08:01:35 2021.
