 Gaussian 16, Revision C.01,
 Gaussian 16:  ES64L-G16RevC.01  3-Jul-2019

 ----------------------------------
 # opt=modredundant mp2/aug-cc-pvdz
 ----------------------------------

 --------------
 pBTTT_-170.pdb
 --------------
 Symbolic Z-matrix:
 Charge =  0 Multiplicity = 1

 SCF Done:  E(RHF) =  -1649.64236705     A.U. after   17 cycles
 E2 =    -0.1970480914D+01 EUMP2 =    -0.16516128479676D+04
 SCF Done:  E(RHF) =  -1649.63310612     A.U. after   15 cycles
 E2 =    -0.1989881627D+01 EUMP2 =    -0.16516229877437D+04
 SCF Done:  E(RHF) =  -1649.63092487     A.U. after   15 cycles
 E2 =    -0.1992627847D+01 EUMP2 =    -0.16516235527143D+04
 SCF Done:  E(RHF) =  -1649.63047382     A.U. after   14 cycles
 E2 =    -0.1993123030D+01 EUMP2 =    -0.16516235968550D+04
 SCF Done:  E(RHF) =  -1649.63058722     A.U. after   11 cycles
 E2 =    -0.1993012489D+01 EUMP2 =    -0.16516235997077D+04
 SCF Done:  E(RHF) =  -1649.63065335     A.U. after   11 cycles
 E2 =    -0.1992948194D+01 EUMP2 =    -0.16516236015425D+04
 SCF Done:  E(RHF) =  -1649.63067210     A.U. after    9 cycles
 E2 =    -0.1992929773D+01 EUMP2 =    -0.16516236018740D+04
 SCF Done:  E(RHF) =  -1649.63068166     A.U. after    9 cycles
 E2 =    -0.1992920438D+01 EUMP2 =    -0.16516236020977D+04
 SCF Done:  E(RHF) =  -1649.63065918     A.U. after    8 cycles
 E2 =    -0.1992943086D+01 EUMP2 =    -0.16516236022618D+04
 SCF Done:  E(RHF) =  -1649.63064990     A.U. after    8 cycles
 E2 =    -0.1992952409D+01 EUMP2 =    -0.16516236023130D+04
 Optimization completed.
    -- Stationary point found.

                         Standard orientation:
 ---------------------------------------------------------------------
 Center     Atomic      Atomic             Coordinates (Angstroms)
 Number     Number       Type             X           Y           Z
 ---------------------------------------------------------------------
      1          6           0        3.946154    0.890895    0.042101
      2          6           0        2.553286    1.176069    0.073209
      3          6           0        1.739468    0.036093   -0.013818
      4          6           0        4.202261   -0.471240   -0.069003
      5          1           0        4.732580    1.648342    0.099858
      6         16           0        2.738509   -1.391179   -0.146947
      7          1           0        5.166708   -0.976499   -0.115488
      8          6           0        0.291424   -0.034632   -0.004221
      9         16           0       -0.514412   -1.604314    0.139864
     10          6           0       -2.084786   -0.853405    0.063819
     11          6           0       -1.961736    0.552626   -0.053504
     12          6           0       -0.621631    1.023328   -0.094087
     13          1           0       -0.306563    2.062484   -0.187091
     14         16           0       -3.533708    1.301489   -0.119110
     15          6           0       -4.322518   -0.254480    0.009404
     16          6           0       -3.431005   -1.317548    0.100552
     17          1           0       -5.412599   -0.299297    0.010073
     18          1           0       -3.747197   -2.358564    0.187208
     19          8           0        1.993132    2.433174    0.177588
     20          1           0        2.710290    3.075966    0.277109
 ---------------------------------------------------------------------

 The electronic state is 1-A.
 Alpha  occ. eigenvalues --  -91.99779 -91.99000 -91.98978 -20.61987 -11.32587
 Alpha  occ. eigenvalues --  -11.29361 -11.29325 -11.28291 -11.27932 -11.27559
 Alpha  occ. eigenvalues --  -11.27424 -11.26636 -11.26131 -11.25470  -8.99938
 Alpha  occ. eigenvalues --   -8.99112  -8.99112  -6.68105  -6.68014  -6.67824
 Alpha  occ. eigenvalues --   -6.67281  -6.67278  -6.67198  -6.67198  -6.67003
 Alpha  occ. eigenvalues --   -6.66993  -1.41965  -1.20183  -1.17776  -1.11589
 Alpha  occ. eigenvalues --   -1.02416  -1.02041  -0.99017  -0.94409  -0.93810
 Alpha  occ. eigenvalues --   -0.82682  -0.80775  -0.76332  -0.74004  -0.71946
 Alpha  occ. eigenvalues --   -0.69731  -0.66533  -0.65495  -0.61242  -0.60775
 Alpha  occ. eigenvalues --   -0.58455  -0.56330  -0.55601  -0.54372  -0.53089
 Alpha  occ. eigenvalues --   -0.51668  -0.51235  -0.50031  -0.48157  -0.46324
 Alpha  occ. eigenvalues --   -0.45598  -0.39092  -0.35655  -0.34113  -0.31818
 Alpha  occ. eigenvalues --   -0.25828
 Alpha virt. eigenvalues --    0.02650   0.03721   0.03831   0.05076   0.05105
 Alpha virt. eigenvalues --    0.05444   0.06857   0.08241   0.08853   0.09632
 Alpha virt. eigenvalues --    0.10414   0.10532   0.10915   0.10972   0.11643

 Mulliken charges:
               1
     1  C    0.599832
     2  C    0.284883
     3  C    0.691384
     4  C   -0.353496
     5  H   -0.446307
     6  S    0.501363
     7  H   -0.349145
     8  C    0.047737
     9  S    0.504338
    10  C   -0.589183
    11  C    0.084583
    12  C    0.283895
    13  H   -0.439578
    14  S    0.493068
    15  C   -0.222173
    16  C    0.342440
    17  H   -0.355074
    18  H   -0.294119
    19  O   -1.016859
    20  H    0.232409
 Sum of Mulliken charges =  -0.00000

 Dipole moment (field-independent basis, Debye):
    X=              2.3950    Y=              1.1853    Z=              0.1479  Tot=              2.6764
 Quadrupole moment (field-independent basis, Debye-Ang):
   XX=            -77.8276   YY=            -94.1142   ZZ=           -111.3962
   XY=             10.8566   XZ=              0.3001   YZ=              0.2819

 Normal termination of Gaussian 16 at Wed Oct 27 05:38:42 2021.
