 Gaussian 16, Revision C.01,
 Gaussian 16:  ES64L-G16RevC.01  3-Jul-2019

 ----------------------------------
 # opt=modredundant mp2/aug-cc-pvdz
 ----------------------------------

 -------------
 pBTTT_-55.pdb
 -------------
 Symbolic Z-matrix:
 Charge =  0 Multiplicity = 1

 SCF Done:  E(RHF) =  -1649.64197274     A.U. after   17 cycles
 E2 =    -0.1968701439D+01 EUMP2 =    -0.16516106741801D+04
 SCF Done:  E(RHF) =  -1649.63272962     A.U. after   15 cycles
 E2 =    -0.1988165291D+01 EUMP2 =    -0.16516208949110D+04
 SCF Done:  E(RHF) =  -1649.63040137     A.U. after   14 cycles
 E2 =    -0.1991112980D+01 EUMP2 =    -0.16516215143522D+04
 SCF Done:  E(RHF) =  -1649.62986427     A.U. after   13 cycles
 E2 =    -0.1991713785D+01 EUMP2 =    -0.16516215780565D+04
 SCF Done:  E(RHF) =  -1649.62997345     A.U. after   11 cycles
 E2 =    -0.1991611844D+01 EUMP2 =    -0.16516215852899D+04
 SCF Done:  E(RHF) =  -1649.63006468     A.U. after   12 cycles
 E2 =    -0.1991523385D+01 EUMP2 =    -0.16516215880688D+04
 SCF Done:  E(RHF) =  -1649.63008951     A.U. after   11 cycles
 E2 =    -0.1991499866D+01 EUMP2 =    -0.16516215893732D+04
 SCF Done:  E(RHF) =  -1649.63008404     A.U. after   11 cycles
 E2 =    -0.1991505988D+01 EUMP2 =    -0.16516215900281D+04
 SCF Done:  E(RHF) =  -1649.63004463     A.U. after    9 cycles
 E2 =    -0.1991545931D+01 EUMP2 =    -0.16516215905560D+04
 SCF Done:  E(RHF) =  -1649.63001668     A.U. after    9 cycles
 E2 =    -0.1991574378D+01 EUMP2 =    -0.16516215910631D+04
 SCF Done:  E(RHF) =  -1649.63002240     A.U. after    9 cycles
 E2 =    -0.1991568906D+01 EUMP2 =    -0.16516215913017D+04
 SCF Done:  E(RHF) =  -1649.63004318     A.U. after    9 cycles
 E2 =    -0.1991548244D+01 EUMP2 =    -0.16516215914281D+04
 Optimization completed.
    -- Stationary point found.

                         Standard orientation:
 ---------------------------------------------------------------------
 Center     Atomic      Atomic             Coordinates (Angstroms)
 Number     Number       Type             X           Y           Z
 ---------------------------------------------------------------------
      1          6           0       -4.027431    0.347941    0.359331
      2          6           0       -2.685254    0.808623    0.469259
      3          6           0       -1.739051   -0.102303   -0.015611
      4          6           0       -4.101978   -0.924139   -0.200592
      5          1           0       -4.904779    0.914485    0.683426
      6         16           0       -2.537189   -1.536849   -0.606179
      7          1           0       -4.993241   -1.518859   -0.401159
      8          6           0       -0.287387   -0.004323    0.007677
      9         16           0        0.521670    1.400022   -0.690486
     10          6           0        2.087444    0.712225   -0.364875
     11          6           0        1.961633   -0.563943    0.240153
     12          6           0        0.617390   -0.972643    0.452602
     13          1           0        0.291394   -1.905076    0.918448
     14         16           0        3.529768   -1.241161    0.583162
     15          6           0        4.324087    0.171824   -0.075065
     16          6           0        3.437885    1.135556   -0.540150
     17          1           0        5.414370    0.210035   -0.087065
     18          1           0        3.758918    2.080174   -0.982721
     19          8           0       -2.281567    2.015563    0.997519
     20          1           0       -3.066139    2.489637    1.308590
 ---------------------------------------------------------------------

 The electronic state is 1-A.
 Alpha  occ. eigenvalues --  -91.99727 -91.99034 -91.98781 -20.61395 -11.32490
 Alpha  occ. eigenvalues --  -11.29265 -11.29128 -11.28043 -11.27760 -11.27531
 Alpha  occ. eigenvalues --  -11.27419 -11.26450 -11.26101 -11.26003  -8.99852
 Alpha  occ. eigenvalues --   -8.99147  -8.98875  -6.68015  -6.67923  -6.67738
 Alpha  occ. eigenvalues --   -6.67313  -6.67233  -6.67036  -6.67036  -6.66951
 Alpha  occ. eigenvalues --   -6.66752  -1.41469  -1.20139  -1.17630  -1.11574
 Alpha  occ. eigenvalues --   -1.02359  -1.01839  -0.98829  -0.94456  -0.93800
 Alpha  occ. eigenvalues --   -0.82466  -0.80471  -0.76370  -0.73929  -0.71457
 Alpha  occ. eigenvalues --   -0.69489  -0.66361  -0.65839  -0.60906  -0.60314
 Alpha  occ. eigenvalues --   -0.58486  -0.56583  -0.55505  -0.54005  -0.52766
 Alpha  occ. eigenvalues --   -0.52605  -0.50766  -0.49496  -0.48430  -0.45781
 Alpha  occ. eigenvalues --   -0.45650  -0.38641  -0.35144  -0.33251  -0.31640
 Alpha  occ. eigenvalues --   -0.27207
 Alpha virt. eigenvalues --    0.02798   0.03736   0.03951   0.04954   0.05107
 Alpha virt. eigenvalues --    0.06234   0.06550   0.08348   0.08545   0.09080
 Alpha virt. eigenvalues --    0.10131   0.10355   0.10442   0.10727   0.11147

 Mulliken charges:
               1
     1  C    0.439293
     2  C    0.589275
     3  C    0.555414
     4  C   -0.248735
     5  H   -0.414476
     6  S    0.409169
     7  H   -0.315308
     8  C    0.215665
     9  S    0.443654
    10  C   -0.591741
    11  C   -0.203673
    12  C    0.112647
    13  H   -0.440137
    14  S    0.608976
    15  C   -0.147752
    16  C    0.403747
    17  H   -0.349630
    18  H   -0.288959
    19  O   -0.971120
    20  H    0.193691
 Sum of Mulliken charges =  -0.00000

 Dipole moment (field-independent basis, Debye):
    X=             -2.4096    Y=              0.7553    Z=              0.5807  Tot=              2.5911
 Quadrupole moment (field-independent basis, Debye-Ang):
   XX=            -76.5896   YY=            -98.4796   ZZ=           -108.1334
   XY=             -0.3344   XZ=             -5.2372   YZ=             -0.0409

 Normal termination of Gaussian 16 at Wed Oct 27 06:28:32 2021.
