 Gaussian 16, Revision C.01,
 Gaussian 16:  ES64L-G16RevC.01  3-Jul-2019

 ----------------------------------
 # opt=modredundant mp2/aug-cc-pvdz
 ----------------------------------

 -----------
 pBTTT_5.pdb
 -----------
 Symbolic Z-matrix:
 Charge =  0 Multiplicity = 1

 SCF Done:  E(RHF) =  -1649.64263905     A.U. after   17 cycles
 E2 =    -0.1969930534D+01 EUMP2 =    -0.16516125695832D+04
 SCF Done:  E(RHF) =  -1649.63327708     A.U. after   15 cycles
 E2 =    -0.1989656866D+01 EUMP2 =    -0.16516229339455D+04
 SCF Done:  E(RHF) =  -1649.63097024     A.U. after   14 cycles
 E2 =    -0.1992547920D+01 EUMP2 =    -0.16516235181640D+04
 SCF Done:  E(RHF) =  -1649.63052351     A.U. after   13 cycles
 E2 =    -0.1993040768D+01 EUMP2 =    -0.16516235642754D+04
 SCF Done:  E(RHF) =  -1649.63065823     A.U. after   11 cycles
 E2 =    -0.1992908967D+01 EUMP2 =    -0.16516235671928D+04
 SCF Done:  E(RHF) =  -1649.63071479     A.U. after   10 cycles
 E2 =    -0.1992852714D+01 EUMP2 =    -0.16516235675016D+04
 SCF Done:  E(RHF) =  -1649.63070470     A.U. after    9 cycles
 E2 =    -0.1992862980D+01 EUMP2 =    -0.16516235676771D+04
 Optimization completed.
    -- Stationary point found.

                         Standard orientation:
 ---------------------------------------------------------------------
 Center     Atomic      Atomic             Coordinates (Angstroms)
 Number     Number       Type             X           Y           Z
 ---------------------------------------------------------------------
      1          6           0        4.040771    0.390772    0.029389
      2          6           0        2.701178    0.871478    0.040723
      3          6           0        1.732517   -0.141018    0.000621
      4          6           0        4.098910   -0.996259   -0.019711
      5          1           0        4.926653    1.030888    0.056343
      6         16           0        2.517884   -1.702635   -0.055504
      7          1           0        4.981118   -1.635846   -0.038757
      8          6           0        0.287625   -0.033426    0.008554
      9         16           0       -0.509103    1.547273   -0.055876
     10          6           0       -2.079891    0.796825   -0.034531
     11          6           0       -1.971626   -0.614614    0.020544
     12          6           0       -0.634721   -1.087674    0.046167
     13          1           0       -0.333871   -2.137135    0.092187
     14         16           0       -3.548937   -1.355182    0.050236
     15          6           0       -4.324706    0.212781   -0.010501
     16          6           0       -3.424441    1.270679   -0.050931
     17          1           0       -5.414425    0.265713   -0.014174
     18          1           0       -3.732775    2.316995   -0.091436
     19          8           0        2.318410    2.195631    0.085681
     20          1           0        3.114809    2.745776    0.106739
 ---------------------------------------------------------------------

 The electronic state is 1-A.
 Alpha  occ. eigenvalues --  -91.99769 -91.98865 -91.98757 -20.61885 -11.32721
 Alpha  occ. eigenvalues --  -11.29500 -11.29497 -11.28307 -11.27784 -11.27421
 Alpha  occ. eigenvalues --  -11.27041 -11.26716 -11.25951 -11.25708  -8.99929
 Alpha  occ. eigenvalues --   -8.98978  -8.98824  -6.68099  -6.68007  -6.67816
 Alpha  occ. eigenvalues --   -6.67144  -6.67065  -6.66979  -6.66893  -6.66868
 Alpha  occ. eigenvalues --   -6.66691  -1.41976  -1.20066  -1.17785  -1.11506
 Alpha  occ. eigenvalues --   -1.02465  -1.01918  -0.99034  -0.94344  -0.93766
 Alpha  occ. eigenvalues --   -0.82686  -0.80931  -0.76343  -0.74232  -0.70981
 Alpha  occ. eigenvalues --   -0.69822  -0.66869  -0.65610  -0.61053  -0.60833
 Alpha  occ. eigenvalues --   -0.58703  -0.56554  -0.55437  -0.54332  -0.52676
 Alpha  occ. eigenvalues --   -0.52029  -0.51366  -0.49725  -0.47851  -0.46289
 Alpha  occ. eigenvalues --   -0.45314  -0.39049  -0.35610  -0.34226  -0.31615
 Alpha  occ. eigenvalues --   -0.25744
 Alpha virt. eigenvalues --    0.02699   0.03685   0.03895   0.04969   0.05114
 Alpha virt. eigenvalues --    0.05442   0.06245   0.08491   0.09445   0.09549
 Alpha virt. eigenvalues --    0.10355   0.10695   0.10780   0.11123   0.11368

 Mulliken charges:
               1
     1  C    0.709881
     2  C    0.062795
     3  C    0.947415
     4  C   -0.363706
     5  H   -0.422736
     6  S    0.551364
     7  H   -0.362851
     8  C    0.132634
     9  S    0.460068
    10  C   -0.511421
    11  C   -0.030999
    12  C    0.168383
    13  H   -0.479921
    14  S    0.500271
    15  C   -0.218781
    16  C    0.288777
    17  H   -0.360910
    18  H   -0.304739
    19  O   -0.985335
    20  H    0.219810
 Sum of Mulliken charges =  -0.00000

 Dipole moment (field-independent basis, Debye):
    X=              2.7983    Y=              1.0710    Z=              0.0420  Tot=              2.9966
 Quadrupole moment (field-independent basis, Debye-Ang):
   XX=            -76.4114   YY=            -95.2083   ZZ=           -111.5668
   XY=              1.0695   XZ=              0.4392   YZ=             -0.0365

 Normal termination of Gaussian 16 at Wed Oct 27 05:43:34 2021.
