 Gaussian 16, Revision C.01,
 Gaussian 16:  ES64L-G16RevC.01  3-Jul-2019

 ----------------------------------
 # opt=modredundant mp2/aug-cc-pvdz
 ----------------------------------

 -------------
 pBTTT_120.pdb
 -------------
 Symbolic Z-matrix:
 Charge =  0 Multiplicity = 1

 SCF Done:  E(RHF) =  -1649.64200614     A.U. after   17 cycles
 E2 =    -0.1968619812D+01 EUMP2 =    -0.16516106259476D+04
 SCF Done:  E(RHF) =  -1649.63273014     A.U. after   15 cycles
 E2 =    -0.1987995140D+01 EUMP2 =    -0.16516207252751D+04
 SCF Done:  E(RHF) =  -1649.63042682     A.U. after   14 cycles
 E2 =    -0.1990922210D+01 EUMP2 =    -0.16516213490267D+04
 SCF Done:  E(RHF) =  -1649.62981369     A.U. after   13 cycles
 E2 =    -0.1991602326D+01 EUMP2 =    -0.16516214160144D+04
 SCF Done:  E(RHF) =  -1649.62988790     A.U. after   12 cycles
 E2 =    -0.1991534435D+01 EUMP2 =    -0.16516214223335D+04
 SCF Done:  E(RHF) =  -1649.63001771     A.U. after   11 cycles
 E2 =    -0.1991409954D+01 EUMP2 =    -0.16516214276688D+04
 SCF Done:  E(RHF) =  -1649.63006662     A.U. after   11 cycles
 E2 =    -0.1991362161D+01 EUMP2 =    -0.16516214287778D+04
 SCF Done:  E(RHF) =  -1649.63005493     A.U. after   10 cycles
 E2 =    -0.1991374181D+01 EUMP2 =    -0.16516214291090D+04
 SCF Done:  E(RHF) =  -1649.63002991     A.U. after    9 cycles
 E2 =    -0.1991399463D+01 EUMP2 =    -0.16516214293739D+04
 SCF Done:  E(RHF) =  -1649.63001956     A.U. after    9 cycles
 E2 =    -0.1991410017D+01 EUMP2 =    -0.16516214295769D+04
 SCF Done:  E(RHF) =  -1649.63002060     A.U. after    9 cycles
 E2 =    -0.1991409060D+01 EUMP2 =    -0.16516214296623D+04
 Optimization completed.
    -- Stationary point found.

                         Standard orientation:
 ---------------------------------------------------------------------
 Center     Atomic      Atomic             Coordinates (Angstroms)
 Number     Number       Type             X           Y           Z
 ---------------------------------------------------------------------
      1          6           0       -3.931183    0.822280    0.284538
      2          6           0       -2.532755    1.064597    0.396724
      3          6           0       -1.742790    0.037708   -0.133489
      4          6           0       -4.204351   -0.403966   -0.314212
      5          1           0       -4.708812    1.507906    0.632293
      6         16           0       -2.756774   -1.239225   -0.755443
      7          1           0       -5.178062   -0.844766   -0.528398
      8          6           0       -0.290503   -0.059875   -0.112061
      9         16           0        0.496275   -1.427572    0.683209
     10          6           0        2.072533   -0.761953    0.360160
     11          6           0        1.963470    0.485041   -0.306295
     12          6           0        0.626174    0.883781   -0.577058
     13          1           0        0.312547    1.799519   -1.081533
     14         16           0        3.540939    1.150448   -0.628231
     15          6           0        4.316036   -0.227785    0.119898
     16          6           0        3.416923   -1.171707    0.600839
     17          1           0        5.405464   -0.263171    0.166854
     18          1           0        3.724739   -2.093620    1.097358
     19          8           0       -1.945356    2.178609    0.956056
     20          1           0       -2.641397    2.718133    1.358154
 ---------------------------------------------------------------------

 The electronic state is 1-A.
 Alpha  occ. eigenvalues --  -91.99638 -91.99064 -91.98951 -20.61398 -11.32479
 Alpha  occ. eigenvalues --  -11.29261 -11.28907 -11.28078 -11.27686 -11.27597
 Alpha  occ. eigenvalues --  -11.27484 -11.26402 -11.26156 -11.25908  -8.99770
 Alpha  occ. eigenvalues --   -8.99178  -8.99046  -6.67933  -6.67841  -6.67657
 Alpha  occ. eigenvalues --   -6.67343  -6.67263  -6.67209  -6.67125  -6.67067
 Alpha  occ. eigenvalues --   -6.66926  -1.41440  -1.20141  -1.17591  -1.11565
 Alpha  occ. eigenvalues --   -1.02337  -1.01841  -0.98798  -0.94453  -0.93784
 Alpha  occ. eigenvalues --   -0.82433  -0.80329  -0.76355  -0.73715  -0.71989
 Alpha  occ. eigenvalues --   -0.69336  -0.66265  -0.65821  -0.61065  -0.60312
 Alpha  occ. eigenvalues --   -0.58137  -0.56440  -0.55543  -0.54031  -0.52836
 Alpha  occ. eigenvalues --   -0.52670  -0.50524  -0.49490  -0.48583  -0.45887
 Alpha  occ. eigenvalues --   -0.45669  -0.38605  -0.35033  -0.33100  -0.31692
 Alpha  occ. eigenvalues --   -0.27457
 Alpha virt. eigenvalues --    0.02769   0.03739   0.03911   0.05013   0.05081
 Alpha virt. eigenvalues --    0.06231   0.06924   0.08098   0.08455   0.09116
 Alpha virt. eigenvalues --    0.09815   0.10111   0.10481   0.10907   0.11244

 Mulliken charges:
               1
     1  C    0.554454
     2  C    0.409760
     3  C    0.619862
     4  C   -0.344136
     5  H   -0.409042
     6  S    0.422311
     7  H   -0.315085
     8  C    0.279214
     9  S    0.429894
    10  C   -0.758434
    11  C   -0.042900
    12  C   -0.029331
    13  H   -0.398018
    14  S    0.625219
    15  C   -0.132856
    16  C    0.499773
    17  H   -0.349914
    18  H   -0.290744
    19  O   -0.963885
    20  H    0.193856
 Sum of Mulliken charges =  -0.00000

 Dipole moment (field-independent basis, Debye):
    X=             -2.1866    Y=              1.0136    Z=              0.7442  Tot=              2.5224
 Quadrupole moment (field-independent basis, Debye-Ang):
   XX=            -78.2477   YY=            -98.2023   ZZ=           -107.1730
   XY=             -9.2624   XZ=             -1.0071   YZ=              0.3381

 Normal termination of Gaussian 16 at Wed Oct 27 07:28:04 2021.
