 Gaussian 16, Revision C.01,
 Gaussian 16:  ES64L-G16RevC.01  3-Jul-2019

 ----------------------------------
 # opt=modredundant mp2/aug-cc-pvdz
 ----------------------------------

 -------------
 pBTTT_170.pdb
 -------------
 Symbolic Z-matrix:
 Charge =  0 Multiplicity = 1

 SCF Done:  E(RHF) =  -1649.64236674     A.U. after   17 cycles
 E2 =    -0.1970477531D+01 EUMP2 =    -0.16516128442746D+04
 SCF Done:  E(RHF) =  -1649.63310802     A.U. after   15 cycles
 E2 =    -0.1989878701D+01 EUMP2 =    -0.16516229867184D+04
 SCF Done:  E(RHF) =  -1649.63092359     A.U. after   15 cycles
 E2 =    -0.1992629036D+01 EUMP2 =    -0.16516235526285D+04
 SCF Done:  E(RHF) =  -1649.63047233     A.U. after   14 cycles
 E2 =    -0.1993124507D+01 EUMP2 =    -0.16516235968379D+04
 SCF Done:  E(RHF) =  -1649.63058726     A.U. after   11 cycles
 E2 =    -0.1993012456D+01 EUMP2 =    -0.16516235997200D+04
 SCF Done:  E(RHF) =  -1649.63065306     A.U. after   11 cycles
 E2 =    -0.1992948477D+01 EUMP2 =    -0.16516236015415D+04
 SCF Done:  E(RHF) =  -1649.63067125     A.U. after    9 cycles
 E2 =    -0.1992930614D+01 EUMP2 =    -0.16516236018627D+04
 SCF Done:  E(RHF) =  -1649.63068066     A.U. after    9 cycles
 E2 =    -0.1992921420D+01 EUMP2 =    -0.16516236020783D+04
 SCF Done:  E(RHF) =  -1649.63065846     A.U. after    8 cycles
 E2 =    -0.1992943775D+01 EUMP2 =    -0.16516236022382D+04
 SCF Done:  E(RHF) =  -1649.63064996     A.U. after    8 cycles
 E2 =    -0.1992952333D+01 EUMP2 =    -0.16516236022895D+04
 Optimization completed.
    -- Stationary point found.

                         Standard orientation:
 ---------------------------------------------------------------------
 Center     Atomic      Atomic             Coordinates (Angstroms)
 Number     Number       Type             X           Y           Z
 ---------------------------------------------------------------------
      1          6           0       -3.946144    0.890948    0.041937
      2          6           0       -2.553268    1.176101    0.072954
      3          6           0       -1.739470    0.036082   -0.013744
      4          6           0       -4.202281   -0.471214   -0.068768
      5          1           0       -4.732551    1.648431    0.099469
      6         16           0       -2.738549   -1.391211   -0.146416
      7          1           0       -5.166739   -0.976466   -0.115098
      8          6           0       -0.291423   -0.034655   -0.004181
      9         16           0        0.514424   -1.604379    0.139371
     10          6           0        2.084791   -0.853431    0.063545
     11          6           0        1.961737    0.552631   -0.053352
     12          6           0        0.621627    1.023335   -0.093743
     13          1           0        0.306552    2.062518   -0.186414
     14         16           0        3.533705    1.301529   -0.118680
     15          6           0        4.322522   -0.254473    0.009388
     16          6           0        3.431012   -1.317574    0.100181
     17          1           0        5.412603   -0.299288    0.010052
     18          1           0        3.747209   -2.358615    0.186521
     19          8           0       -1.993091    2.433227    0.176950
     20          1           0       -2.710240    3.076077    0.276149
 ---------------------------------------------------------------------

 The electronic state is 1-A.
 Alpha  occ. eigenvalues --  -91.99779 -91.99000 -91.98978 -20.61988 -11.32587
 Alpha  occ. eigenvalues --  -11.29361 -11.29325 -11.28291 -11.27932 -11.27559
 Alpha  occ. eigenvalues --  -11.27424 -11.26636 -11.26131 -11.25470  -8.99938
 Alpha  occ. eigenvalues --   -8.99112  -8.99112  -6.68105  -6.68014  -6.67824
 Alpha  occ. eigenvalues --   -6.67281  -6.67278  -6.67198  -6.67198  -6.67003
 Alpha  occ. eigenvalues --   -6.66993  -1.41965  -1.20183  -1.17776  -1.11589
 Alpha  occ. eigenvalues --   -1.02416  -1.02041  -0.99017  -0.94409  -0.93810
 Alpha  occ. eigenvalues --   -0.82682  -0.80775  -0.76332  -0.74004  -0.71946
 Alpha  occ. eigenvalues --   -0.69732  -0.66533  -0.65494  -0.61242  -0.60775
 Alpha  occ. eigenvalues --   -0.58455  -0.56330  -0.55601  -0.54372  -0.53089
 Alpha  occ. eigenvalues --   -0.51667  -0.51236  -0.50032  -0.48157  -0.46324
 Alpha  occ. eigenvalues --   -0.45598  -0.39092  -0.35655  -0.34113  -0.31818
 Alpha  occ. eigenvalues --   -0.25828
 Alpha virt. eigenvalues --    0.02650   0.03721   0.03831   0.05076   0.05105
 Alpha virt. eigenvalues --    0.05443   0.06857   0.08241   0.08853   0.09632
 Alpha virt. eigenvalues --    0.10414   0.10532   0.10916   0.10973   0.11643

 Mulliken charges:
               1
     1  C    0.599995
     2  C    0.284681
     3  C    0.691428
     4  C   -0.353386
     5  H   -0.446356
     6  S    0.501374
     7  H   -0.349184
     8  C    0.047218
     9  S    0.504448
    10  C   -0.589069
    11  C    0.084664
    12  C    0.284394
    13  H   -0.439620
    14  S    0.492949
    15  C   -0.222256
    16  C    0.342436
    17  H   -0.355079
    18  H   -0.294132
    19  O   -1.016948
    20  H    0.232443
 Sum of Mulliken charges =  -0.00000

 Dipole moment (field-independent basis, Debye):
    X=             -2.3951    Y=              1.1854    Z=              0.1474  Tot=              2.6765
 Quadrupole moment (field-independent basis, Debye-Ang):
   XX=            -77.8277   YY=            -94.1127   ZZ=           -111.3975
   XY=            -10.8572   XZ=             -0.2989   YZ=              0.2812

 Normal termination of Gaussian 16 at Wed Oct 27 07:50:52 2021.
