 Gaussian 16, Revision C.01,
 Gaussian 16:  ES64L-G16RevC.01  3-Jul-2019

 ----------------------------------
 # opt=modredundant mp2/aug-cc-pvdz
 ----------------------------------

 -------------
 pBTTT_-75.pdb
 -------------
 Symbolic Z-matrix:
 Charge =  0 Multiplicity = 1

 SCF Done:  E(RHF) =  -1649.64158337     A.U. after   17 cycles
 E2 =    -0.1968125947D+01 EUMP2 =    -0.16516097093184D+04
 SCF Done:  E(RHF) =  -1649.63229713     A.U. after   14 cycles
 E2 =    -0.1987460898D+01 EUMP2 =    -0.16516197580226D+04
 SCF Done:  E(RHF) =  -1649.63003004     A.U. after   13 cycles
 E2 =    -0.1990317149D+01 EUMP2 =    -0.16516203471843D+04
 SCF Done:  E(RHF) =  -1649.62953473     A.U. after   13 cycles
 E2 =    -0.1990866718D+01 EUMP2 =    -0.16516204014487D+04
 SCF Done:  E(RHF) =  -1649.62966055     A.U. after   11 cycles
 E2 =    -0.1990745231D+01 EUMP2 =    -0.16516204057849D+04
 SCF Done:  E(RHF) =  -1649.62973793     A.U. after   11 cycles
 E2 =    -0.1990669232D+01 EUMP2 =    -0.16516204071608D+04
 SCF Done:  E(RHF) =  -1649.62974548     A.U. after   10 cycles
 E2 =    -0.1990662296D+01 EUMP2 =    -0.16516204077778D+04
 SCF Done:  E(RHF) =  -1649.62974115     A.U. after   11 cycles
 E2 =    -0.1990667103D+01 EUMP2 =    -0.16516204082553D+04
 SCF Done:  E(RHF) =  -1649.62971585     A.U. after   10 cycles
 E2 =    -0.1990692674D+01 EUMP2 =    -0.16516204085218D+04
 SCF Done:  E(RHF) =  -1649.62970070     A.U. after    9 cycles
 E2 =    -0.1990708062D+01 EUMP2 =    -0.16516204087591D+04
 SCF Done:  E(RHF) =  -1649.62970785     A.U. after    8 cycles
 E2 =    -0.1990701008D+01 EUMP2 =    -0.16516204088588D+04
 SCF Done:  E(RHF) =  -1649.62971810     A.U. after    9 cycles
 E2 =    -0.1990690801D+01 EUMP2 =    -0.16516204089023D+04
 Optimization completed.
    -- Stationary point found.

                         Standard orientation:
 ---------------------------------------------------------------------
 Center     Atomic      Atomic             Coordinates (Angstroms)
 Number     Number       Type             X           Y           Z
 ---------------------------------------------------------------------
      1          6           0       -4.000666    0.364690    0.513080
      2          6           0       -2.636230    0.743104    0.665585
      3          6           0       -1.744038   -0.103323   -0.000774
      4          6           0       -4.142673   -0.779069   -0.267367
      5          1           0       -4.845468    0.896613    0.959242
      6         16           0       -2.616248   -1.374944   -0.815153
      7          1           0       -5.064037   -1.291912   -0.544106
      8          6           0       -0.286096   -0.027985   -0.019347
      9         16           0        0.519810    1.209123   -0.984058
     10          6           0        2.087202    0.617398   -0.513503
     11          6           0        1.963104   -0.506663    0.342665
     12          6           0        0.618756   -0.874820    0.622691
     13          1           0        0.291580   -1.697790    1.261366
     14         16           0        3.532015   -1.096416    0.817646
     15          6           0        4.324497    0.149841   -0.119770
     16          6           0        3.437752    0.994177   -0.775840
     17          1           0        5.414682    0.188887   -0.135738
     18          1           0        3.757912    1.826788   -1.404621
     19          8           0       -2.166217    1.816517    1.388430
     20          1           0       -2.923796    2.276979    1.776929
 ---------------------------------------------------------------------

 The electronic state is 1-A.
 Alpha  occ. eigenvalues --  -91.99624 -91.99088 -91.98807 -20.61273 -11.32434
 Alpha  occ. eigenvalues --  -11.29219 -11.28911 -11.28144 -11.27606 -11.27493
 Alpha  occ. eigenvalues --  -11.27463 -11.26318 -11.26149 -11.26132  -8.99740
 Alpha  occ. eigenvalues --   -8.99202  -8.98900  -6.67901  -6.67810  -6.67626
 Alpha  occ. eigenvalues --   -6.67368  -6.67288  -6.67091  -6.67061  -6.66975
 Alpha  occ. eigenvalues --   -6.66778  -1.41357  -1.20132  -1.17530  -1.11566
 Alpha  occ. eigenvalues --   -1.02315  -1.01756  -0.98712  -0.94490  -0.93808
 Alpha  occ. eigenvalues --   -0.82345  -0.80278  -0.76379  -0.73797  -0.71715
 Alpha  occ. eigenvalues --   -0.69364  -0.66290  -0.65830  -0.60886  -0.60173
 Alpha  occ. eigenvalues --   -0.58263  -0.56610  -0.55555  -0.53848  -0.52912
 Alpha  occ. eigenvalues --   -0.52719  -0.50571  -0.49301  -0.48651  -0.45823
 Alpha  occ. eigenvalues --   -0.45436  -0.38506  -0.34888  -0.32146  -0.31689
 Alpha  occ. eigenvalues --   -0.28428
 Alpha virt. eigenvalues --    0.02809   0.03721   0.03971   0.04897   0.05092
 Alpha virt. eigenvalues --    0.06224   0.07433   0.08101   0.08471   0.08892
 Alpha virt. eigenvalues --    0.09311   0.10244   0.10400   0.10739   0.11286

 Mulliken charges:
               1
     1  C    0.532327
     2  C    0.568502
     3  C    0.343208
     4  C   -0.281976
     5  H   -0.408912
     6  S    0.376206
     7  H   -0.307474
     8  C    0.485341
     9  S    0.423927
    10  C   -0.727221
    11  C   -0.208769
    12  C   -0.007213
    13  H   -0.410027
    14  S    0.646005
    15  C   -0.135286
    16  C    0.548110
    17  H   -0.349836
    18  H   -0.292248
    19  O   -0.985361
    20  H    0.190696
 Sum of Mulliken charges =  -0.00000

 Dipole moment (field-independent basis, Debye):
    X=             -2.2395    Y=              0.7060    Z=              0.7236  Tot=              2.4571
 Quadrupole moment (field-independent basis, Debye-Ang):
   XX=            -77.0291   YY=           -100.9031   ZZ=           -105.2817
   XY=             -0.4857   XZ=             -6.8432   YZ=             -0.1398

 Normal termination of Gaussian 16 at Wed Oct 27 06:26:18 2021.
