 Gaussian 16, Revision C.01,
 Gaussian 16:  ES64L-G16RevC.01  3-Jul-2019

 ----------------------------------
 # opt=modredundant mp2/aug-cc-pvdz
 ----------------------------------

 -------------
 pBTTT_-50.pdb
 -------------
 Symbolic Z-matrix:
 Charge =  0 Multiplicity = 1

 SCF Done:  E(RHF) =  -1649.64206579     A.U. after   17 cycles
 E2 =    -0.1968945976D+01 EUMP2 =    -0.16516110117664D+04
 SCF Done:  E(RHF) =  -1649.63282586     A.U. after   15 cycles
 E2 =    -0.1988391460D+01 EUMP2 =    -0.16516212173220D+04
 SCF Done:  E(RHF) =  -1649.63048134     A.U. after   14 cycles
 E2 =    -0.1991357661D+01 EUMP2 =    -0.16516218390051D+04
 SCF Done:  E(RHF) =  -1649.62994005     A.U. after   13 cycles
 E2 =    -0.1991962445D+01 EUMP2 =    -0.16516219024994D+04
 SCF Done:  E(RHF) =  -1649.63004442     A.U. after   11 cycles
 E2 =    -0.1991865104D+01 EUMP2 =    -0.16516219095259D+04
 SCF Done:  E(RHF) =  -1649.63013482     A.U. after   12 cycles
 E2 =    -0.1991777565D+01 EUMP2 =    -0.16516219123862D+04
 SCF Done:  E(RHF) =  -1649.63016368     A.U. after   11 cycles
 E2 =    -0.1991749989D+01 EUMP2 =    -0.16516219136681D+04
 SCF Done:  E(RHF) =  -1649.63016063     A.U. after   11 cycles
 E2 =    -0.1991753668D+01 EUMP2 =    -0.16516219142937D+04
 SCF Done:  E(RHF) =  -1649.63012238     A.U. after    9 cycles
 E2 =    -0.1991792438D+01 EUMP2 =    -0.16516219148155D+04
 SCF Done:  E(RHF) =  -1649.63009328     A.U. after    9 cycles
 E2 =    -0.1991822077D+01 EUMP2 =    -0.16516219153571D+04
 SCF Done:  E(RHF) =  -1649.63009911     A.U. after    9 cycles
 E2 =    -0.1991816489D+01 EUMP2 =    -0.16516219155972D+04
 SCF Done:  E(RHF) =  -1649.63012141     A.U. after    9 cycles
 E2 =    -0.1991794311D+01 EUMP2 =    -0.16516219157182D+04
 Optimization completed.
    -- Stationary point found.

                         Standard orientation:
 ---------------------------------------------------------------------
 Center     Atomic      Atomic             Coordinates (Angstroms)
 Number     Number       Type             X           Y           Z
 ---------------------------------------------------------------------
      1          6           0       -4.031429    0.348613    0.322746
      2          6           0       -2.692465    0.820582    0.421052
      3          6           0       -1.737699   -0.106086   -0.015735
      4          6           0       -4.096130   -0.947122   -0.180993
      5          1           0       -4.913645    0.924878    0.614879
      6         16           0       -2.525391   -1.568610   -0.550097
      7          1           0       -4.982867   -1.554710   -0.361929
      8          6           0       -0.287642   -0.004354    0.013798
      9         16           0        0.519975    1.432283   -0.618500
     10          6           0        2.086349    0.728854   -0.330510
     11          6           0        1.962321   -0.573709    0.215368
     12          6           0        0.618921   -0.991827    0.412405
     13          1           0        0.295306   -1.944587    0.837177
     14         16           0        3.531443   -1.264560    0.525337
     15          6           0        4.323827    0.178003   -0.068093
     16          6           0        3.436092    1.161358   -0.487091
     17          1           0        5.414070    0.217388   -0.080451
     18          1           0        3.755772    2.125639   -0.886145
     19          8           0       -2.298815    2.053134    0.895799
     20          1           0       -3.087414    2.534636    1.184539
 ---------------------------------------------------------------------

 The electronic state is 1-A.
 Alpha  occ. eigenvalues --  -91.99745 -91.99015 -91.98775 -20.61444 -11.32510
 Alpha  occ. eigenvalues --  -11.29285 -11.29183 -11.28012 -11.27834 -11.27514
 Alpha  occ. eigenvalues --  -11.27392 -11.26487 -11.26085 -11.25963  -8.99874
 Alpha  occ. eigenvalues --   -8.99128  -8.98868  -6.68037  -6.67945  -6.67759
 Alpha  occ. eigenvalues --   -6.67294  -6.67215  -6.67028  -6.67017  -6.66943
 Alpha  occ. eigenvalues --   -6.66744  -1.41516  -1.20136  -1.17655  -1.11571
 Alpha  occ. eigenvalues --   -1.02373  -1.01858  -0.98861  -0.94442  -0.93796
 Alpha  occ. eigenvalues --   -0.82499  -0.80528  -0.76367  -0.73964  -0.71389
 Alpha  occ. eigenvalues --   -0.69527  -0.66405  -0.65824  -0.60920  -0.60367
 Alpha  occ. eigenvalues --   -0.58533  -0.56574  -0.55493  -0.54048  -0.52759
 Alpha  occ. eigenvalues --   -0.52537  -0.50826  -0.49545  -0.48360  -0.45815
 Alpha  occ. eigenvalues --   -0.45662  -0.38687  -0.35219  -0.33456  -0.31632
 Alpha  occ. eigenvalues --   -0.26943
 Alpha virt. eigenvalues --    0.02791   0.03735   0.03945   0.04963   0.05111
 Alpha virt. eigenvalues --    0.06232   0.06356   0.08405   0.08575   0.09156
 Alpha virt. eigenvalues --    0.10245   0.10403   0.10465   0.10718   0.11161

 Mulliken charges:
               1
     1  C    0.442807
     2  C    0.543433
     3  C    0.625826
     4  C   -0.257201
     5  H   -0.415846
     6  S    0.422327
     7  H   -0.317429
     8  C    0.183394
     9  S    0.455233
    10  C   -0.562969
    11  C   -0.206191
    12  C    0.122861
    13  H   -0.444858
    14  S    0.599341
    15  C   -0.155961
    16  C    0.375814
    17  H   -0.349917
    18  H   -0.289176
    19  O   -0.966830
    20  H    0.195340
 Sum of Mulliken charges =  -0.00000

 Dipole moment (field-independent basis, Debye):
    X=             -2.4568    Y=              0.7876    Z=              0.5408  Tot=              2.6360
 Quadrupole moment (field-independent basis, Debye-Ang):
   XX=            -76.5343   YY=            -97.9572   ZZ=           -108.7175
   XY=             -0.3823   XZ=             -4.7976   YZ=             -0.0012

 Normal termination of Gaussian 16 at Wed Oct 27 06:50:20 2021.
