 Gaussian 16, Revision C.01,
 Gaussian 16:  ES64L-G16RevC.01  3-Jul-2019

 ----------------------------------
 # opt=modredundant mp2/aug-cc-pvdz
 ----------------------------------

 -------------
 pBTTT_-15.pdb
 -------------
 Symbolic Z-matrix:
 Charge =  0 Multiplicity = 1

 SCF Done:  E(RHF) =  -1649.64257120     A.U. after   17 cycles
 E2 =    -0.1969881148D+01 EUMP2 =    -0.16516124523481D+04
 SCF Done:  E(RHF) =  -1649.63323171     A.U. after   15 cycles
 E2 =    -0.1989557508D+01 EUMP2 =    -0.16516227892211D+04
 SCF Done:  E(RHF) =  -1649.63089839     A.U. after   14 cycles
 E2 =    -0.1992484879D+01 EUMP2 =    -0.16516233832687D+04
 SCF Done:  E(RHF) =  -1649.63043778     A.U. after   14 cycles
 E2 =    -0.1992993038D+01 EUMP2 =    -0.16516234308194D+04
 SCF Done:  E(RHF) =  -1649.63055821     A.U. after   12 cycles
 E2 =    -0.1992875902D+01 EUMP2 =    -0.16516234341125D+04
 SCF Done:  E(RHF) =  -1649.63062628     A.U. after   11 cycles
 E2 =    -0.1992809275D+01 EUMP2 =    -0.16516234355571D+04
 SCF Done:  E(RHF) =  -1649.63063555     A.U. after    9 cycles
 E2 =    -0.1992800226D+01 EUMP2 =    -0.16516234357714D+04
 SCF Done:  E(RHF) =  -1649.63063633     A.U. after    9 cycles
 E2 =    -0.1992799550D+01 EUMP2 =    -0.16516234358795D+04
 SCF Done:  E(RHF) =  -1649.63062429     A.U. after    8 cycles
 E2 =    -0.1992811664D+01 EUMP2 =    -0.16516234359522D+04
 SCF Done:  E(RHF) =  -1649.63061303     A.U. after    9 cycles
 E2 =    -0.1992823023D+01 EUMP2 =    -0.16516234360503D+04
 SCF Done:  E(RHF) =  -1649.63061393     A.U. after    8 cycles
 E2 =    -0.1992822173D+01 EUMP2 =    -0.16516234361038D+04
 Optimization completed.
    -- Stationary point found.

                         Standard orientation:
 ---------------------------------------------------------------------
 Center     Atomic      Atomic             Coordinates (Angstroms)
 Number     Number       Type             X           Y           Z
 ---------------------------------------------------------------------
      1          6           0       -4.040601    0.384519    0.089973
      2          6           0       -2.702186    0.867093    0.122265
      3          6           0       -1.732638   -0.137834    0.000295
      4          6           0       -4.096223   -0.996098   -0.057333
      5          1           0       -4.927856    1.018107    0.171985
      6         16           0       -2.514564   -1.692589   -0.166722
      7          1           0       -4.977701   -1.634564   -0.113820
      8          6           0       -0.287705   -0.029320    0.022698
      9         16           0        0.509214    1.539809   -0.169752
     10          6           0        2.079843    0.791406   -0.103687
     11          6           0        1.970567   -0.611490    0.061266
     12          6           0        0.633279   -1.079121    0.136125
     13          1           0        0.330342   -2.119982    0.273189
     14         16           0        3.547411   -1.347940    0.151921
     15          6           0        4.324175    0.210125   -0.029051
     16          6           0        3.424660    1.262366   -0.151604
     17          1           0        5.413949    0.261685   -0.039170
     18          1           0        3.733636    2.302260   -0.272682
     19          8           0       -2.320822    2.185561    0.256520
     20          1           0       -3.117796    2.729659    0.335507
 ---------------------------------------------------------------------

 The electronic state is 1-A.
 Alpha  occ. eigenvalues --  -91.99772 -91.98883 -91.98755 -20.61833 -11.32689
 Alpha  occ. eigenvalues --  -11.29469 -11.29464 -11.28252 -11.27811 -11.27430
 Alpha  occ. eigenvalues --  -11.27089 -11.26691 -11.25967 -11.25735  -8.99928
 Alpha  occ. eigenvalues --   -8.98995  -8.98826  -6.68098  -6.68005  -6.67815
 Alpha  occ. eigenvalues --   -6.67162  -6.67082  -6.66982  -6.66896  -6.66885
 Alpha  occ. eigenvalues --   -6.66695  -1.41918  -1.20076  -1.17771  -1.11514
 Alpha  occ. eigenvalues --   -1.02452  -1.01915  -0.99018  -0.94354  -0.93767
 Alpha  occ. eigenvalues --   -0.82667  -0.80885  -0.76345  -0.74199  -0.71019
 Alpha  occ. eigenvalues --   -0.69785  -0.66809  -0.65637  -0.61035  -0.60775
 Alpha  occ. eigenvalues --   -0.58693  -0.56545  -0.55447  -0.54303  -0.52686
 Alpha  occ. eigenvalues --   -0.52101  -0.51285  -0.49719  -0.47908  -0.46234
 Alpha  occ. eigenvalues --   -0.45367  -0.39004  -0.35577  -0.34168  -0.31613
 Alpha  occ. eigenvalues --   -0.25839
 Alpha virt. eigenvalues --    0.02712   0.03694   0.03905   0.04969   0.05118
 Alpha virt. eigenvalues --    0.05514   0.06248   0.08495   0.09282   0.09532
 Alpha virt. eigenvalues --    0.10354   0.10683   0.10700   0.11016   0.11316

 Mulliken charges:
               1
     1  C    0.625635
     2  C    0.159301
     3  C    0.936480
     4  C   -0.355930
     5  H   -0.421647
     6  S    0.503734
     7  H   -0.354082
     8  C    0.142210
     9  S    0.484484
    10  C   -0.526735
    11  C   -0.073160
    12  C    0.179377
    13  H   -0.475880
    14  S    0.518718
    15  C   -0.207645
    16  C    0.283291
    17  H   -0.357894
    18  H   -0.301214
    19  O   -0.974372
    20  H    0.215329
 Sum of Mulliken charges =  -0.00000

 Dipole moment (field-independent basis, Debye):
    X=             -2.7591    Y=              1.0425    Z=              0.1521  Tot=              2.9534
 Quadrupole moment (field-independent basis, Debye-Ang):
   XX=            -76.4211   YY=            -95.4475   ZZ=           -111.3280
   XY=             -1.0020   XZ=             -1.4052   YZ=             -0.0243

 Normal termination of Gaussian 16 at Wed Oct 27 06:19:35 2021.
