 Gaussian 16, Revision C.01,
 Gaussian 16:  ES64L-G16RevC.01  3-Jul-2019

 ----------------------------------
 # opt=modredundant mp2/aug-cc-pvdz
 ----------------------------------

 ------------
 pBTTT_40.pdb
 ------------
 Symbolic Z-matrix:
 Charge =  0 Multiplicity = 1

 SCF Done:  E(RHF) =  -1649.64223657     A.U. after   17 cycles
 E2 =    -0.1969374009D+01 EUMP2 =    -0.16516116105763D+04
 SCF Done:  E(RHF) =  -1649.63294949     A.U. after   15 cycles
 E2 =    -0.1988874213D+01 EUMP2 =    -0.16516218237013D+04
 SCF Done:  E(RHF) =  -1649.63062281     A.U. after   14 cycles
 E2 =    -0.1991809774D+01 EUMP2 =    -0.16516224325841D+04
 SCF Done:  E(RHF) =  -1649.63008730     A.U. after   13 cycles
 E2 =    -0.1992406104D+01 EUMP2 =    -0.16516224934034D+04
 SCF Done:  E(RHF) =  -1649.63019535     A.U. after   11 cycles
 E2 =    -0.1992303666D+01 EUMP2 =    -0.16516224990208D+04
 SCF Done:  E(RHF) =  -1649.63027963     A.U. after   12 cycles
 E2 =    -0.1992221806D+01 EUMP2 =    -0.16516225014363D+04
 SCF Done:  E(RHF) =  -1649.63030344     A.U. after   10 cycles
 E2 =    -0.1992198915D+01 EUMP2 =    -0.16516225023503D+04
 SCF Done:  E(RHF) =  -1649.63029862     A.U. after   10 cycles
 E2 =    -0.1992204266D+01 EUMP2 =    -0.16516225028871D+04
 SCF Done:  E(RHF) =  -1649.63027017     A.U. after    9 cycles
 E2 =    -0.1992233104D+01 EUMP2 =    -0.16516225032752D+04
 SCF Done:  E(RHF) =  -1649.63025503     A.U. after    9 cycles
 E2 =    -0.1992248629D+01 EUMP2 =    -0.16516225036586D+04
 SCF Done:  E(RHF) =  -1649.63026343     A.U. after    9 cycles
 E2 =    -0.1992240365D+01 EUMP2 =    -0.16516225037941D+04
 Optimization completed.
    -- Stationary point found.

                         Standard orientation:
 ---------------------------------------------------------------------
 Center     Atomic      Atomic             Coordinates (Angstroms)
 Number     Number       Type             X           Y           Z
 ---------------------------------------------------------------------
      1          6           0        4.036745    0.355407    0.252965
      2          6           0        2.700914    0.839294    0.330737
      3          6           0        1.735335   -0.116064   -0.012108
      4          6           0        4.090487   -0.976882   -0.144157
      5          1           0        4.924566    0.950925    0.482767
      6         16           0        2.512074   -1.619862   -0.440310
      7          1           0        4.972051   -1.601450   -0.288584
      8          6           0        0.287882   -0.009368    0.024267
      9         16           0       -0.515551    1.480530   -0.481132
     10          6           0       -2.083659    0.754786   -0.265850
     11          6           0       -1.964651   -0.589211    0.168493
     12          6           0       -0.623440   -1.024785    0.336020
     13          1           0       -0.306305   -2.011325    0.681670
     14         16           0       -3.536493   -1.299675    0.414453
     15          6           0       -4.323473    0.190010   -0.058061
     16          6           0       -3.431618    1.202912   -0.389131
     17          1           0       -5.413586    0.232800   -0.071978
     18          1           0       -3.747527    2.198311   -0.706549
     19          8           0        2.318780    2.110813    0.702182
     20          1           0        3.112943    2.611748    0.937984
 ---------------------------------------------------------------------

 The electronic state is 1-A.
 Alpha  occ. eigenvalues --  -91.99766 -91.98975 -91.98763 -20.61559 -11.32556
 Alpha  occ. eigenvalues --  -11.29333 -11.29283 -11.27974 -11.27949 -11.27484
 Alpha  occ. eigenvalues --  -11.27316 -11.26557 -11.26050 -11.25887  -8.99903
 Alpha  occ. eigenvalues --   -8.99088  -8.98852  -6.68068  -6.67976  -6.67789
 Alpha  occ. eigenvalues --   -6.67254  -6.67174  -6.67012  -6.66977  -6.66927
 Alpha  occ. eigenvalues --   -6.66726  -1.41629  -1.20124  -1.17698  -1.11558
 Alpha  occ. eigenvalues --   -1.02398  -1.01886  -0.98918  -0.94414  -0.93785
 Alpha  occ. eigenvalues --   -0.82560  -0.80643  -0.76360  -0.74036  -0.71258
 Alpha  occ. eigenvalues --   -0.69604  -0.66518  -0.65776  -0.60952  -0.60485
 Alpha  occ. eigenvalues --   -0.58605  -0.56555  -0.55476  -0.54133  -0.52742
 Alpha  occ. eigenvalues --   -0.52401  -0.50954  -0.49626  -0.48214  -0.45944
 Alpha  occ. eigenvalues --   -0.45602  -0.38785  -0.35357  -0.33765  -0.31620
 Alpha  occ. eigenvalues --   -0.26502
 Alpha virt. eigenvalues --    0.02770   0.03729   0.03934   0.04971   0.05117
 Alpha virt. eigenvalues --    0.06010   0.06248   0.08477   0.08696   0.09317
 Alpha virt. eigenvalues --    0.10308   0.10487   0.10565   0.10754   0.11199

 Mulliken charges:
               1
     1  C    0.473553
     2  C    0.431612
     3  C    0.757007
     4  C   -0.285358
     5  H   -0.418007
     6  S    0.442981
     7  H   -0.324494
     8  C    0.153678
     9  S    0.478449
    10  C   -0.530572
    11  C   -0.191781
    12  C    0.136049
    13  H   -0.454332
    14  S    0.578948
    15  C   -0.172989
    16  C    0.330597
    17  H   -0.351085
    18  H   -0.290767
    19  O   -0.963441
    20  H    0.199951
 Sum of Mulliken charges =  -0.00000

 Dipole moment (field-independent basis, Debye):
    X=              2.5524    Y=              0.8662    Z=              0.4452  Tot=              2.7319
 Quadrupole moment (field-independent basis, Debye-Ang):
   XX=            -76.4666   YY=            -97.0242   ZZ=           -109.7228
   XY=              0.5544   XZ=              3.8756   YZ=              0.0405

 Normal termination of Gaussian 16 at Wed Oct 27 06:31:42 2021.
