 Gaussian 16, Revision C.01,
 Gaussian 16:  ES64L-G16RevC.01  3-Jul-2019

 ----------------------------------
 # opt=modredundant mp2/aug-cc-pvdz
 ----------------------------------

 ------------
 pBTTT_70.pdb
 ------------
 Symbolic Z-matrix:
 Charge =  0 Multiplicity = 1

 SCF Done:  E(RHF) =  -1649.64167578     A.U. after   17 cycles
 E2 =    -0.1968124158D+01 EUMP2 =    -0.16516097999406D+04
 SCF Done:  E(RHF) =  -1649.63242392     A.U. after   14 cycles
 E2 =    -0.1987572639D+01 EUMP2 =    -0.16516199965629D+04
 SCF Done:  E(RHF) =  -1649.63012793     A.U. after   13 cycles
 E2 =    -0.1990467471D+01 EUMP2 =    -0.16516205954058D+04
 SCF Done:  E(RHF) =  -1649.62961639     A.U. after   13 cycles
 E2 =    -0.1991035875D+01 EUMP2 =    -0.16516206522639D+04
 SCF Done:  E(RHF) =  -1649.62973889     A.U. after   12 cycles
 E2 =    -0.1990918662D+01 EUMP2 =    -0.16516206575560D+04
 SCF Done:  E(RHF) =  -1649.62982095     A.U. after   11 cycles
 E2 =    -0.1990838374D+01 EUMP2 =    -0.16516206593209D+04
 SCF Done:  E(RHF) =  -1649.62983541     A.U. after   11 cycles
 E2 =    -0.1990824727D+01 EUMP2 =    -0.16516206601359D+04
 SCF Done:  E(RHF) =  -1649.62983036     A.U. after   11 cycles
 E2 =    -0.1990830323D+01 EUMP2 =    -0.16516206606848D+04
 SCF Done:  E(RHF) =  -1649.62979649     A.U. after   10 cycles
 E2 =    -0.1990864560D+01 EUMP2 =    -0.16516206610508D+04
 SCF Done:  E(RHF) =  -1649.62977964     A.U. after    9 cycles
 E2 =    -0.1990881699D+01 EUMP2 =    -0.16516206613363D+04
 SCF Done:  E(RHF) =  -1649.62978603     A.U. after    8 cycles
 E2 =    -0.1990875422D+01 EUMP2 =    -0.16516206614561D+04
 SCF Done:  E(RHF) =  -1649.62979838     A.U. after    9 cycles
 E2 =    -0.1990863140D+01 EUMP2 =    -0.16516206615200D+04
 Optimization completed.
    -- Stationary point found.

                         Standard orientation:
 ---------------------------------------------------------------------
 Center     Atomic      Atomic             Coordinates (Angstroms)
 Number     Number       Type             X           Y           Z
 ---------------------------------------------------------------------
      1          6           0        4.009272    0.357471    0.473137
      2          6           0        2.651519    0.761759    0.616816
      3          6           0        1.742947   -0.100347   -0.006543
      4          6           0        4.130383   -0.823075   -0.254308
      5          1           0        4.864156    0.897050    0.889971
      6         16           0        2.592082   -1.420314   -0.766809
      7          1           0        5.042597   -1.360853   -0.513364
      8          6           0        0.286347   -0.018044   -0.011825
      9         16           0       -0.521693    1.268453   -0.907953
     10          6           0       -2.088060    0.646639   -0.473595
     11          6           0       -1.962234   -0.524770    0.316111
     12          6           0       -0.617412   -0.903983    0.577889
     13          1           0       -0.289351   -1.760358    1.170600
     14         16           0       -3.530249   -1.142713    0.757078
     15          6           0       -4.324620    0.155041   -0.105993
     16          6           0       -3.439020    1.037205   -0.712059
     17          1           0       -5.414869    0.193048   -0.120171
     18          1           0       -3.760356    1.904549   -1.291359
     19          8           0        2.201638    1.872293    1.295510
     20          1           0        2.967730    2.334021    1.665422
 ---------------------------------------------------------------------

 The electronic state is 1-A.
 Alpha  occ. eigenvalues --  -91.99652 -91.99078 -91.98799 -20.61293 -11.32445
 Alpha  occ. eigenvalues --  -11.29227 -11.28961 -11.28123 -11.27588 -11.27551
 Alpha  occ. eigenvalues --  -11.27458 -11.26347 -11.26139 -11.26108  -8.99770
 Alpha  occ. eigenvalues --   -8.99192  -8.98893  -6.67931  -6.67839  -6.67655
 Alpha  occ. eigenvalues --   -6.67358  -6.67277  -6.67081  -6.67054  -6.66969
 Alpha  occ. eigenvalues --   -6.66771  -1.41375  -1.20135  -1.17553  -1.11570
 Alpha  occ. eigenvalues --   -1.02323  -1.01776  -0.98738  -0.94484  -0.93808
 Alpha  occ. eigenvalues --   -0.82371  -0.80319  -0.76377  -0.73829  -0.71654
 Alpha  occ. eigenvalues --   -0.69391  -0.66297  -0.65839  -0.60885  -0.60199
 Alpha  occ. eigenvalues --   -0.58321  -0.56607  -0.55543  -0.53884  -0.52857
 Alpha  occ. eigenvalues --   -0.52716  -0.50613  -0.49345  -0.48606  -0.45810
 Alpha  occ. eigenvalues --   -0.45484  -0.38531  -0.34941  -0.32454  -0.31671
 Alpha  occ. eigenvalues --   -0.28114
 Alpha virt. eigenvalues --    0.02809   0.03727   0.03968   0.04911   0.05096
 Alpha virt. eigenvalues --    0.06226   0.07205   0.08160   0.08490   0.08922
 Alpha virt. eigenvalues --    0.09533   0.10270   0.10415   0.10730   0.11219

 Mulliken charges:
               1
     1  C    0.494472
     2  C    0.601082
     3  C    0.383662
     4  C   -0.263130
     5  H   -0.410143
     6  S    0.381492
     7  H   -0.310066
     8  C    0.401206
     9  S    0.427777
    10  C   -0.698004
    11  C   -0.200707
    12  C    0.034270
    13  H   -0.419195
    14  S    0.637186
    15  C   -0.136666
    16  C    0.510147
    17  H   -0.349528
    18  H   -0.290826
    19  O   -0.984483
    20  H    0.191454
 Sum of Mulliken charges =  -0.00000

 Dipole moment (field-independent basis, Debye):
    X=              2.2794    Y=              0.7046    Z=              0.6874  Tot=              2.4829
 Quadrupole moment (field-independent basis, Debye-Ang):
   XX=            -76.8800   YY=           -100.2338   ZZ=           -106.0839
   XY=              0.3896   XZ=              6.4579   YZ=             -0.1335

 Normal termination of Gaussian 16 at Wed Oct 27 07:10:32 2021.
