 Gaussian 16, Revision C.01,
 Gaussian 16:  ES64L-G16RevC.01  3-Jul-2019

 ----------------------------------
 # opt=modredundant mp2/aug-cc-pvdz
 ----------------------------------

 -------------
 pBTTT_140.pdb
 -------------
 Symbolic Z-matrix:
 Charge =  0 Multiplicity = 1

 SCF Done:  E(RHF) =  -1649.64256426     A.U. after   17 cycles
 E2 =    -0.1969435583D+01 EUMP2 =    -0.16516119998385D+04
 SCF Done:  E(RHF) =  -1649.63331758     A.U. after   15 cycles
 E2 =    -0.1988848169D+01 EUMP2 =    -0.16516221657512D+04
 SCF Done:  E(RHF) =  -1649.63101026     A.U. after   14 cycles
 E2 =    -0.1991775874D+01 EUMP2 =    -0.16516227861336D+04
 SCF Done:  E(RHF) =  -1649.63043887     A.U. after   13 cycles
 E2 =    -0.1992402972D+01 EUMP2 =    -0.16516228418380D+04
 SCF Done:  E(RHF) =  -1649.63050926     A.U. after   11 cycles
 E2 =    -0.1992338892D+01 EUMP2 =    -0.16516228481483D+04
 SCF Done:  E(RHF) =  -1649.63065738     A.U. after   12 cycles
 E2 =    -0.1992196584D+01 EUMP2 =    -0.16516228539653D+04
 SCF Done:  E(RHF) =  -1649.63072223     A.U. after   11 cycles
 E2 =    -0.1992133462D+01 EUMP2 =    -0.16516228556906D+04
 SCF Done:  E(RHF) =  -1649.63073130     A.U. after   11 cycles
 E2 =    -0.1992125453D+01 EUMP2 =    -0.16516228567493D+04
 SCF Done:  E(RHF) =  -1649.63067857     A.U. after   11 cycles
 E2 =    -0.1992179247D+01 EUMP2 =    -0.16516228578199D+04
 SCF Done:  E(RHF) =  -1649.63066569     A.U. after   10 cycles
 E2 =    -0.1992192445D+01 EUMP2 =    -0.16516228581366D+04
 Optimization completed.
    -- Stationary point found.

                         Standard orientation:
 ---------------------------------------------------------------------
 Center     Atomic      Atomic             Coordinates (Angstroms)
 Number     Number       Type             X           Y           Z
 ---------------------------------------------------------------------
      1          6           0       -3.934077    0.866051    0.199207
      2          6           0       -2.537669    1.131279    0.265191
      3          6           0       -1.740606    0.036855   -0.096161
      4          6           0       -4.202383   -0.439269   -0.200905
      5          1           0       -4.714157    1.593884    0.438791
      6         16           0       -2.749973   -1.323095   -0.519520
      7          1           0       -5.173143   -0.915183   -0.339276
      8          6           0       -0.291815   -0.048515   -0.077699
      9         16           0        0.503465   -1.531088    0.466514
     10          6           0        2.076671   -0.817974    0.239863
     11          6           0        1.960070    0.523116   -0.204304
     12          6           0        0.621088    0.962635   -0.387666
     13          1           0        0.304812    1.949103   -0.730235
     14         16           0        3.534526    1.237468   -0.419372
     15          6           0        4.317206   -0.245739    0.078235
     16          6           0        3.422351   -1.259292    0.400277
     17          1           0        5.407024   -0.287019    0.108089
     18          1           0        3.734939   -2.251258    0.731223
     19          8           0       -1.957630    2.327328    0.633668
     20          1           0       -2.651746    2.904403    0.983884
 ---------------------------------------------------------------------

 The electronic state is 1-A.
 Alpha  occ. eigenvalues --  -91.99730 -91.99030 -91.99001 -20.61621 -11.32491
 Alpha  occ. eigenvalues --  -11.29270 -11.29093 -11.27992 -11.27973 -11.27587
 Alpha  occ. eigenvalues --  -11.27457 -11.26524 -11.26143 -11.25707  -8.99872
 Alpha  occ. eigenvalues --   -8.99143  -8.99109  -6.68036  -6.67945  -6.67758
 Alpha  occ. eigenvalues --   -6.67309  -6.67274  -6.67229  -6.67191  -6.67033
 Alpha  occ. eigenvalues --   -6.66989  -1.41620  -1.20168  -1.17683  -1.11585
 Alpha  occ. eigenvalues --   -1.02377  -1.01949  -0.98910  -0.94438  -0.93781
 Alpha  occ. eigenvalues --   -0.82561  -0.80499  -0.76336  -0.73815  -0.71979
 Alpha  occ. eigenvalues --   -0.69479  -0.66333  -0.65726  -0.61162  -0.60512
 Alpha  occ. eigenvalues --   -0.58264  -0.56372  -0.55537  -0.54232  -0.52934
 Alpha  occ. eigenvalues --   -0.52257  -0.50735  -0.49748  -0.48416  -0.46048
 Alpha  occ. eigenvalues --   -0.45747  -0.38820  -0.35316  -0.33734  -0.31801
 Alpha  occ. eigenvalues --   -0.26532
 Alpha virt. eigenvalues --    0.02729   0.03751   0.03865   0.05087   0.05097
 Alpha virt. eigenvalues --    0.06038   0.06552   0.08166   0.08572   0.09386
 Alpha virt. eigenvalues --    0.10201   0.10399   0.10518   0.10848   0.11328

 Mulliken charges:
               1
     1  C    0.538271
     2  C    0.354267
     3  C    0.696955
     4  C   -0.348950
     5  H   -0.418060
     6  S    0.461029
     7  H   -0.320066
     8  C    0.200080
     9  S    0.469434
    10  C   -0.679960
    11  C    0.026298
    12  C   -0.016564
    13  H   -0.412465
    14  S    0.589336
    15  C   -0.156105
    16  C    0.414609
    17  H   -0.351532
    18  H   -0.290060
    19  O   -0.960721
    20  H    0.204201
 Sum of Mulliken charges =  -0.00000

 Dipole moment (field-independent basis, Debye):
    X=             -2.2691    Y=              1.0724    Z=              0.6306  Tot=              2.5877
 Quadrupole moment (field-independent basis, Debye-Ang):
   XX=            -78.2600   YY=            -96.1820   ZZ=           -109.2315
   XY=             -9.9616   XZ=             -1.1003   YZ=              0.6824

 Normal termination of Gaussian 16 at Wed Oct 27 07:45:01 2021.
