 Gaussian 16, Revision C.01,
 Gaussian 16:  ES64L-G16RevC.01  3-Jul-2019

 ----------------------------------
 # opt=modredundant mp2/aug-cc-pvdz
 ----------------------------------

 ------------
 pBTTT_10.pdb
 ------------
 Symbolic Z-matrix:
 Charge =  0 Multiplicity = 1

 SCF Done:  E(RHF) =  -1649.64261388     A.U. after   17 cycles
 E2 =    -0.1970066186D+01 EUMP2 =    -0.16516126800614D+04
 SCF Done:  E(RHF) =  -1649.63323865     A.U. after   15 cycles
 E2 =    -0.1989650962D+01 EUMP2 =    -0.16516228896074D+04
 SCF Done:  E(RHF) =  -1649.63093707     A.U. after   14 cycles
 E2 =    -0.1992531676D+01 EUMP2 =    -0.16516234687452D+04
 SCF Done:  E(RHF) =  -1649.63049329     A.U. after   13 cycles
 E2 =    -0.1993020992D+01 EUMP2 =    -0.16516235142803D+04
 SCF Done:  E(RHF) =  -1649.63061927     A.U. after   12 cycles
 E2 =    -0.1992898012D+01 EUMP2 =    -0.16516235172829D+04
 SCF Done:  E(RHF) =  -1649.63068157     A.U. after   11 cycles
 E2 =    -0.1992836490D+01 EUMP2 =    -0.16516235180617D+04
 Optimization completed.
    -- Stationary point found.

                         Standard orientation:
 ---------------------------------------------------------------------
 Center     Atomic      Atomic             Coordinates (Angstroms)
 Number     Number       Type             X           Y           Z
 ---------------------------------------------------------------------
      1          6           0        4.040910    0.388418    0.059282
      2          6           0        2.701783    0.869764    0.081628
      3          6           0        1.732622   -0.139790    0.000895
      4          6           0        4.098200   -0.996152   -0.039621
      5          1           0        4.927336    1.026027    0.113524
      6         16           0        2.516853   -1.698739   -0.110816
      7          1           0        4.980059   -1.635318   -0.077968
      8          6           0        0.287665   -0.031899    0.016263
      9         16           0       -0.509294    1.544397   -0.112581
     10          6           0       -2.080080    0.794821   -0.068952
     11          6           0       -1.971296   -0.613429    0.041153
     12          6           0       -0.634240   -1.084378    0.091751
     13          1           0       -0.332489   -2.130514    0.183803
     14         16           0       -3.548455   -1.352431    0.100721
     15          6           0       -4.324747    0.211662   -0.020440
     16          6           0       -3.424786    1.267455   -0.101480
     17          1           0       -5.414456    0.263931   -0.027517
     18          1           0       -3.733564    2.311275   -0.182321
     19          8           0        2.319404    2.191745    0.171952
     20          1           0        3.116023    2.740186    0.214795
 ---------------------------------------------------------------------

 The electronic state is 1-A.
 Alpha  occ. eigenvalues --  -91.99769 -91.98872 -91.98756 -20.61863 -11.32709
 Alpha  occ. eigenvalues --  -11.29488 -11.29486 -11.28288 -11.27794 -11.27425
 Alpha  occ. eigenvalues --  -11.27061 -11.26706 -11.25957 -11.25719  -8.99928
 Alpha  occ. eigenvalues --   -8.98984  -8.98824  -6.68098  -6.68006  -6.67815
 Alpha  occ. eigenvalues --   -6.67151  -6.67071  -6.66980  -6.66894  -6.66874
 Alpha  occ. eigenvalues --   -6.66692  -1.41952  -1.20070  -1.17781  -1.11511
 Alpha  occ. eigenvalues --   -1.02460  -1.01917  -0.99027  -0.94349  -0.93769
 Alpha  occ. eigenvalues --   -0.82680  -0.80914  -0.76343  -0.74218  -0.70997
 Alpha  occ. eigenvalues --   -0.69809  -0.66848  -0.65621  -0.61048  -0.60810
 Alpha  occ. eigenvalues --   -0.58701  -0.56552  -0.55444  -0.54322  -0.52684
 Alpha  occ. eigenvalues --   -0.52058  -0.51335  -0.49721  -0.47869  -0.46269
 Alpha  occ. eigenvalues --   -0.45331  -0.39032  -0.35599  -0.34204  -0.31614
 Alpha  occ. eigenvalues --   -0.25782
 Alpha virt. eigenvalues --    0.02705   0.03689   0.03899   0.04969   0.05116
 Alpha virt. eigenvalues --    0.05469   0.06247   0.08493   0.09385   0.09540
 Alpha virt. eigenvalues --    0.10356   0.10699   0.10741   0.11073   0.11344

 Mulliken charges:
               1
     1  C    0.668621
     2  C    0.107008
     3  C    0.945688
     4  C   -0.361859
     5  H   -0.422271
     6  S    0.528766
     7  H   -0.359283
     8  C    0.135888
     9  S    0.473282
    10  C   -0.520615
    11  C   -0.049946
    12  C    0.178092
    13  H   -0.478449
    14  S    0.508074
    15  C   -0.214596
    16  C    0.286253
    17  H   -0.359588
    18  H   -0.303334
    19  O   -0.979329
    20  H    0.217598
 Sum of Mulliken charges =  -0.00000

 Dipole moment (field-independent basis, Debye):
    X=              2.7826    Y=              1.0606    Z=              0.0854  Tot=              2.9791
 Quadrupole moment (field-independent basis, Debye-Ang):
   XX=            -76.4049   YY=            -95.2989   ZZ=           -111.4826
   XY=              1.0447   XZ=              0.8808   YZ=             -0.0680

 Normal termination of Gaussian 16 at Wed Oct 27 05:51:20 2021.
