 Gaussian 16, Revision C.01,
 Gaussian 16:  ES64L-G16RevC.01  3-Jul-2019

 ----------------------------------
 # opt=modredundant mp2/aug-cc-pvdz
 ----------------------------------

 -------------
 pBTTT_115.pdb
 -------------
 Symbolic Z-matrix:
 Charge =  0 Multiplicity = 1

 SCF Done:  E(RHF) =  -1649.64184034     A.U. after   17 cycles
 E2 =    -0.1968296985D+01 EUMP2 =    -0.16516101373223D+04
 SCF Done:  E(RHF) =  -1649.63258590     A.U. after   15 cycles
 E2 =    -0.1987755030D+01 EUMP2 =    -0.16516203409272D+04
 SCF Done:  E(RHF) =  -1649.63025299     A.U. after   14 cycles
 E2 =    -0.1990724889D+01 EUMP2 =    -0.16516209778776D+04
 SCF Done:  E(RHF) =  -1649.62965522     A.U. after   13 cycles
 E2 =    -0.1991390235D+01 EUMP2 =    -0.16516210454552D+04
 SCF Done:  E(RHF) =  -1649.62973610     A.U. after   12 cycles
 E2 =    -0.1991315940D+01 EUMP2 =    -0.16516210520383D+04
 SCF Done:  E(RHF) =  -1649.62985587     A.U. after   11 cycles
 E2 =    -0.1991201184D+01 EUMP2 =    -0.16516210570510D+04
 SCF Done:  E(RHF) =  -1649.62990354     A.U. after   11 cycles
 E2 =    -0.1991154697D+01 EUMP2 =    -0.16516210582404D+04
 SCF Done:  E(RHF) =  -1649.62989000     A.U. after   10 cycles
 E2 =    -0.1991168555D+01 EUMP2 =    -0.16516210585525D+04
 SCF Done:  E(RHF) =  -1649.62986461     A.U. after    9 cycles
 E2 =    -0.1991194161D+01 EUMP2 =    -0.16516210587683D+04
 SCF Done:  E(RHF) =  -1649.62985485     A.U. after    9 cycles
 E2 =    -0.1991204070D+01 EUMP2 =    -0.16516210589220D+04
 SCF Done:  E(RHF) =  -1649.62985511     A.U. after    9 cycles
 E2 =    -0.1991203887D+01 EUMP2 =    -0.16516210590001D+04
 SCF Done:  E(RHF) =  -1649.62986253     A.U. after    9 cycles
 E2 =    -0.1991196506D+01 EUMP2 =    -0.16516210590361D+04
 Optimization completed.
    -- Stationary point found.

                         Standard orientation:
 ---------------------------------------------------------------------
 Center     Atomic      Atomic             Coordinates (Angstroms)
 Number     Number       Type             X           Y           Z
 ---------------------------------------------------------------------
      1          6           0       -3.933595    0.805082    0.299219
      2          6           0       -2.535519    1.039806    0.432141
      3          6           0       -1.743508    0.035616   -0.136168
      4          6           0       -4.203786   -0.393730   -0.354011
      5          1           0       -4.713012    1.476297    0.670279
      6         16           0       -2.754373   -1.212878   -0.817605
      7          1           0       -5.176649   -0.822995   -0.594008
      8          6           0       -0.289934   -0.061602   -0.111836
      9         16           0        0.496748   -1.390687    0.745519
     10          6           0        2.072983   -0.741177    0.392449
     11          6           0        1.964293    0.472205   -0.333682
     12          6           0        0.626801    0.857673   -0.622448
     13          1           0        0.312658    1.748518   -1.169487
     14         16           0        3.541773    1.121242   -0.687195
     15          6           0        4.316625   -0.219418    0.126501
     16          6           0        3.417536   -1.138769    0.652639
     17          1           0        5.406042   -0.252605    0.175000
     18          1           0        3.725338   -2.035571    1.193171
     19          8           0       -1.950251    2.126160    1.044663
     20          1           0       -2.650112    2.660127    1.447419
 ---------------------------------------------------------------------

 The electronic state is 1-A.
 Alpha  occ. eigenvalues --  -91.99613 -91.99074 -91.98931 -20.61356 -11.32473
 Alpha  occ. eigenvalues --  -11.29255 -11.28868 -11.28102 -11.27614 -11.27607
 Alpha  occ. eigenvalues --  -11.27484 -11.26369 -11.26160 -11.25959  -8.99742
 Alpha  occ. eigenvalues --   -8.99188  -8.99025  -6.67905  -6.67813  -6.67629
 Alpha  occ. eigenvalues --   -6.67353  -6.67273  -6.67187  -6.67103  -6.67077
 Alpha  occ. eigenvalues --   -6.66904  -1.41410  -1.20136  -1.17567  -1.11562
 Alpha  occ. eigenvalues --   -1.02328  -1.01812  -0.98768  -0.94459  -0.93788
 Alpha  occ. eigenvalues --   -0.82402  -0.80294  -0.76362  -0.73699  -0.71986
 Alpha  occ. eigenvalues --   -0.69314  -0.66268  -0.65822  -0.61041  -0.60263
 Alpha  occ. eigenvalues --   -0.58114  -0.56458  -0.55559  -0.53976  -0.52832
 Alpha  occ. eigenvalues --   -0.52749  -0.50495  -0.49428  -0.48617  -0.45879
 Alpha  occ. eigenvalues --   -0.45607  -0.38563  -0.34970  -0.32870  -0.31653
 Alpha  occ. eigenvalues --   -0.27752
 Alpha virt. eigenvalues --    0.02776   0.03735   0.03924   0.04985   0.05079
 Alpha virt. eigenvalues --    0.06229   0.07113   0.08076   0.08428   0.09035
 Alpha virt. eigenvalues --    0.09645   0.10114   0.10461   0.10919   0.11238

 Mulliken charges:
               1
     1  C    0.571045
     2  C    0.405294
     3  C    0.592354
     4  C   -0.348734
     5  H   -0.408107
     6  S    0.415838
     7  H   -0.313930
     8  C    0.313242
     9  S    0.420150
    10  C   -0.763020
    11  C   -0.080635
    12  C   -0.016717
    13  H   -0.392670
    14  S    0.631892
    15  C   -0.131006
    16  C    0.519870
    17  H   -0.349664
    18  H   -0.291575
    19  O   -0.964445
    20  H    0.190820
 Sum of Mulliken charges =   0.00000

 Dipole moment (field-independent basis, Debye):
    X=             -2.1688    Y=              1.0042    Z=              0.7388  Tot=              2.5016
 Quadrupole moment (field-independent basis, Debye-Ang):
   XX=            -78.1779   YY=            -98.7893   ZZ=           -106.6048
   XY=             -9.0980   XZ=             -0.8971   YZ=              0.2253

 Normal termination of Gaussian 16 at Wed Oct 27 08:03:03 2021.
