 Gaussian 16, Revision C.01,
 Gaussian 16:  ES64L-G16RevC.01  3-Jul-2019

 ----------------------------------
 # opt=modredundant mp2/aug-cc-pvdz
 ----------------------------------

 -------------
 pBTTT_-25.pdb
 -------------
 Symbolic Z-matrix:
 Charge =  0 Multiplicity = 1

 SCF Done:  E(RHF) =  -1649.64246110     A.U. after   17 cycles
 E2 =    -0.1969805728D+01 EUMP2 =    -0.16516122668273D+04
 SCF Done:  E(RHF) =  -1649.63312871     A.U. after   15 cycles
 E2 =    -0.1989390450D+01 EUMP2 =    -0.16516225191620D+04
 SCF Done:  E(RHF) =  -1649.63079879     A.U. after   14 cycles
 E2 =    -0.1992314471D+01 EUMP2 =    -0.16516231132624D+04
 SCF Done:  E(RHF) =  -1649.63031090     A.U. after   13 cycles
 E2 =    -0.1992853481D+01 EUMP2 =    -0.16516231643763D+04
 SCF Done:  E(RHF) =  -1649.63042173     A.U. after   12 cycles
 E2 =    -0.1992746433D+01 EUMP2 =    -0.16516231681620D+04
 SCF Done:  E(RHF) =  -1649.63049793     A.U. after   12 cycles
 E2 =    -0.1992672287D+01 EUMP2 =    -0.16516231702183D+04
 SCF Done:  E(RHF) =  -1649.63051689     A.U. after   10 cycles
 E2 =    -0.1992653760D+01 EUMP2 =    -0.16516231706477D+04
 SCF Done:  E(RHF) =  -1649.63052135     A.U. after    9 cycles
 E2 =    -0.1992649532D+01 EUMP2 =    -0.16516231708792D+04
 SCF Done:  E(RHF) =  -1649.63049796     A.U. after    9 cycles
 E2 =    -0.1992673129D+01 EUMP2 =    -0.16516231710893D+04
 SCF Done:  E(RHF) =  -1649.63047985     A.U. after    9 cycles
 E2 =    -0.1992691455D+01 EUMP2 =    -0.16516231713009D+04
 SCF Done:  E(RHF) =  -1649.63048474     A.U. after    8 cycles
 E2 =    -0.1992686653D+01 EUMP2 =    -0.16516231713959D+04
 SCF Done:  E(RHF) =  -1649.63049730     A.U. after    9 cycles
 E2 =    -0.1992674151D+01 EUMP2 =    -0.16516231714483D+04
 Optimization completed.
    -- Stationary point found.

                         Standard orientation:
 ---------------------------------------------------------------------
 Center     Atomic      Atomic             Coordinates (Angstroms)
 Number     Number       Type             X           Y           Z
 ---------------------------------------------------------------------
      1          6           0       -4.040075    0.373484    0.152583
      2          6           0       -2.703436    0.858763    0.203528
      3          6           0       -1.733153   -0.131183   -0.002999
      4          6           0       -4.092484   -0.993947   -0.092519
      5          1           0       -4.928894    0.994935    0.291449
      6         16           0       -2.510433   -1.672203   -0.276096
      7          1           0       -4.972878   -1.629826   -0.184464
      8          6           0       -0.287788   -0.022228    0.029496
      9         16           0        0.510363    1.524231   -0.287956
     10          6           0        2.080537    0.780996   -0.169394
     11          6           0        1.968665   -0.605052    0.103103
     12          6           0        0.630407   -1.062695    0.219733
     13          1           0        0.323137   -2.087060    0.443379
     14         16           0        3.544243   -1.333965    0.254295
     15          6           0        4.323656    0.204403   -0.043790
     16          6           0        3.426155    1.245569   -0.247949
     17          1           0        5.413512    0.253026   -0.057763
     18          1           0        3.736965    2.272713   -0.447507
     19          8           0       -2.324036    2.165306    0.428742
     20          1           0       -3.121241    2.696107    0.570334
 ---------------------------------------------------------------------

 The electronic state is 1-A.
 Alpha  occ. eigenvalues --  -91.99773 -91.98914 -91.98754 -20.61739 -11.32638
 Alpha  occ. eigenvalues --  -11.29417 -11.29406 -11.28159 -11.27858 -11.27447
 Alpha  occ. eigenvalues --  -11.27173 -11.26647 -11.25995 -11.25785  -8.99923
 Alpha  occ. eigenvalues --   -8.99027  -8.98833  -6.68091  -6.67999  -6.67810
 Alpha  occ. eigenvalues --   -6.67193  -6.67113  -6.66990  -6.66916  -6.66904
 Alpha  occ. eigenvalues --   -6.66703  -1.41816  -1.20095  -1.17749  -1.11532
 Alpha  occ. eigenvalues --   -1.02432  -1.01911  -0.98987  -0.94374  -0.93772
 Alpha  occ. eigenvalues --   -0.82634  -0.80805  -0.76350  -0.74142  -0.71094
 Alpha  occ. eigenvalues --   -0.69722  -0.66708  -0.65686  -0.61007  -0.60672
 Alpha  occ. eigenvalues --   -0.58671  -0.56542  -0.55460  -0.54249  -0.52707
 Alpha  occ. eigenvalues --   -0.52209  -0.51160  -0.49698  -0.48009  -0.46139
 Alpha  occ. eigenvalues --   -0.45456  -0.38928  -0.35514  -0.34057  -0.31612
 Alpha  occ. eigenvalues --   -0.26031
 Alpha virt. eigenvalues --    0.02733   0.03709   0.03917   0.04971   0.05121
 Alpha virt. eigenvalues --    0.05656   0.06249   0.08499   0.09027   0.09493
 Alpha virt. eigenvalues --    0.10339   0.10589   0.10653   0.10915   0.11265

 Mulliken charges:
               1
     1  C    0.555440
     2  C    0.263105
     3  C    0.891389
     4  C   -0.334143
     5  H   -0.420390
     6  S    0.469427
     7  H   -0.341638
     8  C    0.150281
     9  S    0.494844
    10  C   -0.527141
    11  C   -0.125791
    12  C    0.163597
    13  H   -0.468747
    14  S    0.543396
    15  C   -0.194056
    16  C    0.289850
    17  H   -0.354806
    18  H   -0.296435
    19  O   -0.967296
    20  H    0.209114
 Sum of Mulliken charges =  -0.00000

 Dipole moment (field-independent basis, Debye):
    X=             -2.6889    Y=              0.9854    Z=              0.2700  Tot=              2.8765
 Quadrupole moment (field-independent basis, Debye-Ang):
   XX=            -76.4283   YY=            -95.9228   ZZ=           -110.8542
   XY=             -0.8591   XZ=             -2.3935   YZ=              0.0105

 Normal termination of Gaussian 16 at Wed Oct 27 06:19:30 2021.
