 Gaussian 16, Revision C.01,
 Gaussian 16:  ES64L-G16RevC.01  3-Jul-2019

 ----------------------------------
 # opt=modredundant mp2/aug-cc-pvdz
 ----------------------------------

 --------------
 pBTTT_-140.pdb
 --------------
 Symbolic Z-matrix:
 Charge =  0 Multiplicity = 1

 SCF Done:  E(RHF) =  -1649.64256300     A.U. after   17 cycles
 E2 =    -0.1969401860D+01 EUMP2 =    -0.16516119648590D+04
 SCF Done:  E(RHF) =  -1649.63332263     A.U. after   15 cycles
 E2 =    -0.1988842448D+01 EUMP2 =    -0.16516221650830D+04
 SCF Done:  E(RHF) =  -1649.63101154     A.U. after   14 cycles
 E2 =    -0.1991773838D+01 EUMP2 =    -0.16516227853828D+04
 SCF Done:  E(RHF) =  -1649.63044056     A.U. after   13 cycles
 E2 =    -0.1992400360D+01 EUMP2 =    -0.16516228409195D+04
 SCF Done:  E(RHF) =  -1649.63051069     A.U. after   11 cycles
 E2 =    -0.1992336511D+01 EUMP2 =    -0.16516228471981D+04
 SCF Done:  E(RHF) =  -1649.63065705     A.U. after   12 cycles
 E2 =    -0.1992195910D+01 EUMP2 =    -0.16516228529613D+04
 SCF Done:  E(RHF) =  -1649.63072174     A.U. after   11 cycles
 E2 =    -0.1992132947D+01 EUMP2 =    -0.16516228546846D+04
 SCF Done:  E(RHF) =  -1649.63073009     A.U. after   11 cycles
 E2 =    -0.1992125632D+01 EUMP2 =    -0.16516228557259D+04
 SCF Done:  E(RHF) =  -1649.63067700     A.U. after   11 cycles
 E2 =    -0.1992179795D+01 EUMP2 =    -0.16516228567900D+04
 SCF Done:  E(RHF) =  -1649.63066551     A.U. after   10 cycles
 E2 =    -0.1992191589D+01 EUMP2 =    -0.16516228571031D+04
 Optimization completed.
    -- Stationary point found.

                         Standard orientation:
 ---------------------------------------------------------------------
 Center     Atomic      Atomic             Coordinates (Angstroms)
 Number     Number       Type             X           Y           Z
 ---------------------------------------------------------------------
      1          6           0        3.934063    0.866036    0.199299
      2          6           0        2.537651    1.131235    0.265315
      3          6           0        1.740608    0.036851   -0.096194
      4          6           0        4.202391   -0.439224   -0.200993
      5          1           0        4.714128    1.593851    0.438983
      6         16           0        2.749995   -1.323030   -0.519734
      7          1           0        5.173158   -0.915106   -0.339424
      8          6           0        0.291814   -0.048536   -0.077743
      9         16           0       -0.503458   -1.531025    0.466701
     10          6           0       -2.076665   -0.817941    0.239965
     11          6           0       -1.960069    0.523085   -0.204397
     12          6           0       -0.621091    0.962569   -0.387840
     13          1           0       -0.304814    1.948991   -0.730541
     14         16           0       -3.534526    1.237407   -0.419556
     15          6           0       -4.317201   -0.245724    0.078284
     16          6           0       -3.422344   -1.259233    0.400453
     17          1           0       -5.407018   -0.286992    0.108162
     18          1           0       -3.734923   -2.251152    0.731546
     19          8           0        1.957584    2.327224    0.633943
     20          1           0        2.651681    2.904259    0.984259
 ---------------------------------------------------------------------

 The electronic state is 1-A.
 Alpha  occ. eigenvalues --  -91.99730 -91.99030 -91.99001 -20.61621 -11.32490
 Alpha  occ. eigenvalues --  -11.29270 -11.29092 -11.27992 -11.27972 -11.27587
 Alpha  occ. eigenvalues --  -11.27457 -11.26523 -11.26143 -11.25707  -8.99872
 Alpha  occ. eigenvalues --   -8.99143  -8.99109  -6.68036  -6.67945  -6.67758
 Alpha  occ. eigenvalues --   -6.67309  -6.67274  -6.67229  -6.67191  -6.67033
 Alpha  occ. eigenvalues --   -6.66989  -1.41619  -1.20168  -1.17683  -1.11585
 Alpha  occ. eigenvalues --   -1.02377  -1.01949  -0.98910  -0.94438  -0.93781
 Alpha  occ. eigenvalues --   -0.82561  -0.80499  -0.76336  -0.73815  -0.71979
 Alpha  occ. eigenvalues --   -0.69479  -0.66333  -0.65726  -0.61162  -0.60512
 Alpha  occ. eigenvalues --   -0.58264  -0.56372  -0.55537  -0.54232  -0.52934
 Alpha  occ. eigenvalues --   -0.52257  -0.50734  -0.49748  -0.48416  -0.46048
 Alpha  occ. eigenvalues --   -0.45747  -0.38820  -0.35315  -0.33734  -0.31801
 Alpha  occ. eigenvalues --   -0.26533
 Alpha virt. eigenvalues --    0.02729   0.03751   0.03865   0.05087   0.05097
 Alpha virt. eigenvalues --    0.06038   0.06552   0.08166   0.08572   0.09386
 Alpha virt. eigenvalues --    0.10201   0.10399   0.10517   0.10848   0.11328

 Mulliken charges:
               1
     1  C    0.538274
     2  C    0.354305
     3  C    0.696928
     4  C   -0.348941
     5  H   -0.418046
     6  S    0.460997
     7  H   -0.320056
     8  C    0.200120
     9  S    0.469413
    10  C   -0.680043
    11  C    0.026245
    12  C   -0.016619
    13  H   -0.412460
    14  S    0.589376
    15  C   -0.156066
    16  C    0.414682
    17  H   -0.351531
    18  H   -0.290060
    19  O   -0.960711
    20  H    0.204190
 Sum of Mulliken charges =  -0.00000

 Dipole moment (field-independent basis, Debye):
    X=              2.2690    Y=              1.0723    Z=              0.6308  Tot=              2.5877
 Quadrupole moment (field-independent basis, Debye-Ang):
   XX=            -78.2603   YY=            -96.1836   ZZ=           -109.2297
   XY=              9.9609   XZ=              1.1003   YZ=              0.6823

 Normal termination of Gaussian 16 at Wed Oct 27 05:51:54 2021.
