 Gaussian 16, Revision C.01,
 Gaussian 16:  ES64L-G16RevC.01  3-Jul-2019

 ----------------------------------
 # opt=modredundant mp2/aug-cc-pvdz
 ----------------------------------

 -------------
 pBTTT_155.pdb
 -------------
 Symbolic Z-matrix:
 Charge =  0 Multiplicity = 1

 SCF Done:  E(RHF) =  -1649.64260349     A.U. after   17 cycles
 E2 =    -0.1970141407D+01 EUMP2 =    -0.16516127448990D+04
 SCF Done:  E(RHF) =  -1649.63332749     A.U. after   15 cycles
 E2 =    -0.1989502252D+01 EUMP2 =    -0.16516228297455D+04
 SCF Done:  E(RHF) =  -1649.63110697     A.U. after   14 cycles
 E2 =    -0.1992302551D+01 EUMP2 =    -0.16516234095191D+04
 SCF Done:  E(RHF) =  -1649.63060117     A.U. after   14 cycles
 E2 =    -0.1992855535D+01 EUMP2 =    -0.16516234567054D+04
 SCF Done:  E(RHF) =  -1649.63068359     A.U. after   11 cycles
 E2 =    -0.1992778716D+01 EUMP2 =    -0.16516234623094D+04
 SCF Done:  E(RHF) =  -1649.63080381     A.U. after   12 cycles
 E2 =    -0.1992662976D+01 EUMP2 =    -0.16516234667898D+04
 SCF Done:  E(RHF) =  -1649.63086427     A.U. after   11 cycles
 E2 =    -0.1992604239D+01 EUMP2 =    -0.16516234685090D+04
 SCF Done:  E(RHF) =  -1649.63087774     A.U. after   11 cycles
 E2 =    -0.1992591797D+01 EUMP2 =    -0.16516234695398D+04
 SCF Done:  E(RHF) =  -1649.63082020     A.U. after   10 cycles
 E2 =    -0.1992650118D+01 EUMP2 =    -0.16516234703130D+04
 SCF Done:  E(RHF) =  -1649.63081176     A.U. after    9 cycles
 E2 =    -0.1992658657D+01 EUMP2 =    -0.16516234704186D+04
 Optimization completed.
    -- Stationary point found.

                         Standard orientation:
 ---------------------------------------------------------------------
 Center     Atomic      Atomic             Coordinates (Angstroms)
 Number     Number       Type             X           Y           Z
 ---------------------------------------------------------------------
      1          6           0       -3.941898    0.881203    0.117341
      2          6           0       -2.547972    1.158828    0.173250
      3          6           0       -1.739722    0.034864   -0.050619
      4          6           0       -4.200894   -0.459922   -0.145359
      5          1           0       -4.727050    1.627634    0.265713
      6         16           0       -2.740266   -1.365980   -0.344894
      7          1           0       -5.167287   -0.954014   -0.244090
      8          6           0       -0.291784   -0.039247   -0.032341
      9         16           0        0.510985   -1.576463    0.317814
     10          6           0        2.081775   -0.840464    0.154582
     11          6           0        1.959830    0.542097   -0.130555
     12          6           0        0.619603    1.001489   -0.239797
     13          1           0        0.302462    2.020585   -0.463529
     14         16           0        3.532091    1.278432   -0.277931
     15          6           0        4.320104   -0.250981    0.038154
     16          6           0        3.428331   -1.295862    0.251541
     17          1           0        5.410172   -0.294646    0.049600
     18          1           0        3.744216   -2.318930    0.463114
     19          8           0       -1.980478    2.392946    0.416620
     20          1           0       -2.687885    3.007932    0.659217
 ---------------------------------------------------------------------

 The electronic state is 1-A.
 Alpha  occ. eigenvalues --  -91.99767 -91.99013 -91.98998 -20.61820 -11.32527
 Alpha  occ. eigenvalues --  -11.29289 -11.29242 -11.28154 -11.27953 -11.27578
 Alpha  occ. eigenvalues --  -11.27437 -11.26592 -11.26136 -11.25576  -8.99917
 Alpha  occ. eigenvalues --   -8.99125  -8.99120  -6.68083  -6.67992  -6.67803
 Alpha  occ. eigenvalues --   -6.67291  -6.67288  -6.67211  -6.67205  -6.67015
 Alpha  occ. eigenvalues --   -6.67001  -1.41801  -1.20181  -1.17736  -1.11592
 Alpha  occ. eigenvalues --   -1.02401  -1.02008  -0.98973  -0.94426  -0.93792
 Alpha  occ. eigenvalues --   -0.82635  -0.80648  -0.76332  -0.73911  -0.71963
 Alpha  occ. eigenvalues --   -0.69613  -0.66440  -0.65599  -0.61219  -0.60650
 Alpha  occ. eigenvalues --   -0.58366  -0.56330  -0.55580  -0.54330  -0.53020
 Alpha  occ. eigenvalues --   -0.51968  -0.50962  -0.49915  -0.48274  -0.46208
 Alpha  occ. eigenvalues --   -0.45683  -0.38979  -0.35511  -0.33977  -0.31829
 Alpha  occ. eigenvalues --   -0.26089
 Alpha virt. eigenvalues --    0.02688   0.03744   0.03841   0.05088   0.05114
 Alpha virt. eigenvalues --    0.05695   0.06680   0.08210   0.08695   0.09503
 Alpha virt. eigenvalues --    0.10386   0.10466   0.10748   0.10869   0.11411

 Mulliken charges:
               1
     1  C    0.557582
     2  C    0.315830
     3  C    0.699464
     4  C   -0.361626
     5  H   -0.429959
     6  S    0.488463
     7  H   -0.331681
     8  C    0.164503
     9  S    0.474180
    10  C   -0.626507
    11  C    0.052820
    12  C    0.102738
    13  H   -0.423808
    14  S    0.546274
    15  C   -0.187749
    16  C    0.367179
    17  H   -0.352830
    18  H   -0.291196
    19  O   -0.980279
    20  H    0.216602
 Sum of Mulliken charges =  -0.00000

 Dipole moment (field-independent basis, Debye):
    X=             -2.3389    Y=              1.1341    Z=              0.4018  Tot=              2.6302
 Quadrupole moment (field-independent basis, Debye-Ang):
   XX=            -78.0279   YY=            -94.9487   ZZ=           -110.5323
   XY=            -10.5030   XZ=             -0.7756   YZ=              0.6097

 Normal termination of Gaussian 16 at Wed Oct 27 08:13:16 2021.
