 Gaussian 16, Revision C.01,
 Gaussian 16:  ES64L-G16RevC.01  3-Jul-2019

 ----------------------------------
 # opt=modredundant mp2/aug-cc-pvdz
 ----------------------------------

 ------------
 pBTTT_25.pdb
 ------------
 Symbolic Z-matrix:
 Charge =  0 Multiplicity = 1

 SCF Done:  E(RHF) =  -1649.64245899     A.U. after   17 cycles
 E2 =    -0.1969825939D+01 EUMP2 =    -0.16516122849316D+04
 SCF Done:  E(RHF) =  -1649.63312704     A.U. after   15 cycles
 E2 =    -0.1989388850D+01 EUMP2 =    -0.16516225158943D+04
 SCF Done:  E(RHF) =  -1649.63079308     A.U. after   14 cycles
 E2 =    -0.1992314490D+01 EUMP2 =    -0.16516231075658D+04
 SCF Done:  E(RHF) =  -1649.63031003     A.U. after   13 cycles
 E2 =    -0.1992847807D+01 EUMP2 =    -0.16516231578357D+04
 SCF Done:  E(RHF) =  -1649.63041774     A.U. after   12 cycles
 E2 =    -0.1992743834D+01 EUMP2 =    -0.16516231615759D+04
 SCF Done:  E(RHF) =  -1649.63049407     A.U. after   12 cycles
 E2 =    -0.1992669641D+01 EUMP2 =    -0.16516231637146D+04
 SCF Done:  E(RHF) =  -1649.63051342     A.U. after   10 cycles
 E2 =    -0.1992650714D+01 EUMP2 =    -0.16516231641368D+04
 SCF Done:  E(RHF) =  -1649.63051780     A.U. after    9 cycles
 E2 =    -0.1992646555D+01 EUMP2 =    -0.16516231643516D+04
 SCF Done:  E(RHF) =  -1649.63049496     A.U. after    9 cycles
 E2 =    -0.1992669597D+01 EUMP2 =    -0.16516231645529D+04
 SCF Done:  E(RHF) =  -1649.63047811     A.U. after    9 cycles
 E2 =    -0.1992686643D+01 EUMP2 =    -0.16516231647558D+04
 SCF Done:  E(RHF) =  -1649.63048165     A.U. after    8 cycles
 E2 =    -0.1992683197D+01 EUMP2 =    -0.16516231648487D+04
 SCF Done:  E(RHF) =  -1649.63049550     A.U. after    9 cycles
 E2 =    -0.1992669401D+01 EUMP2 =    -0.16516231649032D+04
 Optimization completed.
    -- Stationary point found.

                         Standard orientation:
 ---------------------------------------------------------------------
 Center     Atomic      Atomic             Coordinates (Angstroms)
 Number     Number       Type             X           Y           Z
 ---------------------------------------------------------------------
      1          6           0        4.040026    0.373274    0.153856
      2          6           0        2.703407    0.858572    0.205124
      3          6           0        1.733156   -0.131035   -0.003103
      4          6           0        4.092418   -0.993830   -0.093150
      5          1           0        4.928855    0.994457    0.293858
      6         16           0        2.510389   -1.671702   -0.278200
      7          1           0        4.972815   -1.629613   -0.185755
      8          6           0        0.287789   -0.022074    0.029525
      9         16           0       -0.510391    1.523830   -0.290348
     10          6           0       -2.080542    0.780731   -0.170665
     11          6           0       -1.968605   -0.604907    0.103894
     12          6           0       -0.630326   -1.062309    0.221270
     13          1           0       -0.322943   -2.086281    0.446554
     14         16           0       -3.544149   -1.333639    0.256281
     15          6           0       -4.323631    0.204270   -0.043949
     16          6           0       -3.426181    1.245157   -0.249747
     17          1           0       -5.413489    0.252842   -0.057909
     18          1           0       -3.737040    2.271997   -0.450785
     19          8           0        2.323997    2.164798    0.432136
     20          1           0        3.121180    2.695315    0.574897
 ---------------------------------------------------------------------

 The electronic state is 1-A.
 Alpha  occ. eigenvalues --  -91.99773 -91.98915 -91.98754 -20.61737 -11.32637
 Alpha  occ. eigenvalues --  -11.29416 -11.29404 -11.28157 -11.27859 -11.27447
 Alpha  occ. eigenvalues --  -11.27175 -11.26646 -11.25996 -11.25786  -8.99923
 Alpha  occ. eigenvalues --   -8.99027  -8.98833  -6.68090  -6.67999  -6.67809
 Alpha  occ. eigenvalues --   -6.67194  -6.67114  -6.66990  -6.66917  -6.66904
 Alpha  occ. eigenvalues --   -6.66703  -1.41814  -1.20095  -1.17748  -1.11532
 Alpha  occ. eigenvalues --   -1.02432  -1.01911  -0.98987  -0.94374  -0.93773
 Alpha  occ. eigenvalues --   -0.82633  -0.80803  -0.76350  -0.74141  -0.71096
 Alpha  occ. eigenvalues --   -0.69721  -0.66706  -0.65687  -0.61006  -0.60670
 Alpha  occ. eigenvalues --   -0.58670  -0.56542  -0.55460  -0.54248  -0.52708
 Alpha  occ. eigenvalues --   -0.52211  -0.51158  -0.49697  -0.48011  -0.46136
 Alpha  occ. eigenvalues --   -0.45458  -0.38927  -0.35512  -0.34054  -0.31612
 Alpha  occ. eigenvalues --   -0.26036
 Alpha virt. eigenvalues --    0.02734   0.03709   0.03917   0.04971   0.05121
 Alpha virt. eigenvalues --    0.05660   0.06249   0.08499   0.09022   0.09492
 Alpha virt. eigenvalues --    0.10338   0.10588   0.10652   0.10913   0.11264

 Mulliken charges:
               1
     1  C    0.554217
     2  C    0.265139
     3  C    0.890170
     4  C   -0.333599
     5  H   -0.420364
     6  S    0.468949
     7  H   -0.341389
     8  C    0.150378
     9  S    0.494851
    10  C   -0.527077
    11  C   -0.126796
    12  C    0.163172
    13  H   -0.468571
    14  S    0.543895
    15  C   -0.193814
    16  C    0.290140
    17  H   -0.354749
    18  H   -0.296347
    19  O   -0.967193
    20  H    0.208988
 Sum of Mulliken charges =  -0.00000

 Dipole moment (field-independent basis, Debye):
    X=              2.6874    Y=              0.9843    Z=              0.2723  Tot=              2.8749
 Quadrupole moment (field-independent basis, Debye-Ang):
   XX=            -76.4292   YY=            -95.9337   ZZ=           -110.8429
   XY=              0.8558   XZ=              2.4121   YZ=              0.0110

 Normal termination of Gaussian 16 at Wed Oct 27 06:50:21 2021.
