 Gaussian 16, Revision C.01,
 Gaussian 16:  ES64L-G16RevC.01  3-Jul-2019

 ----------------------------------
 # opt=modredundant mp2/aug-cc-pvdz
 ----------------------------------

 ------------
 pBTTT_55.pdb
 ------------
 Symbolic Z-matrix:
 Charge =  0 Multiplicity = 1

 SCF Done:  E(RHF) =  -1649.64197418     A.U. after   17 cycles
 E2 =    -0.1968682694D+01 EUMP2 =    -0.16516106568734D+04
 SCF Done:  E(RHF) =  -1649.63274075     A.U. after   15 cycles
 E2 =    -0.1988154320D+01 EUMP2 =    -0.16516208950741D+04
 SCF Done:  E(RHF) =  -1649.63040341     A.U. after   14 cycles
 E2 =    -0.1991114140D+01 EUMP2 =    -0.16516215175540D+04
 SCF Done:  E(RHF) =  -1649.62986490     A.U. after   13 cycles
 E2 =    -0.1991716328D+01 EUMP2 =    -0.16516215812281D+04
 SCF Done:  E(RHF) =  -1649.62997503     A.U. after   12 cycles
 E2 =    -0.1991613376D+01 EUMP2 =    -0.16516215884075D+04
 SCF Done:  E(RHF) =  -1649.63006542     A.U. after   12 cycles
 E2 =    -0.1991525659D+01 EUMP2 =    -0.16516215910748D+04
 SCF Done:  E(RHF) =  -1649.63008997     A.U. after   11 cycles
 E2 =    -0.1991502347D+01 EUMP2 =    -0.16516215923145D+04
 SCF Done:  E(RHF) =  -1649.63008466     A.U. after   11 cycles
 E2 =    -0.1991508264D+01 EUMP2 =    -0.16516215929198D+04
 SCF Done:  E(RHF) =  -1649.63004575     A.U. after    9 cycles
 E2 =    -0.1991547675D+01 EUMP2 =    -0.16516215934261D+04
 SCF Done:  E(RHF) =  -1649.63001748     A.U. after    9 cycles
 E2 =    -0.1991576426D+01 EUMP2 =    -0.16516215939064D+04
 SCF Done:  E(RHF) =  -1649.63002323     A.U. after    9 cycles
 E2 =    -0.1991570911D+01 EUMP2 =    -0.16516215941370D+04
 SCF Done:  E(RHF) =  -1649.63004294     A.U. after    9 cycles
 E2 =    -0.1991551320D+01 EUMP2 =    -0.16516215942583D+04
 Optimization completed.
    -- Stationary point found.

                         Standard orientation:
 ---------------------------------------------------------------------
 Center     Atomic      Atomic             Coordinates (Angstroms)
 Number     Number       Type             X           Y           Z
 ---------------------------------------------------------------------
      1          6           0        4.027474    0.347937    0.359004
      2          6           0        2.685331    0.808740    0.468825
      3          6           0        1.739041   -0.102328   -0.015622
      4          6           0        4.101917   -0.924366   -0.200427
      5          1           0        4.904869    0.914571    0.682814
      6         16           0        2.537065   -1.537152   -0.605669
      7          1           0        4.993130   -1.519213   -0.400836
      8          6           0        0.287393   -0.004316    0.007741
      9         16           0       -0.521656    1.400328   -0.689845
     10          6           0       -2.087438    0.712380   -0.364573
     11          6           0       -1.961639   -0.564042    0.239915
     12          6           0       -0.617406   -0.972827    0.452237
     13          1           0       -0.291439   -1.905454    0.917716
     14         16           0       -3.529782   -1.241387    0.582641
     15          6           0       -4.324085    0.171890   -0.074985
     16          6           0       -3.437869    1.135811   -0.539657
     17          1           0       -5.414369    0.210103   -0.086978
     18          1           0       -3.758881    2.080624   -0.981826
     19          8           0        2.281748    2.015927    0.996607
     20          1           0        3.066363    2.490058    1.307493
 ---------------------------------------------------------------------

 The electronic state is 1-A.
 Alpha  occ. eigenvalues --  -91.99727 -91.99034 -91.98781 -20.61395 -11.32491
 Alpha  occ. eigenvalues --  -11.29265 -11.29128 -11.28042 -11.27760 -11.27531
 Alpha  occ. eigenvalues --  -11.27419 -11.26451 -11.26101 -11.26003  -8.99853
 Alpha  occ. eigenvalues --   -8.99147  -8.98875  -6.68015  -6.67923  -6.67738
 Alpha  occ. eigenvalues --   -6.67313  -6.67233  -6.67036  -6.67036  -6.66951
 Alpha  occ. eigenvalues --   -6.66752  -1.41469  -1.20139  -1.17630  -1.11573
 Alpha  occ. eigenvalues --   -1.02359  -1.01840  -0.98830  -0.94455  -0.93800
 Alpha  occ. eigenvalues --   -0.82466  -0.80471  -0.76370  -0.73929  -0.71457
 Alpha  occ. eigenvalues --   -0.69489  -0.66362  -0.65838  -0.60906  -0.60315
 Alpha  occ. eigenvalues --   -0.58486  -0.56583  -0.55505  -0.54005  -0.52766
 Alpha  occ. eigenvalues --   -0.52604  -0.50766  -0.49496  -0.48430  -0.45781
 Alpha  occ. eigenvalues --   -0.45650  -0.38641  -0.35145  -0.33253  -0.31639
 Alpha  occ. eigenvalues --   -0.27205
 Alpha virt. eigenvalues --    0.02798   0.03736   0.03951   0.04954   0.05107
 Alpha virt. eigenvalues --    0.06234   0.06548   0.08348   0.08545   0.09081
 Alpha virt. eigenvalues --    0.10132   0.10355   0.10442   0.10727   0.11147

 Mulliken charges:
               1
     1  C    0.439272
     2  C    0.588937
     3  C    0.556035
     4  C   -0.248772
     5  H   -0.414486
     6  S    0.409286
     7  H   -0.315322
     8  C    0.215290
     9  S    0.443763
    10  C   -0.591424
    11  C   -0.203741
    12  C    0.112771
    13  H   -0.440183
    14  S    0.608880
    15  C   -0.147818
    16  C    0.403470
    17  H   -0.349630
    18  H   -0.288957
    19  O   -0.971078
    20  H    0.193706
 Sum of Mulliken charges =  -0.00000

 Dipole moment (field-independent basis, Debye):
    X=              2.4101    Y=              0.7555    Z=              0.5804  Tot=              2.5915
 Quadrupole moment (field-independent basis, Debye-Ang):
   XX=            -76.5890   YY=            -98.4747   ZZ=           -108.1388
   XY=              0.3347   XZ=              5.2332   YZ=             -0.0404

 Normal termination of Gaussian 16 at Wed Oct 27 08:05:05 2021.
