 Gaussian 16, Revision C.01,
 Gaussian 16:  ES64L-G16RevC.01  3-Jul-2019

 ----------------------------------
 # opt=modredundant mp2/aug-cc-pvdz
 ----------------------------------

 -------------
 pBTTT_-80.pdb
 -------------
 Symbolic Z-matrix:
 Charge =  0 Multiplicity = 1

 SCF Done:  E(RHF) =  -1649.64151043     A.U. after   17 cycles
 E2 =    -0.1967934035D+01 EUMP2 =    -0.16516094444692D+04
 SCF Done:  E(RHF) =  -1649.63222950     A.U. after   14 cycles
 E2 =    -0.1987335685D+01 EUMP2 =    -0.16516195651846D+04
 SCF Done:  E(RHF) =  -1649.62995596     A.U. after   13 cycles
 E2 =    -0.1990195117D+01 EUMP2 =    -0.16516201510732D+04
 SCF Done:  E(RHF) =  -1649.62946398     A.U. after   13 cycles
 E2 =    -0.1990740121D+01 EUMP2 =    -0.16516202041018D+04
 SCF Done:  E(RHF) =  -1649.62959365     A.U. after   11 cycles
 E2 =    -0.1990614358D+01 EUMP2 =    -0.16516202080052D+04
 SCF Done:  E(RHF) =  -1649.62966741     A.U. after   10 cycles
 E2 =    -0.1990541490D+01 EUMP2 =    -0.16516202089000D+04
 Optimization completed.
    -- Stationary point found.

                         Standard orientation:
 ---------------------------------------------------------------------
 Center     Atomic      Atomic             Coordinates (Angstroms)
 Number     Number       Type             X           Y           Z
 ---------------------------------------------------------------------
      1          6           0       -3.990940    0.376615    0.551831
      2          6           0       -2.619472    0.726407    0.710505
      3          6           0       -1.744977   -0.108149    0.007260
      4          6           0       -4.155956   -0.731214   -0.274497
      5          1           0       -4.824639    0.903411    1.024012
      6         16           0       -2.642744   -1.329899   -0.854191
      7          1           0       -5.087116   -1.217944   -0.565153
      8          6           0       -0.285981   -0.041203   -0.026786
      9         16           0        0.516939    1.133430   -1.068839
     10          6           0        2.085847    0.580169   -0.558830
     11          6           0        1.964270   -0.482491    0.373001
     12          6           0        0.620733   -0.836718    0.674485
     13          1           0        0.294829   -1.616301    1.365951
     14         16           0        3.534620   -1.035581    0.885605
     15          6           0        4.324300    0.143695   -0.136707
     16          6           0        3.435713    0.938981   -0.848918
     17          1           0        5.414340    0.184120   -0.155404
     18          1           0        3.754352    1.726466   -1.534009
     19          8           0       -2.127265    1.762696    1.471558
     20          1           0       -2.875900    2.234921    1.862872
 ---------------------------------------------------------------------

 The electronic state is 1-A.
 Alpha  occ. eigenvalues --  -91.99596 -91.99095 -91.98816 -20.61254 -11.32426
 Alpha  occ. eigenvalues --  -11.29214 -11.28866 -11.28160 -11.27625 -11.27467
 Alpha  occ. eigenvalues --  -11.27449 -11.26293 -11.26156 -11.26148  -8.99713
 Alpha  occ. eigenvalues --   -8.99210  -8.98909  -6.67874  -6.67782  -6.67599
 Alpha  occ. eigenvalues --   -6.67376  -6.67296  -6.67099  -6.67070  -6.66984
 Alpha  occ. eigenvalues --   -6.66788  -1.41343  -1.20131  -1.17513  -1.11567
 Alpha  occ. eigenvalues --   -1.02310  -1.01740  -0.98691  -0.94495  -0.93812
 Alpha  occ. eigenvalues --   -0.82326  -0.80243  -0.76380  -0.73765  -0.71777
 Alpha  occ. eigenvalues --   -0.69344  -0.66290  -0.65820  -0.60891  -0.60156
 Alpha  occ. eigenvalues --   -0.58209  -0.56610  -0.55573  -0.53818  -0.52965
 Alpha  occ. eigenvalues --   -0.52724  -0.50534  -0.49268  -0.48680  -0.45832
 Alpha  occ. eigenvalues --   -0.45405  -0.38488  -0.34846  -0.31847  -0.31716
 Alpha  occ. eigenvalues --   -0.28722
 Alpha virt. eigenvalues --    0.02808   0.03715   0.03972   0.04891   0.05087
 Alpha virt. eigenvalues --    0.06218   0.07654   0.08053   0.08444   0.08866
 Alpha virt. eigenvalues --    0.09111   0.10218   0.10382   0.10760   0.11358

 Mulliken charges:
               1
     1  C    0.575108
     2  C    0.527510
     3  C    0.320479
     4  C   -0.307317
     5  H   -0.407735
     6  S    0.370418
     7  H   -0.304871
     8  C    0.564121
     9  S    0.415844
    10  C   -0.749397
    11  C   -0.217391
    12  C   -0.046862
    13  H   -0.402178
    14  S    0.653876
    15  C   -0.133989
    16  C    0.581148
    17  H   -0.350397
    18  H   -0.293991
    19  O   -0.983299
    20  H    0.188926
 Sum of Mulliken charges =  -0.00000

 Dipole moment (field-independent basis, Debye):
    X=             -2.2028    Y=              0.7347    Z=              0.7365  Tot=              2.4361
 Quadrupole moment (field-independent basis, Debye-Ang):
   XX=            -77.1851   YY=           -101.5535   ZZ=           -104.4991
   XY=             -0.7105   XZ=             -7.1589   YZ=             -0.1540

 Normal termination of Gaussian 16 at Wed Oct 27 05:12:15 2021.
