 Gaussian 16, Revision C.01,
 Gaussian 16:  ES64L-G16RevC.01  3-Jul-2019

 ----------------------------------
 # opt=modredundant mp2/aug-cc-pvdz
 ----------------------------------

 -------------
 pBTTT_-35.pdb
 -------------
 Symbolic Z-matrix:
 Charge =  0 Multiplicity = 1

 SCF Done:  E(RHF) =  -1649.64231565     A.U. after   17 cycles
 E2 =    -0.1969491343D+01 EUMP2 =    -0.16516118069897D+04
 SCF Done:  E(RHF) =  -1649.63302485     A.U. after   15 cycles
 E2 =    -0.1989060582D+01 EUMP2 =    -0.16516220854357D+04
 SCF Done:  E(RHF) =  -1649.63068437     A.U. after   14 cycles
 E2 =    -0.1992008046D+01 EUMP2 =    -0.16516226924117D+04
 SCF Done:  E(RHF) =  -1649.63015963     A.U. after   13 cycles
 E2 =    -0.1992590646D+01 EUMP2 =    -0.16516227502781D+04
 SCF Done:  E(RHF) =  -1649.63026572     A.U. after   13 cycles
 E2 =    -0.1992489437D+01 EUMP2 =    -0.16516227551524D+04
 SCF Done:  E(RHF) =  -1649.63034929     A.U. after   12 cycles
 E2 =    -0.1992408428D+01 EUMP2 =    -0.16516227577136D+04
 SCF Done:  E(RHF) =  -1649.63037609     A.U. after   10 cycles
 E2 =    -0.1992382438D+01 EUMP2 =    -0.16516227585303D+04
 SCF Done:  E(RHF) =  -1649.63037796     A.U. after   10 cycles
 E2 =    -0.1992380985D+01 EUMP2 =    -0.16516227589412D+04
 SCF Done:  E(RHF) =  -1649.63034934     A.U. after    9 cycles
 E2 =    -0.1992409929D+01 EUMP2 =    -0.16516227592725D+04
 SCF Done:  E(RHF) =  -1649.63032960     A.U. after    9 cycles
 E2 =    -0.1992430075D+01 EUMP2 =    -0.16516227596714D+04
 SCF Done:  E(RHF) =  -1649.63033455     A.U. after    9 cycles
 E2 =    -0.1992425255D+01 EUMP2 =    -0.16516227598090D+04
 SCF Done:  E(RHF) =  -1649.63034965     A.U. after    9 cycles
 E2 =    -0.1992410219D+01 EUMP2 =    -0.16516227598657D+04
 Optimization completed.
    -- Stationary point found.

                         Standard orientation:
 ---------------------------------------------------------------------
 Center     Atomic      Atomic             Coordinates (Angstroms)
 Number     Number       Type             X           Y           Z
 ---------------------------------------------------------------------
      1          6           0       -4.038372    0.360851    0.218828
      2          6           0       -2.702808    0.846683    0.287625
      3          6           0       -1.734399   -0.121498   -0.008915
      4          6           0       -4.090106   -0.985404   -0.127031
      5          1           0       -4.927353    0.965614    0.417763
      6         16           0       -2.509612   -1.640321   -0.385850
      7          1           0       -4.970608   -1.615186   -0.253925
      8          6           0       -0.287869   -0.013399    0.027872
      9         16           0        0.513414    1.498307   -0.414966
     10          6           0        2.082369    0.765060   -0.233866
     11          6           0        1.966050   -0.595245    0.146613
     12          6           0        0.625962   -1.038875    0.298468
     13          1           0        0.312251   -2.039549    0.604587
     14         16           0        3.539314   -1.313037    0.360475
     15          6           0        4.323428    0.195373   -0.054181
     16          6           0        3.429446    1.219433   -0.342517
     17          1           0        5.413442    0.240158   -0.068780
     18          1           0        3.743480    2.227100   -0.620695
     19          8           0       -2.323052    2.132610    0.609214
     20          1           0       -3.118835    2.643925    0.815421
 ---------------------------------------------------------------------

 The electronic state is 1-A.
 Alpha  occ. eigenvalues --  -91.99771 -91.98954 -91.98759 -20.61620 -11.32581
 Alpha  occ. eigenvalues --  -11.29359 -11.29327 -11.28040 -11.27917 -11.27470
 Alpha  occ. eigenvalues --  -11.27271 -11.26589 -11.26031 -11.25850  -8.99912
 Alpha  occ. eigenvalues --   -8.99067  -8.98845  -6.68078  -6.67986  -6.67798
 Alpha  occ. eigenvalues --   -6.67233  -6.67153  -6.67004  -6.66956  -6.66919
 Alpha  occ. eigenvalues --   -6.66718  -1.41691  -1.20115  -1.17717  -1.11551
 Alpha  occ. eigenvalues --   -1.02410  -1.01897  -0.98944  -0.94400  -0.93781
 Alpha  occ. eigenvalues --   -0.82587  -0.80700  -0.76356  -0.74072  -0.71199
 Alpha  occ. eigenvalues --   -0.69645  -0.66581  -0.65746  -0.60971  -0.60548
 Alpha  occ. eigenvalues --   -0.58632  -0.56550  -0.55471  -0.54174  -0.52732
 Alpha  occ. eigenvalues --   -0.52335  -0.51022  -0.49656  -0.48142  -0.46013
 Alpha  occ. eigenvalues --   -0.45557  -0.38834  -0.35416  -0.33881  -0.31616
 Alpha  occ. eigenvalues --   -0.26321
 Alpha virt. eigenvalues --    0.02758   0.03723   0.03928   0.04972   0.05120
 Alpha virt. eigenvalues --    0.05875   0.06248   0.08491   0.08789   0.09390
 Alpha virt. eigenvalues --    0.10318   0.10519   0.10596   0.10808   0.11220

 Mulliken charges:
               1
     1  C    0.497329
     2  C    0.374015
     3  C    0.811157
     4  C   -0.302244
     5  H   -0.418880
     6  S    0.450809
     7  H   -0.329529
     8  C    0.150595
     9  S    0.487074
    10  C   -0.525610
    11  C   -0.174241
    12  C    0.143602
    13  H   -0.459326
    14  S    0.567845
    15  C   -0.180427
    16  C    0.313285
    17  H   -0.352139
    18  H   -0.292266
    19  O   -0.963801
    20  H    0.202752
 Sum of Mulliken charges =  -0.00000

 Dipole moment (field-independent basis, Debye):
    X=             -2.5994    Y=              0.9075    Z=              0.3901  Tot=              2.7808
 Quadrupole moment (field-independent basis, Debye-Ang):
   XX=            -76.4474   YY=            -96.6167   ZZ=           -110.1482
   XY=             -0.6576   XZ=             -3.3953   YZ=              0.0415

 Normal termination of Gaussian 16 at Wed Oct 27 06:19:45 2021.
