 Gaussian 16, Revision C.01,
 Gaussian 16:  ES64L-G16RevC.01  3-Jul-2019

 ----------------------------------
 # opt=modredundant mp2/aug-cc-pvdz
 ----------------------------------

 ------------
 pBTTT_35.pdb
 ------------
 Symbolic Z-matrix:
 Charge =  0 Multiplicity = 1

 SCF Done:  E(RHF) =  -1649.64231387     A.U. after   17 cycles
 E2 =    -0.1969543433D+01 EUMP2 =    -0.16516118572998D+04
 SCF Done:  E(RHF) =  -1649.63300481     A.U. after   15 cycles
 E2 =    -0.1989086462D+01 EUMP2 =    -0.16516220912717D+04
 SCF Done:  E(RHF) =  -1649.63068633     A.U. after   14 cycles
 E2 =    -0.1992005375D+01 EUMP2 =    -0.16516226917033D+04
 SCF Done:  E(RHF) =  -1649.63016241     A.U. after   13 cycles
 E2 =    -0.1992586888D+01 EUMP2 =    -0.16516227492944D+04
 SCF Done:  E(RHF) =  -1649.63027099     A.U. after   12 cycles
 E2 =    -0.1992483119D+01 EUMP2 =    -0.16516227541113D+04
 SCF Done:  E(RHF) =  -1649.63035187     A.U. after   12 cycles
 E2 =    -0.1992404578D+01 EUMP2 =    -0.16516227564519D+04
 SCF Done:  E(RHF) =  -1649.63037516     A.U. after   10 cycles
 E2 =    -0.1992382057D+01 EUMP2 =    -0.16516227572161D+04
 SCF Done:  E(RHF) =  -1649.63037398     A.U. after   10 cycles
 E2 =    -0.1992383670D+01 EUMP2 =    -0.16516227576499D+04
 SCF Done:  E(RHF) =  -1649.63034777     A.U. after    9 cycles
 E2 =    -0.1992410161D+01 EUMP2 =    -0.16516227579356D+04
 SCF Done:  E(RHF) =  -1649.63032662     A.U. after    9 cycles
 E2 =    -0.1992431623D+01 EUMP2 =    -0.16516227582412D+04
 SCF Done:  E(RHF) =  -1649.63033014     A.U. after    9 cycles
 E2 =    -0.1992428264D+01 EUMP2 =    -0.16516227584017D+04
 SCF Done:  E(RHF) =  -1649.63034722     A.U. after    9 cycles
 E2 =    -0.1992411260D+01 EUMP2 =    -0.16516227584777D+04
 Optimization completed.
    -- Stationary point found.

                         Standard orientation:
 ---------------------------------------------------------------------
 Center     Atomic      Atomic             Coordinates (Angstroms)
 Number     Number       Type             X           Y           Z
 ---------------------------------------------------------------------
      1          6           0        4.038353    0.360839    0.219072
      2          6           0        2.702788    0.846675    0.287842
      3          6           0        1.734402   -0.121462   -0.008950
      4          6           0        4.090121   -0.985361   -0.126996
      5          1           0        4.927307    0.965576    0.418217
      6         16           0        2.509638   -1.640217   -0.386076
      7          1           0        4.970627   -1.615124   -0.253959
      8          6           0        0.287873   -0.013397    0.027824
      9         16           0       -0.513420    1.498187   -0.415422
     10          6           0       -2.082380    0.764994   -0.234084
     11          6           0       -1.966042   -0.595260    0.146571
     12          6           0       -0.625952   -1.038850    0.298546
     13          1           0       -0.312251   -2.039482    0.604814
     14         16           0       -3.539302   -1.313000    0.360671
     15          6           0       -4.323428    0.195421   -0.053934
     16          6           0       -3.429451    1.219416   -0.342534
     17          1           0       -5.413445    0.240216   -0.068406
     18          1           0       -3.743468    2.227067   -0.620790
     19          8           0        2.323008    2.132532    0.609672
     20          1           0        3.118792    2.643881    0.815823
 ---------------------------------------------------------------------

 The electronic state is 1-A.
 Alpha  occ. eigenvalues --  -91.99771 -91.98954 -91.98759 -20.61620 -11.32581
 Alpha  occ. eigenvalues --  -11.29359 -11.29327 -11.28039 -11.27918 -11.27471
 Alpha  occ. eigenvalues --  -11.27271 -11.26589 -11.26031 -11.25850  -8.99912
 Alpha  occ. eigenvalues --   -8.99067  -8.98845  -6.68078  -6.67986  -6.67798
 Alpha  occ. eigenvalues --   -6.67233  -6.67153  -6.67004  -6.66956  -6.66918
 Alpha  occ. eigenvalues --   -6.66718  -1.41691  -1.20115  -1.17717  -1.11551
 Alpha  occ. eigenvalues --   -1.02410  -1.01897  -0.98944  -0.94400  -0.93781
 Alpha  occ. eigenvalues --   -0.82587  -0.80700  -0.76356  -0.74072  -0.71199
 Alpha  occ. eigenvalues --   -0.69645  -0.66581  -0.65747  -0.60970  -0.60547
 Alpha  occ. eigenvalues --   -0.58632  -0.56549  -0.55471  -0.54174  -0.52732
 Alpha  occ. eigenvalues --   -0.52336  -0.51022  -0.49656  -0.48142  -0.46013
 Alpha  occ. eigenvalues --   -0.45557  -0.38834  -0.35416  -0.33881  -0.31616
 Alpha  occ. eigenvalues --   -0.26322
 Alpha virt. eigenvalues --    0.02758   0.03723   0.03928   0.04972   0.05120
 Alpha virt. eigenvalues --    0.05875   0.06248   0.08491   0.08789   0.09389
 Alpha virt. eigenvalues --    0.10318   0.10519   0.10596   0.10807   0.11220

 Mulliken charges:
               1
     1  C    0.497228
     2  C    0.374256
     3  C    0.810942
     4  C   -0.302139
     5  H   -0.418879
     6  S    0.450771
     7  H   -0.329492
     8  C    0.150539
     9  S    0.487101
    10  C   -0.525622
    11  C   -0.174409
    12  C    0.143550
    13  H   -0.459307
    14  S    0.567898
    15  C   -0.180441
    16  C    0.313430
    17  H   -0.352119
    18  H   -0.292252
    19  O   -0.963791
    20  H    0.202737
 Sum of Mulliken charges =  -0.00000

 Dipole moment (field-independent basis, Debye):
    X=              2.5993    Y=              0.9075    Z=              0.3903  Tot=              2.7807
 Quadrupole moment (field-independent basis, Debye-Ang):
   XX=            -76.4475   YY=            -96.6172   ZZ=           -110.1474
   XY=              0.6574   XZ=              3.3957   YZ=              0.0412

 Normal termination of Gaussian 16 at Wed Oct 27 06:27:24 2021.
