 Gaussian 16, Revision C.01,
 Gaussian 16:  ES64L-G16RevC.01  3-Jul-2019

 ----------------------------------
 # opt=modredundant mp2/aug-cc-pvdz
 ----------------------------------

 -------------
 pBTTT_-30.pdb
 -------------
 Symbolic Z-matrix:
 Charge =  0 Multiplicity = 1

 SCF Done:  E(RHF) =  -1649.64238885     A.U. after   17 cycles
 E2 =    -0.1969783714D+01 EUMP2 =    -0.16516121725613D+04
 SCF Done:  E(RHF) =  -1649.63305471     A.U. after   15 cycles
 E2 =    -0.1989272906D+01 EUMP2 =    -0.16516223276120D+04
 SCF Done:  E(RHF) =  -1649.63074293     A.U. after   14 cycles
 E2 =    -0.1992177503D+01 EUMP2 =    -0.16516229204287D+04
 SCF Done:  E(RHF) =  -1649.63023677     A.U. after   13 cycles
 E2 =    -0.1992737755D+01 EUMP2 =    -0.16516229745288D+04
 SCF Done:  E(RHF) =  -1649.63034388     A.U. after   13 cycles
 E2 =    -0.1992634867D+01 EUMP2 =    -0.16516229787475D+04
 SCF Done:  E(RHF) =  -1649.63042363     A.U. after   12 cycles
 E2 =    -0.1992557455D+01 EUMP2 =    -0.16516229810809D+04
 SCF Done:  E(RHF) =  -1649.63044710     A.U. after   10 cycles
 E2 =    -0.1992534578D+01 EUMP2 =    -0.16516229816800D+04
 SCF Done:  E(RHF) =  -1649.63045057     A.U. after    9 cycles
 E2 =    -0.1992531396D+01 EUMP2 =    -0.16516229819654D+04
 SCF Done:  E(RHF) =  -1649.63042397     A.U. after    9 cycles
 E2 =    -0.1992558260D+01 EUMP2 =    -0.16516229822287D+04
 SCF Done:  E(RHF) =  -1649.63040373     A.U. after    9 cycles
 E2 =    -0.1992578768D+01 EUMP2 =    -0.16516229824945D+04
 SCF Done:  E(RHF) =  -1649.63040842     A.U. after    9 cycles
 E2 =    -0.1992574205D+01 EUMP2 =    -0.16516229826212D+04
 SCF Done:  E(RHF) =  -1649.63042368     A.U. after    9 cycles
 E2 =    -0.1992559011D+01 EUMP2 =    -0.16516229826871D+04
 Optimization completed.
    -- Stationary point found.

                         Standard orientation:
 ---------------------------------------------------------------------
 Center     Atomic      Atomic             Coordinates (Angstroms)
 Number     Number       Type             X           Y           Z
 ---------------------------------------------------------------------
      1          6           0       -4.039415    0.367071    0.185531
      2          6           0       -2.703503    0.853172    0.245386
      3          6           0       -1.733669   -0.126609   -0.005812
      4          6           0       -4.090915   -0.990816   -0.109776
      5          1           0       -4.928612    0.980582    0.354288
      6         16           0       -2.509286   -1.657681   -0.331233
      7          1           0       -4.971113   -1.624227   -0.219284
      8          6           0       -0.287843   -0.017837    0.029678
      9         16           0        0.511648    1.512677   -0.350772
     10          6           0        2.081308    0.773696   -0.201988
     11          6           0        1.967403   -0.600577    0.124645
     12          6           0        0.628324   -1.051593    0.259775
     13          1           0        0.318024   -2.064904    0.525374
     14         16           0        3.541938   -1.324381    0.307204
     15          6           0        4.323485    0.200272   -0.049337
     16          6           0        3.427576    1.233664   -0.295503
     17          1           0        5.413415    0.247041   -0.063962
     18          1           0        3.739830    2.251906   -0.534466
     19          8           0       -2.324451    2.150613    0.518334
     20          1           0       -3.121237    2.672211    0.692586
 ---------------------------------------------------------------------

 The electronic state is 1-A.
 Alpha  occ. eigenvalues --  -91.99773 -91.98933 -91.98756 -20.61681 -11.32609
 Alpha  occ. eigenvalues --  -11.29388 -11.29368 -11.28102 -11.27887 -11.27458
 Alpha  occ. eigenvalues --  -11.27222 -11.26619 -11.26013 -11.25816  -8.99919
 Alpha  occ. eigenvalues --   -8.99046  -8.98838  -6.68085  -6.67993  -6.67805
 Alpha  occ. eigenvalues --   -6.67213  -6.67133  -6.66996  -6.66936  -6.66911
 Alpha  occ. eigenvalues --   -6.66710  -1.41755  -1.20105  -1.17734  -1.11542
 Alpha  occ. eigenvalues --   -1.02421  -1.01905  -0.98967  -0.94386  -0.93776
 Alpha  occ. eigenvalues --   -0.82612  -0.80755  -0.76353  -0.74108  -0.71143
 Alpha  occ. eigenvalues --   -0.69684  -0.66646  -0.65716  -0.60989  -0.60611
 Alpha  occ. eigenvalues --   -0.58654  -0.56544  -0.55465  -0.54214  -0.52720
 Alpha  occ. eigenvalues --   -0.52271  -0.51091  -0.49680  -0.48073  -0.46078
 Alpha  occ. eigenvalues --   -0.45507  -0.38882  -0.35469  -0.33977  -0.31613
 Alpha  occ. eigenvalues --   -0.26164
 Alpha virt. eigenvalues --    0.02746   0.03716   0.03923   0.04972   0.05121
 Alpha virt. eigenvalues --    0.05756   0.06249   0.08497   0.08901   0.09450
 Alpha virt. eigenvalues --    0.10328   0.10552   0.10623   0.10863   0.11242

 Mulliken charges:
               1
     1  C    0.524833
     2  C    0.317781
     3  C    0.855790
     4  C   -0.318824
     5  H   -0.419668
     6  S    0.458926
     7  H   -0.335298
     8  C    0.150494
     9  S    0.492903
    10  C   -0.525235
    11  C   -0.151767
    12  C    0.152909
    13  H   -0.464208
    14  S    0.555945
    15  C   -0.187331
    16  C    0.299554
    17  H   -0.353366
    18  H   -0.294158
    19  O   -0.965131
    20  H    0.205852
 Sum of Mulliken charges =  -0.00000

 Dipole moment (field-independent basis, Debye):
    X=             -2.6456    Y=              0.9482    Z=              0.3311  Tot=              2.8298
 Quadrupole moment (field-independent basis, Debye-Ang):
   XX=            -76.4356   YY=            -96.2462   ZZ=           -110.5274
   XY=             -0.7625   XZ=             -2.8983   YZ=              0.0293

 Normal termination of Gaussian 16 at Wed Oct 27 06:19:10 2021.
