 Gaussian 16, Revision C.01,
 Gaussian 16:  ES64L-G16RevC.01  3-Jul-2019

 ----------------------------------
 # opt=modredundant mp2/aug-cc-pvdz
 ----------------------------------

 -------------
 pBTTT_-20.pdb
 -------------
 Symbolic Z-matrix:
 Charge =  0 Multiplicity = 1

 SCF Done:  E(RHF) =  -1649.64252273     A.U. after   17 cycles
 E2 =    -0.1969844820D+01 EUMP2 =    -0.16516123675462D+04
 SCF Done:  E(RHF) =  -1649.63318614     A.U. after   15 cycles
 E2 =    -0.1989486148D+01 EUMP2 =    -0.16516226722875D+04
 SCF Done:  E(RHF) =  -1649.63085209     A.U. after   14 cycles
 E2 =    -0.1992411923D+01 EUMP2 =    -0.16516232640105D+04
 SCF Done:  E(RHF) =  -1649.63037684     A.U. after   13 cycles
 E2 =    -0.1992936301D+01 EUMP2 =    -0.16516233131421D+04
 SCF Done:  E(RHF) =  -1649.63049063     A.U. after   12 cycles
 E2 =    -0.1992825975D+01 EUMP2 =    -0.16516233166090D+04
 SCF Done:  E(RHF) =  -1649.63056425     A.U. after   12 cycles
 E2 =    -0.1992754209D+01 EUMP2 =    -0.16516233184619D+04
 SCF Done:  E(RHF) =  -1649.63057982     A.U. after   10 cycles
 E2 =    -0.1992738938D+01 EUMP2 =    -0.16516233187617D+04
 SCF Done:  E(RHF) =  -1649.63058295     A.U. after    9 cycles
 E2 =    -0.1992735976D+01 EUMP2 =    -0.16516233189251D+04
 SCF Done:  E(RHF) =  -1649.63056473     A.U. after    8 cycles
 E2 =    -0.1992754332D+01 EUMP2 =    -0.16516233190596D+04
 SCF Done:  E(RHF) =  -1649.63054985     A.U. after    9 cycles
 E2 =    -0.1992769353D+01 EUMP2 =    -0.16516233192023D+04
 SCF Done:  E(RHF) =  -1649.63055211     A.U. after    8 cycles
 E2 =    -0.1992767167D+01 EUMP2 =    -0.16516233192780D+04
 Optimization completed.
    -- Stationary point found.

                         Standard orientation:
 ---------------------------------------------------------------------
 Center     Atomic      Atomic             Coordinates (Angstroms)
 Number     Number       Type             X           Y           Z
 ---------------------------------------------------------------------
      1          6           0       -4.040406    0.379405    0.121342
      2          6           0       -2.702861    0.863360    0.163259
      3          6           0       -1.732829   -0.134911   -0.001022
      4          6           0       -4.094325   -0.995442   -0.075332
      5          1           0       -4.928519    1.007486    0.231872
      6         16           0       -2.512365   -1.683623   -0.222193
      7          1           0       -4.975253   -1.632840   -0.150013
      8          6           0       -0.287758   -0.026020    0.027227
      9         16           0        0.509591    1.533043   -0.228731
     10          6           0        2.080041    0.786725   -0.137448
     11          6           0        1.969696   -0.608691    0.082099
     12          6           0        0.632006   -1.071763    0.179196
     13          1           0        0.327164   -2.105209    0.360706
     14         16           0        3.546026   -1.341701    0.203464
     15          6           0        4.323872    0.207667   -0.036902
     16          6           0        3.425184    1.254961   -0.200822
     17          1           0        5.413689    0.257949   -0.049324
     18          1           0        3.734895    2.289210   -0.361773
     19          8           0       -2.322497    2.176636    0.343227
     20          1           0       -3.119736    2.715061    0.452496
 ---------------------------------------------------------------------

 The electronic state is 1-A.
 Alpha  occ. eigenvalues --  -91.99773 -91.98898 -91.98754 -20.61791 -11.32665
 Alpha  occ. eigenvalues --  -11.29445 -11.29437 -11.28209 -11.27833 -11.27438
 Alpha  occ. eigenvalues --  -11.27128 -11.26672 -11.25980 -11.25758  -8.99927
 Alpha  occ. eigenvalues --   -8.99010  -8.98829  -6.68095  -6.68003  -6.67813
 Alpha  occ. eigenvalues --   -6.67177  -6.67097  -6.66986  -6.66900  -6.66900
 Alpha  occ. eigenvalues --   -6.66698  -1.41871  -1.20084  -1.17761  -1.11522
 Alpha  occ. eigenvalues --   -1.02442  -1.01913  -0.99004  -0.94362  -0.93769
 Alpha  occ. eigenvalues --   -0.82651  -0.80848  -0.76347  -0.74172  -0.71052
 Alpha  occ. eigenvalues --   -0.69755  -0.66762  -0.65660  -0.61021  -0.60728
 Alpha  occ. eigenvalues --   -0.58684  -0.56542  -0.55453  -0.54279  -0.52695
 Alpha  occ. eigenvalues --   -0.52152  -0.51225  -0.49711  -0.47955  -0.46190
 Alpha  occ. eigenvalues --   -0.45409  -0.38969  -0.35549  -0.34119  -0.31612
 Alpha  occ. eigenvalues --   -0.25924
 Alpha virt. eigenvalues --    0.02722   0.03701   0.03911   0.04970   0.05120
 Alpha virt. eigenvalues --    0.05577   0.06249   0.08498   0.09156   0.09519
 Alpha virt. eigenvalues --    0.10348   0.10633   0.10680   0.10963   0.11289

 Mulliken charges:
               1
     1  C    0.587938
     2  C    0.211529
     3  C    0.917721
     4  C   -0.346458
     5  H   -0.421014
     6  S    0.483731
     7  H   -0.347924
     8  C    0.147644
     9  S    0.492424
    10  C   -0.528384
    11  C   -0.099515
    12  C    0.173225
    13  H   -0.472579
    14  S    0.531075
    15  C   -0.200726
    16  C    0.284335
    17  H   -0.356259
    18  H   -0.298807
    19  O   -0.970257
    20  H    0.212298
 Sum of Mulliken charges =  -0.00000

 Dipole moment (field-independent basis, Debye):
    X=             -2.7270    Y=              1.0172    Z=              0.2098  Tot=              2.9181
 Quadrupole moment (field-independent basis, Debye-Ang):
   XX=            -76.4251   YY=            -95.6574   ZZ=           -111.1190
   XY=             -0.9400   XZ=             -1.8973   YZ=             -0.0127

 Normal termination of Gaussian 16 at Wed Oct 27 06:21:51 2021.
