 Gaussian 16, Revision C.01,
 Gaussian 16:  ES64L-G16RevC.01  3-Jul-2019

 ----------------------------------
 # opt=modredundant mp2/aug-cc-pvdz
 ----------------------------------

 --------------
 pBTTT_-155.pdb
 --------------
 Symbolic Z-matrix:
 Charge =  0 Multiplicity = 1

 SCF Done:  E(RHF) =  -1649.64260202     A.U. after   17 cycles
 E2 =    -0.1970179557D+01 EUMP2 =    -0.16516127815779D+04
 SCF Done:  E(RHF) =  -1649.63332734     A.U. after   15 cycles
 E2 =    -0.1989502786D+01 EUMP2 =    -0.16516228301283D+04
 SCF Done:  E(RHF) =  -1649.63110430     A.U. after   15 cycles
 E2 =    -0.1992306072D+01 EUMP2 =    -0.16516234103747D+04
 SCF Done:  E(RHF) =  -1649.63059923     A.U. after   14 cycles
 E2 =    -0.1992858079D+01 EUMP2 =    -0.16516234573102D+04
 SCF Done:  E(RHF) =  -1649.63068220     A.U. after   11 cycles
 E2 =    -0.1992780952D+01 EUMP2 =    -0.16516234631472D+04
 SCF Done:  E(RHF) =  -1649.63080347     A.U. after   12 cycles
 E2 =    -0.1992664184D+01 EUMP2 =    -0.16516234676575D+04
 SCF Done:  E(RHF) =  -1649.63086582     A.U. after   11 cycles
 E2 =    -0.1992603640D+01 EUMP2 =    -0.16516234694624D+04
 SCF Done:  E(RHF) =  -1649.63087807     A.U. after   11 cycles
 E2 =    -0.1992592471D+01 EUMP2 =    -0.16516234705427D+04
 SCF Done:  E(RHF) =  -1649.63081966     A.U. after   10 cycles
 E2 =    -0.1992651678D+01 EUMP2 =    -0.16516234713345D+04
 SCF Done:  E(RHF) =  -1649.63081170     A.U. after    9 cycles
 E2 =    -0.1992659734D+01 EUMP2 =    -0.16516234714385D+04
 Optimization completed.
    -- Stationary point found.

                         Standard orientation:
 ---------------------------------------------------------------------
 Center     Atomic      Atomic             Coordinates (Angstroms)
 Number     Number       Type             X           Y           Z
 ---------------------------------------------------------------------
      1          6           0        3.941917    0.881239    0.117098
      2          6           0        2.547998    1.158897    0.172965
      3          6           0        1.739723    0.034864   -0.050486
      4          6           0        4.200892   -0.459972   -0.145178
      5          1           0        4.727079    1.627714    0.265194
      6         16           0        2.740248   -1.366086   -0.344341
      7          1           0        5.167275   -0.954110   -0.243783
      8          6           0        0.291784   -0.039223   -0.032217
      9         16           0       -0.511000   -1.576569    0.317338
     10          6           0       -2.081786   -0.840516    0.154319
     11          6           0       -1.959835    0.542142   -0.130329
     12          6           0       -0.619607    1.001582   -0.239349
     13          1           0       -0.302467    2.020759   -0.462706
     14         16           0       -3.532094    1.278527   -0.277489
     15          6           0       -4.320114   -0.250995    0.038042
     16          6           0       -3.428343   -1.295950    0.251087
     17          1           0       -5.410182   -0.294669    0.049439
     18          1           0       -3.744233   -2.319093    0.462292
     19          8           0        1.980536    2.393107    0.415948
     20          1           0        2.687985    3.008204    0.658137
 ---------------------------------------------------------------------

 The electronic state is 1-A.
 Alpha  occ. eigenvalues --  -91.99767 -91.99013 -91.98998 -20.61821 -11.32527
 Alpha  occ. eigenvalues --  -11.29289 -11.29242 -11.28154 -11.27953 -11.27578
 Alpha  occ. eigenvalues --  -11.27437 -11.26592 -11.26136 -11.25575  -8.99917
 Alpha  occ. eigenvalues --   -8.99125  -8.99120  -6.68083  -6.67992  -6.67803
 Alpha  occ. eigenvalues --   -6.67291  -6.67288  -6.67211  -6.67205  -6.67015
 Alpha  occ. eigenvalues --   -6.67001  -1.41802  -1.20181  -1.17736  -1.11592
 Alpha  occ. eigenvalues --   -1.02401  -1.02008  -0.98974  -0.94426  -0.93792
 Alpha  occ. eigenvalues --   -0.82635  -0.80648  -0.76332  -0.73912  -0.71963
 Alpha  occ. eigenvalues --   -0.69613  -0.66440  -0.65599  -0.61220  -0.60650
 Alpha  occ. eigenvalues --   -0.58367  -0.56330  -0.55580  -0.54330  -0.53020
 Alpha  occ. eigenvalues --   -0.51968  -0.50962  -0.49915  -0.48274  -0.46208
 Alpha  occ. eigenvalues --   -0.45683  -0.38979  -0.35512  -0.33977  -0.31829
 Alpha  occ. eigenvalues --   -0.26087
 Alpha virt. eigenvalues --    0.02688   0.03744   0.03841   0.05088   0.05114
 Alpha virt. eigenvalues --    0.05694   0.06681   0.08211   0.08696   0.09504
 Alpha virt. eigenvalues --    0.10387   0.10466   0.10749   0.10869   0.11411

 Mulliken charges:
               1
     1  C    0.557666
     2  C    0.315788
     3  C    0.699398
     4  C   -0.361653
     5  H   -0.430001
     6  S    0.488526
     7  H   -0.331728
     8  C    0.164328
     9  S    0.474208
    10  C   -0.626392
    11  C    0.052909
    12  C    0.103228
    13  H   -0.423855
    14  S    0.546125
    15  C   -0.187855
    16  C    0.367071
    17  H   -0.352834
    18  H   -0.291203
    19  O   -0.980375
    20  H    0.216648
 Sum of Mulliken charges =  -0.00000

 Dipole moment (field-independent basis, Debye):
    X=              2.3392    Y=              1.1343    Z=              0.4010  Tot=              2.6304
 Quadrupole moment (field-independent basis, Debye-Ang):
   XX=            -78.0271   YY=            -94.9454   ZZ=           -110.5357
   XY=             10.5044   XZ=              0.7742   YZ=              0.6090

 Normal termination of Gaussian 16 at Wed Oct 27 05:39:36 2021.
