 Gaussian 16, Revision C.01,
 Gaussian 16:  ES64L-G16RevC.01  3-Jul-2019

 ----------------------------------
 # opt=modredundant mp2/aug-cc-pvdz
 ----------------------------------

 ------------
 pBTTT_85.pdb
 ------------
 Symbolic Z-matrix:
 Charge =  0 Multiplicity = 1

 SCF Done:  E(RHF) =  -1649.64145957     A.U. after   17 cycles
 E2 =    -0.1967867695D+01 EUMP2 =    -0.16516093272685D+04
 SCF Done:  E(RHF) =  -1649.63216061     A.U. after   14 cycles
 E2 =    -0.1987290501D+01 EUMP2 =    -0.16516194511150D+04
 SCF Done:  E(RHF) =  -1649.62991177     A.U. after   14 cycles
 E2 =    -0.1990115972D+01 EUMP2 =    -0.16516200277447D+04
 SCF Done:  E(RHF) =  -1649.62940996     A.U. after   13 cycles
 E2 =    -0.1990670615D+01 EUMP2 =    -0.16516200805699D+04
 SCF Done:  E(RHF) =  -1649.62953972     A.U. after   11 cycles
 E2 =    -0.1990544589D+01 EUMP2 =    -0.16516200843093D+04
 SCF Done:  E(RHF) =  -1649.62961469     A.U. after   10 cycles
 E2 =    -0.1990470530D+01 EUMP2 =    -0.16516200852188D+04
 Optimization completed.
    -- Stationary point found.

                         Standard orientation:
 ---------------------------------------------------------------------
 Center     Atomic      Atomic             Coordinates (Angstroms)
 Number     Number       Type             X           Y           Z
 ---------------------------------------------------------------------
      1          6           0        3.981253    0.404441    0.576155
      2          6           0        2.603778    0.732741    0.729486
      3          6           0        1.745622   -0.111178    0.017615
      4          6           0        4.167175   -0.693830   -0.258379
      5          1           0        4.804608    0.940793    1.055653
      6         16           0        2.666235   -1.312100   -0.849076
      7          1           0        5.107106   -1.164158   -0.547825
      8          6           0        0.286173   -0.054278   -0.032162
      9         16           0       -0.514683    1.019163   -1.179786
     10          6           0       -2.084567    0.521948   -0.617873
     11          6           0       -1.964721   -0.443833    0.414266
     12          6           0       -0.621798   -0.772560    0.746053
     13          1           0       -0.296964   -1.482801    1.508980
     14         16           0       -3.536009   -0.941402    0.978251
     15          6           0       -4.323738    0.132118   -0.155917
     16          6           0       -3.433879    0.851498   -0.943238
     17          1           0       -5.413691    0.172816   -0.178220
     18          1           0       -3.751225    1.567782   -1.703003
     19          8           0        2.092220    1.758564    1.491791
     20          1           0        2.831913    2.244065    1.883828
 ---------------------------------------------------------------------

 The electronic state is 1-A.
 Alpha  occ. eigenvalues --  -91.99576 -91.99100 -91.98828 -20.61246 -11.32423
 Alpha  occ. eigenvalues --  -11.29213 -11.28833 -11.28170 -11.27637 -11.27469
 Alpha  occ. eigenvalues --  -11.27421 -11.26278 -11.26162 -11.26152  -8.99692
 Alpha  occ. eigenvalues --   -8.99215  -8.98920  -6.67853  -6.67762  -6.67578
 Alpha  occ. eigenvalues --   -6.67381  -6.67301  -6.67104  -6.67081  -6.66996
 Alpha  occ. eigenvalues --   -6.66800  -1.41336  -1.20130  -1.17501  -1.11565
 Alpha  occ. eigenvalues --   -1.02308  -1.01729  -0.98678  -0.94495  -0.93812
 Alpha  occ. eigenvalues --   -0.82314  -0.80220  -0.76381  -0.73739  -0.71828
 Alpha  occ. eigenvalues --   -0.69324  -0.66289  -0.65813  -0.60903  -0.60145
 Alpha  occ. eigenvalues --   -0.58163  -0.56606  -0.55580  -0.53799  -0.52998
 Alpha  occ. eigenvalues --   -0.52727  -0.50507  -0.49248  -0.48701  -0.45842
 Alpha  occ. eigenvalues --   -0.45390  -0.38477  -0.34820  -0.31767  -0.31614
 Alpha  occ. eigenvalues --   -0.28918
 Alpha virt. eigenvalues --    0.02805   0.03712   0.03970   0.04888   0.05084
 Alpha virt. eigenvalues --    0.06216   0.07835   0.08014   0.08407   0.08816
 Alpha virt. eigenvalues --    0.09000   0.10202   0.10366   0.10789   0.11411

 Mulliken charges:
               1
     1  C    0.610446
     2  C    0.488283
     3  C    0.325999
     4  C   -0.332336
     5  H   -0.406911
     6  S    0.367022
     7  H   -0.302953
     8  C    0.606298
     9  S    0.404996
    10  C   -0.760090
    11  C   -0.223296
    12  C   -0.068574
    13  H   -0.396954
    14  S    0.658087
    15  C   -0.132332
    16  C    0.600933
    17  H   -0.350703
    18  H   -0.295324
    19  O   -0.979536
    20  H    0.186947
 Sum of Mulliken charges =  -0.00000

 Dipole moment (field-independent basis, Debye):
    X=              2.1739    Y=              0.7732    Z=              0.7462  Tot=              2.4250
 Quadrupole moment (field-independent basis, Debye-Ang):
   XX=            -77.3481   YY=           -102.2971   ZZ=           -103.6279
   XY=              1.1260   XZ=              7.4700   YZ=             -0.1270

 Normal termination of Gaussian 16 at Wed Oct 27 06:31:11 2021.
