 Gaussian 16, Revision C.01,
 Gaussian 16:  ES64L-G16RevC.01  3-Jul-2019

 ----------------------------------
 # opt=modredundant mp2/aug-cc-pvdz
 ----------------------------------

 --------------
 pBTTT_-135.pdb
 --------------
 Symbolic Z-matrix:
 Charge =  0 Multiplicity = 1

 SCF Done:  E(RHF) =  -1649.64246440     A.U. after   17 cycles
 E2 =    -0.1969139281D+01 EUMP2 =    -0.16516116036767D+04
 SCF Done:  E(RHF) =  -1649.63322401     A.U. after   15 cycles
 E2 =    -0.1988610152D+01 EUMP2 =    -0.16516218341658D+04
 SCF Done:  E(RHF) =  -1649.63089849     A.U. after   13 cycles
 E2 =    -0.1991568596D+01 EUMP2 =    -0.16516224670829D+04
 SCF Done:  E(RHF) =  -1649.63030172     A.U. after   13 cycles
 E2 =    -0.1992225403D+01 EUMP2 =    -0.16516225271284D+04
 SCF Done:  E(RHF) =  -1649.63037157     A.U. after   12 cycles
 E2 =    -0.1992161974D+01 EUMP2 =    -0.16516225335465D+04
 SCF Done:  E(RHF) =  -1649.63052394     A.U. after   12 cycles
 E2 =    -0.1992015628D+01 EUMP2 =    -0.16516225395652D+04
 SCF Done:  E(RHF) =  -1649.63058382     A.U. after   11 cycles
 E2 =    -0.1991957230D+01 EUMP2 =    -0.16516225410504D+04
 SCF Done:  E(RHF) =  -1649.63058698     A.U. after   11 cycles
 E2 =    -0.1991954879D+01 EUMP2 =    -0.16516225418582D+04
 SCF Done:  E(RHF) =  -1649.63054455     A.U. after   11 cycles
 E2 =    -0.1991998218D+01 EUMP2 =    -0.16516225427729D+04
 SCF Done:  E(RHF) =  -1649.63053069     A.U. after   10 cycles
 E2 =    -0.1992012524D+01 EUMP2 =    -0.16516225432148D+04
 SCF Done:  E(RHF) =  -1649.63053270     A.U. after    9 cycles
 E2 =    -0.1992010559D+01 EUMP2 =    -0.16516225432609D+04
 Optimization completed.
    -- Stationary point found.

                         Standard orientation:
 ---------------------------------------------------------------------
 Center     Atomic      Atomic             Coordinates (Angstroms)
 Number     Number       Type             X           Y           Z
 ---------------------------------------------------------------------
      1          6           0        3.931868    0.858375    0.224089
      2          6           0        2.534672    1.118681    0.296516
      3          6           0        1.741042    0.037766   -0.108972
      4          6           0        4.203135   -0.431129   -0.222914
      5          1           0        4.710283    1.577845    0.492619
      6         16           0        2.753287   -1.305127   -0.576877
      7          1           0        5.175241   -0.899702   -0.376301
      8          6           0        0.291654   -0.051818   -0.090748
      9         16           0       -0.500819   -1.510828    0.516642
     10          6           0       -2.075020   -0.807458    0.268650
     11          6           0       -1.960681    0.515105   -0.229005
     12          6           0       -0.622318    0.946116   -0.436015
     13          1           0       -0.306923    1.918536   -0.817775
     14         16           0       -3.536087    1.219577   -0.467988
     15          6           0       -4.316437   -0.242915    0.090833
     16          6           0       -3.420227   -1.242676    0.449695
     17          1           0       -5.406127   -0.282979    0.126411
     18          1           0       -3.731306   -2.220835    0.820720
     19          8           0        1.950960    2.298150    0.708959
     20          1           0        2.642919    2.863714    1.081453
 ---------------------------------------------------------------------

 The electronic state is 1-A.
 Alpha  occ. eigenvalues --  -91.99710 -91.99037 -91.98994 -20.61558 -11.32486
 Alpha  occ. eigenvalues --  -11.29268 -11.29043 -11.28010 -11.27904 -11.27587
 Alpha  occ. eigenvalues --  -11.27465 -11.26496 -11.26145 -11.25754  -8.99850
 Alpha  occ. eigenvalues --   -8.99150  -8.99098  -6.68014  -6.67923  -6.67737
 Alpha  occ. eigenvalues --   -6.67316  -6.67263  -6.67236  -6.67179  -6.67040
 Alpha  occ. eigenvalues --   -6.66978  -1.41566  -1.20162  -1.17662  -1.11581
 Alpha  occ. eigenvalues --   -1.02367  -1.01925  -0.98885  -0.94441  -0.93780
 Alpha  occ. eigenvalues --   -0.82531  -0.80453  -0.76340  -0.73787  -0.71984
 Alpha  occ. eigenvalues --   -0.69437  -0.66304  -0.65763  -0.61139  -0.60464
 Alpha  occ. eigenvalues --   -0.58230  -0.56390  -0.55530  -0.54187  -0.52907
 Alpha  occ. eigenvalues --   -0.52360  -0.50670  -0.49685  -0.48462  -0.45991
 Alpha  occ. eigenvalues --   -0.45754  -0.38763  -0.35245  -0.33616  -0.31781
 Alpha  occ. eigenvalues --   -0.26724
 Alpha virt. eigenvalues --    0.02741   0.03749   0.03875   0.05082   0.05086
 Alpha virt. eigenvalues --    0.06137   0.06563   0.08151   0.08541   0.09331
 Alpha virt. eigenvalues --    0.10158   0.10277   0.10507   0.10859   0.11306

 Mulliken charges:
               1
     1  C    0.535921
     2  C    0.374384
     3  C    0.683257
     4  C   -0.345087
     5  H   -0.415004
     6  S    0.450853
     7  H   -0.317921
     8  C    0.211606
     9  S    0.463210
    10  C   -0.703104
    11  C    0.016730
    12  C   -0.033293
    13  H   -0.410019
    14  S    0.600224
    15  C   -0.147665
    16  C    0.435292
    17  H   -0.351159
    18  H   -0.289913
    19  O   -0.959819
    20  H    0.201508
 Sum of Mulliken charges =  -0.00000

 Dipole moment (field-independent basis, Debye):
    X=              2.2467    Y=              1.0546    Z=              0.6817  Tot=              2.5738
 Quadrupole moment (field-independent basis, Debye-Ang):
   XX=            -78.3012   YY=            -96.6456   ZZ=           -108.7463
   XY=              9.7769   XZ=              1.1343   YZ=              0.6325

 Normal termination of Gaussian 16 at Wed Oct 27 06:11:08 2021.
