 Gaussian 16, Revision C.01,
 Gaussian 16:  ES64L-G16RevC.01  3-Jul-2019

 ----------------------------------
 # opt=modredundant mp2/aug-cc-pvdz
 ----------------------------------

 -------------
 pBTTT_105.pdb
 -------------
 Symbolic Z-matrix:
 Charge =  0 Multiplicity = 1

 SCF Done:  E(RHF) =  -1649.64157193     A.U. after   17 cycles
 E2 =    -0.1967958152D+01 EUMP2 =    -0.16516095300834D+04
 SCF Done:  E(RHF) =  -1649.63229697     A.U. after   14 cycles
 E2 =    -0.1987450159D+01 EUMP2 =    -0.16516197471259D+04
 SCF Done:  E(RHF) =  -1649.62999904     A.U. after   14 cycles
 E2 =    -0.1990361101D+01 EUMP2 =    -0.16516203601462D+04
 SCF Done:  E(RHF) =  -1649.62942670     A.U. after   13 cycles
 E2 =    -0.1990997535D+01 EUMP2 =    -0.16516204242392D+04
 SCF Done:  E(RHF) =  -1649.62952404     A.U. after   12 cycles
 E2 =    -0.1990906647D+01 EUMP2 =    -0.16516204306856D+04
 SCF Done:  E(RHF) =  -1649.62961968     A.U. after   11 cycles
 E2 =    -0.1990814765D+01 EUMP2 =    -0.16516204344415D+04
 SCF Done:  E(RHF) =  -1649.62966067     A.U. after   11 cycles
 E2 =    -0.1990775001D+01 EUMP2 =    -0.16516204356745D+04
 SCF Done:  E(RHF) =  -1649.62964952     A.U. after   10 cycles
 E2 =    -0.1990786474D+01 EUMP2 =    -0.16516204359973D+04
 SCF Done:  E(RHF) =  -1649.62962078     A.U. after    9 cycles
 E2 =    -0.1990815431D+01 EUMP2 =    -0.16516204362144D+04
 SCF Done:  E(RHF) =  -1649.62960994     A.U. after    8 cycles
 E2 =    -0.1990826408D+01 EUMP2 =    -0.16516204363504D+04
 SCF Done:  E(RHF) =  -1649.62961006     A.U. after    8 cycles
 E2 =    -0.1990826366D+01 EUMP2 =    -0.16516204364285D+04
 Optimization completed.
    -- Stationary point found.

                         Standard orientation:
 ---------------------------------------------------------------------
 Center     Atomic      Atomic             Coordinates (Angstroms)
 Number     Number       Type             X           Y           Z
 ---------------------------------------------------------------------
      1          6           0       -3.942831    0.762106    0.319409
      2          6           0       -2.547328    0.980732    0.501420
      3          6           0       -1.744952    0.027523   -0.134574
      4          6           0       -4.199502   -0.373800   -0.442708
      5          1           0       -4.729705    1.400546    0.730418
      6         16           0       -2.741541   -1.155458   -0.941306
      7          1           0       -5.167620   -0.777279   -0.740065
      8          6           0       -0.288682   -0.062402   -0.100976
      9         16           0        0.500755   -1.300485    0.879194
     10          6           0        2.075728   -0.690119    0.459227
     11          6           0        1.965232    0.440913   -0.389516
     12          6           0        0.626394    0.796479   -0.709495
     13          1           0        0.309670    1.627086   -1.343161
     14         16           0        3.541510    1.050737   -0.811435
     15          6           0        4.318638   -0.196810    0.136984
     16          6           0        3.421378   -1.056712    0.757854
     17          1           0        5.408178   -0.224199    0.186487
     18          1           0        3.730897   -1.891743    1.388779
     19          8           0       -1.973218    2.006999    1.217861
     20          1           0       -2.681712    2.525456    1.625654
 ---------------------------------------------------------------------

 The electronic state is 1-A.
 Alpha  occ. eigenvalues --  -91.99572 -91.99092 -91.98893 -20.61292 -11.32453
 Alpha  occ. eigenvalues --  -11.29240 -11.28813 -11.28146 -11.27629 -11.27493
 Alpha  occ. eigenvalues --  -11.27477 -11.26312 -11.26167 -11.26053  -8.99697
 Alpha  occ. eigenvalues --   -8.99206  -8.98984  -6.67859  -6.67767  -6.67584
 Alpha  occ. eigenvalues --   -6.67371  -6.67291  -6.67146  -6.67095  -6.67061
 Alpha  occ. eigenvalues --   -6.66864  -1.41364  -1.20128  -1.17523  -1.11556
 Alpha  occ. eigenvalues --   -1.02316  -1.01759  -0.98714  -0.94472  -0.93794
 Alpha  occ. eigenvalues --   -0.82346  -0.80234  -0.76373  -0.73685  -0.71959
 Alpha  occ. eigenvalues --   -0.69291  -0.66278  -0.65813  -0.60991  -0.60186
 Alpha  occ. eigenvalues --   -0.58087  -0.56506  -0.55579  -0.53874  -0.52932
 Alpha  occ. eigenvalues --   -0.52756  -0.50466  -0.49324  -0.48675  -0.45871
 Alpha  occ. eigenvalues --   -0.45489  -0.38501  -0.34869  -0.32377  -0.31559
 Alpha  occ. eigenvalues --   -0.28367
 Alpha virt. eigenvalues --    0.02789   0.03725   0.03946   0.04935   0.05077
 Alpha virt. eigenvalues --    0.06220   0.07516   0.08032   0.08385   0.08877
 Alpha virt. eigenvalues --    0.09313   0.10137   0.10407   0.10909   0.11300

 Mulliken charges:
               1
     1  C    0.610850
     2  C    0.392724
     3  C    0.511880
     4  C   -0.360922
     5  H   -0.407087
     6  S    0.405888
     7  H   -0.309093
     8  C    0.406417
     9  S    0.404196
    10  C   -0.758163
    11  C   -0.162687
    12  C   -0.001972
    13  H   -0.385999
    14  S    0.644611
    15  C   -0.128754
    16  C    0.560098
    17  H   -0.349615
    18  H   -0.293608
    19  O   -0.964263
    20  H    0.185498
 Sum of Mulliken charges =  -0.00000

 Dipole moment (field-independent basis, Debye):
    X=             -2.1408    Y=              0.9770    Z=              0.7195  Tot=              2.4608
 Quadrupole moment (field-independent basis, Debye-Ang):
   XX=            -77.9964   YY=           -100.1500   ZZ=           -105.3330
   XY=             -8.7152   XZ=             -0.6416   YZ=              0.0639

 Normal termination of Gaussian 16 at Wed Oct 27 07:55:07 2021.
