 Gaussian 16, Revision C.01,
 Gaussian 16:  ES64L-G16RevC.01  3-Jul-2019

 ----------------------------------
 # opt=modredundant mp2/aug-cc-pvdz
 ----------------------------------

 --------------
 pBTTT_-110.pdb
 --------------
 Symbolic Z-matrix:
 Charge =  0 Multiplicity = 1

 SCF Done:  E(RHF) =  -1649.64169263     A.U. after   17 cycles
 E2 =    -0.1968106004D+01 EUMP2 =    -0.16516097986309D+04
 SCF Done:  E(RHF) =  -1649.63243973     A.U. after   14 cycles
 E2 =    -0.1987570663D+01 EUMP2 =    -0.16516200103924D+04
 SCF Done:  E(RHF) =  -1649.63010695     A.U. after   14 cycles
 E2 =    -0.1990534609D+01 EUMP2 =    -0.16516206415605D+04
 SCF Done:  E(RHF) =  -1649.62952063     A.U. after   13 cycles
 E2 =    -0.1991187571D+01 EUMP2 =    -0.16516207082021D+04
 SCF Done:  E(RHF) =  -1649.62960925     A.U. after   12 cycles
 E2 =    -0.1991105713D+01 EUMP2 =    -0.16516207149674D+04
 SCF Done:  E(RHF) =  -1649.62971808     A.U. after   11 cycles
 E2 =    -0.1991001357D+01 EUMP2 =    -0.16516207194329D+04
 SCF Done:  E(RHF) =  -1649.62976446     A.U. after   11 cycles
 E2 =    -0.1990956224D+01 EUMP2 =    -0.16516207206846D+04
 SCF Done:  E(RHF) =  -1649.62975102     A.U. after   10 cycles
 E2 =    -0.1990969981D+01 EUMP2 =    -0.16516207210000D+04
 SCF Done:  E(RHF) =  -1649.62972417     A.U. after    9 cycles
 E2 =    -0.1990997031D+01 EUMP2 =    -0.16516207212056D+04
 SCF Done:  E(RHF) =  -1649.62971413     A.U. after    9 cycles
 E2 =    -0.1991007214D+01 EUMP2 =    -0.16516207213392D+04
 SCF Done:  E(RHF) =  -1649.62971394     A.U. after    9 cycles
 E2 =    -0.1991007474D+01 EUMP2 =    -0.16516207214130D+04
 Optimization completed.
    -- Stationary point found.

                         Standard orientation:
 ---------------------------------------------------------------------
 Center     Atomic      Atomic             Coordinates (Angstroms)
 Number     Number       Type             X           Y           Z
 ---------------------------------------------------------------------
      1          6           0        3.937261    0.785336    0.311383
      2          6           0        2.540020    1.011989    0.467170
      3          6           0        1.744246    0.032359   -0.136844
      4          6           0        4.202412   -0.383351   -0.396298
      5          1           0        4.719514    1.440934    0.703798
      6         16           0        2.749814   -1.184795   -0.879564
      7          1           0        5.173609   -0.799965   -0.663925
      8          6           0        0.289339   -0.062664   -0.108523
      9         16           0       -0.498135   -1.349022    0.810096
     10          6           0       -2.073992   -0.717576    0.425137
     11          6           0       -1.964925    0.457700   -0.361274
     12          6           0       -0.626935    0.828905   -0.666409
     13          1           0       -0.311853    1.691772   -1.256195
     14         16           0       -3.542057    1.088417   -0.747844
     15          6           0       -4.317483   -0.209133    0.132457
     16          6           0       -3.418937   -1.101021    0.704602
     17          1           0       -5.406937   -0.239562    0.182102
     18          1           0       -3.727201   -1.969266    1.289659
     19          8           0        1.958801    2.068983    1.131902
     20          1           0        2.662492    2.595345    1.537949
 ---------------------------------------------------------------------

 The electronic state is 1-A.
 Alpha  occ. eigenvalues --  -91.99590 -91.99084 -91.98912 -20.61321 -11.32465
 Alpha  occ. eigenvalues --  -11.29248 -11.28837 -11.28125 -11.27618 -11.27549
 Alpha  occ. eigenvalues --  -11.27481 -11.26339 -11.26164 -11.26008  -8.99717
 Alpha  occ. eigenvalues --   -8.99197  -8.99004  -6.67880  -6.67788  -6.67604
 Alpha  occ. eigenvalues --   -6.67363  -6.67283  -6.67166  -6.67086  -6.67082
 Alpha  occ. eigenvalues --   -6.66883  -1.41385  -1.20131  -1.17543  -1.11558
 Alpha  occ. eigenvalues --   -1.02321  -1.01784  -0.98739  -0.94465  -0.93791
 Alpha  occ. eigenvalues --   -0.82372  -0.80261  -0.76368  -0.73689  -0.71975
 Alpha  occ. eigenvalues --   -0.69299  -0.66273  -0.65819  -0.61016  -0.60221
 Alpha  occ. eigenvalues --   -0.58097  -0.56480  -0.55569  -0.53923  -0.52873
 Alpha  occ. eigenvalues --   -0.52766  -0.50476  -0.49373  -0.48648  -0.45874
 Alpha  occ. eigenvalues --   -0.45545  -0.38527  -0.34915  -0.32626  -0.31609
 Alpha  occ. eigenvalues --   -0.28057
 Alpha virt. eigenvalues --    0.02783   0.03730   0.03936   0.04959   0.05077
 Alpha virt. eigenvalues --    0.06224   0.07312   0.08053   0.08405   0.08955
 Alpha virt. eigenvalues --    0.09475   0.10123   0.10435   0.10920   0.11256

 Mulliken charges:
               1
     1  C    0.590337
     2  C    0.397737
     3  C    0.557222
     4  C   -0.354854
     5  H   -0.407455
     6  S    0.411084
     7  H   -0.311890
     8  C    0.353336
     9  S    0.412072
    10  C   -0.761569
    11  C   -0.122418
    12  C   -0.005019
    13  H   -0.388349
    14  S    0.638251
    15  C   -0.129730
    16  C    0.539582
    17  H   -0.349520
    18  H   -0.292523
    19  O   -0.964190
    20  H    0.187894
 Sum of Mulliken charges =  -0.00000

 Dipole moment (field-independent basis, Debye):
    X=              2.1527    Y=              0.9915    Z=              0.7334  Tot=              2.4809
 Quadrupole moment (field-independent basis, Debye-Ang):
   XX=            -78.0995   YY=            -99.4415   ZZ=           -105.9866
   XY=              8.9127   XZ=              0.7827   YZ=              0.1388

 Normal termination of Gaussian 16 at Wed Oct 27 06:02:57 2021.
