 Gaussian 16, Revision C.01,
 Gaussian 16:  ES64L-G16RevC.01  3-Jul-2019

 ----------------------------------
 # opt=modredundant mp2/aug-cc-pvdz
 ----------------------------------

 ------------
 pBTTT_75.pdb
 ------------
 Symbolic Z-matrix:
 Charge =  0 Multiplicity = 1

 SCF Done:  E(RHF) =  -1649.64158443     A.U. after   17 cycles
 E2 =    -0.1967979779D+01 EUMP2 =    -0.16516095642118D+04
 SCF Done:  E(RHF) =  -1649.63232191     A.U. after   14 cycles
 E2 =    -0.1987428622D+01 EUMP2 =    -0.16516197505278D+04
 SCF Done:  E(RHF) =  -1649.63003328     A.U. after   13 cycles
 E2 =    -0.1990313579D+01 EUMP2 =    -0.16516203468576D+04
 SCF Done:  E(RHF) =  -1649.62953309     A.U. after   13 cycles
 E2 =    -0.1990868869D+01 EUMP2 =    -0.16516204019611D+04
 SCF Done:  E(RHF) =  -1649.62966130     A.U. after   11 cycles
 E2 =    -0.1990745160D+01 EUMP2 =    -0.16516204064578D+04
 SCF Done:  E(RHF) =  -1649.62973903     A.U. after   11 cycles
 E2 =    -0.1990668761D+01 EUMP2 =    -0.16516204077914D+04
 SCF Done:  E(RHF) =  -1649.62974659     A.U. after   10 cycles
 E2 =    -0.1990661819D+01 EUMP2 =    -0.16516204084118D+04
 SCF Done:  E(RHF) =  -1649.62974214     A.U. after   11 cycles
 E2 =    -0.1990666762D+01 EUMP2 =    -0.16516204088978D+04
 SCF Done:  E(RHF) =  -1649.62971598     A.U. after   10 cycles
 E2 =    -0.1990693201D+01 EUMP2 =    -0.16516204091853D+04
 SCF Done:  E(RHF) =  -1649.62970445     A.U. after    9 cycles
 E2 =    -0.1990705007D+01 EUMP2 =    -0.16516204094609D+04
 SCF Done:  E(RHF) =  -1649.62971061     A.U. after    8 cycles
 E2 =    -0.1990698935D+01 EUMP2 =    -0.16516204095459D+04
 SCF Done:  E(RHF) =  -1649.62971793     A.U. after    9 cycles
 E2 =    -0.1990691646D+01 EUMP2 =    -0.16516204095772D+04
 Optimization completed.
    -- Stationary point found.

                         Standard orientation:
 ---------------------------------------------------------------------
 Center     Atomic      Atomic             Coordinates (Angstroms)
 Number     Number       Type             X           Y           Z
 ---------------------------------------------------------------------
      1          6           0        4.000703    0.364631    0.512943
      2          6           0        2.636296    0.743159    0.665430
      3          6           0        1.744034   -0.103289   -0.000810
      4          6           0        4.142621   -0.779246   -0.267344
      5          1           0        4.845546    0.896563    0.959021
      6         16           0        2.616142   -1.375094   -0.815016
      7          1           0        5.063944   -1.292185   -0.544042
      8          6           0        0.286097   -0.027930   -0.019325
      9         16           0       -0.519828    1.209356   -0.983794
     10          6           0       -2.087211    0.617509   -0.513358
     11          6           0       -1.963095   -0.506728    0.342575
     12          6           0       -0.618741   -0.874918    0.622534
     13          1           0       -0.291560   -1.698005    1.261055
     14         16           0       -3.531998   -1.096573    0.817470
     15          6           0       -4.324500    0.149806   -0.119770
     16          6           0       -3.437764    0.994334   -0.775608
     17          1           0       -5.414687    0.188804   -0.135770
     18          1           0       -3.757929    1.827068   -1.404223
     19          8           0        2.166376    1.816703    1.388143
     20          1           0        2.923989    2.277122    1.776632
 ---------------------------------------------------------------------

 The electronic state is 1-A.
 Alpha  occ. eigenvalues --  -91.99624 -91.99088 -91.98807 -20.61273 -11.32434
 Alpha  occ. eigenvalues --  -11.29219 -11.28911 -11.28144 -11.27606 -11.27493
 Alpha  occ. eigenvalues --  -11.27463 -11.26318 -11.26149 -11.26132  -8.99740
 Alpha  occ. eigenvalues --   -8.99202  -8.98900  -6.67901  -6.67810  -6.67626
 Alpha  occ. eigenvalues --   -6.67368  -6.67288  -6.67091  -6.67061  -6.66975
 Alpha  occ. eigenvalues --   -6.66778  -1.41357  -1.20132  -1.17530  -1.11566
 Alpha  occ. eigenvalues --   -1.02315  -1.01756  -0.98712  -0.94490  -0.93808
 Alpha  occ. eigenvalues --   -0.82345  -0.80278  -0.76380  -0.73797  -0.71715
 Alpha  occ. eigenvalues --   -0.69364  -0.66290  -0.65831  -0.60886  -0.60173
 Alpha  occ. eigenvalues --   -0.58263  -0.56610  -0.55555  -0.53848  -0.52912
 Alpha  occ. eigenvalues --   -0.52719  -0.50571  -0.49301  -0.48651  -0.45823
 Alpha  occ. eigenvalues --   -0.45437  -0.38506  -0.34888  -0.32147  -0.31689
 Alpha  occ. eigenvalues --   -0.28427
 Alpha virt. eigenvalues --    0.02809   0.03721   0.03971   0.04897   0.05092
 Alpha virt. eigenvalues --    0.06224   0.07432   0.08101   0.08471   0.08892
 Alpha virt. eigenvalues --    0.09312   0.10244   0.10400   0.10739   0.11286

 Mulliken charges:
               1
     1  C    0.532195
     2  C    0.568641
     3  C    0.343326
     4  C   -0.281898
     5  H   -0.408916
     6  S    0.376224
     7  H   -0.307479
     8  C    0.485032
     9  S    0.423943
    10  C   -0.727112
    11  C   -0.208757
    12  C   -0.007076
    13  H   -0.410056
    14  S    0.645968
    15  C   -0.135288
    16  C    0.547988
    17  H   -0.349832
    18  H   -0.292241
    19  O   -0.985364
    20  H    0.190702
 Sum of Mulliken charges =  -0.00000

 Dipole moment (field-independent basis, Debye):
    X=              2.2397    Y=              0.7059    Z=              0.7235  Tot=              2.4572
 Quadrupole moment (field-independent basis, Debye-Ang):
   XX=            -77.0285   YY=           -100.9014   ZZ=           -105.2840
   XY=              0.4851   XZ=              6.8425   YZ=             -0.1397

 Normal termination of Gaussian 16 at Wed Oct 27 08:10:37 2021.
