 Gaussian 16, Revision C.01,
 Gaussian 16:  ES64L-G16RevC.01  3-Jul-2019

 ----------------------------------
 # opt=modredundant mp2/aug-cc-pvdz
 ----------------------------------

 -------------
 pBTTT_150.pdb
 -------------
 Symbolic Z-matrix:
 Charge =  0 Multiplicity = 1

 SCF Done:  E(RHF) =  -1649.64263545     A.U. after   17 cycles
 E2 =    -0.1969804598D+01 EUMP2 =    -0.16516124400527D+04
 SCF Done:  E(RHF) =  -1649.63338526     A.U. after   15 cycles
 E2 =    -0.1989284547D+01 EUMP2 =    -0.16516226698019D+04
 SCF Done:  E(RHF) =  -1649.63112549     A.U. after   14 cycles
 E2 =    -0.1992136778D+01 EUMP2 =    -0.16516232622675D+04
 SCF Done:  E(RHF) =  -1649.63059099     A.U. after   13 cycles
 E2 =    -0.1992720750D+01 EUMP2 =    -0.16516233117451D+04
 SCF Done:  E(RHF) =  -1649.63066669     A.U. after   11 cycles
 E2 =    -0.1992651388D+01 EUMP2 =    -0.16516233180781D+04
 SCF Done:  E(RHF) =  -1649.63080041     A.U. after   12 cycles
 E2 =    -0.1992522748D+01 EUMP2 =    -0.16516233231577D+04
 SCF Done:  E(RHF) =  -1649.63086885     A.U. after   11 cycles
 E2 =    -0.1992456321D+01 EUMP2 =    -0.16516233251722D+04
 SCF Done:  E(RHF) =  -1649.63088015     A.U. after   11 cycles
 E2 =    -0.1992446243D+01 EUMP2 =    -0.16516233263970D+04
 SCF Done:  E(RHF) =  -1649.63081832     A.U. after   11 cycles
 E2 =    -0.1992509009D+01 EUMP2 =    -0.16516233273328D+04
 SCF Done:  E(RHF) =  -1649.63080989     A.U. after    9 cycles
 E2 =    -0.1992517573D+01 EUMP2 =    -0.16516233274634D+04
 Optimization completed.
    -- Stationary point found.

                         Standard orientation:
 ---------------------------------------------------------------------
 Center     Atomic      Atomic             Coordinates (Angstroms)
 Number     Number       Type             X           Y           Z
 ---------------------------------------------------------------------
      1          6           0       -3.939497    0.876995    0.144778
      2          6           0       -2.544829    1.150920    0.204177
      3          6           0       -1.739941    0.035170   -0.065853
      4          6           0       -4.201120   -0.453872   -0.164271
      5          1           0       -4.723265    1.618137    0.323849
      6         16           0       -2.742858   -1.353536   -0.404574
      7          1           0       -5.168813   -0.942599   -0.276446
      8          6           0       -0.291855   -0.041966   -0.046969
      9         16           0        0.508832   -1.563419    0.368850
     10          6           0        2.080231   -0.834168    0.183214
     11          6           0        1.959614    0.536650   -0.155299
     12          6           0        0.619634    0.990337   -0.289159
     13          1           0        0.302376    1.999922   -0.553287
     14         16           0        3.532401    1.266770   -0.325700
     15          6           0        4.319136   -0.249498    0.051142
     16          6           0        3.426642   -1.285449    0.301276
     17          1           0        5.409154   -0.292511    0.068443
     18          1           0        3.741767   -2.299657    0.552875
     19          8           0       -1.973402    2.374032    0.489483
     20          1           0       -2.676089    2.976689    0.773266
 ---------------------------------------------------------------------

 The electronic state is 1-A.
 Alpha  occ. eigenvalues --  -91.99758 -91.99018 -91.99002 -20.61753 -11.32510
 Alpha  occ. eigenvalues --  -11.29280 -11.29193 -11.28097 -11.27964 -11.27583
 Alpha  occ. eigenvalues --  -11.27443 -11.26571 -11.26138 -11.25618  -8.99905
 Alpha  occ. eigenvalues --   -8.99131  -8.99119  -6.68071  -6.67979  -6.67791
 Alpha  occ. eigenvalues --   -6.67296  -6.67286  -6.67216  -6.67203  -6.67020
 Alpha  occ. eigenvalues --   -6.67000  -1.41739  -1.20178  -1.17720  -1.11591
 Alpha  occ. eigenvalues --   -1.02394  -1.01991  -0.98954  -0.94431  -0.93787
 Alpha  occ. eigenvalues --   -0.82613  -0.80598  -0.76333  -0.73878  -0.71969
 Alpha  occ. eigenvalues --   -0.69568  -0.66403  -0.65642  -0.61204  -0.60604
 Alpha  occ. eigenvalues --   -0.58332  -0.56340  -0.55566  -0.54304  -0.52991
 Alpha  occ. eigenvalues --   -0.52064  -0.50881  -0.49863  -0.48321  -0.46158
 Alpha  occ. eigenvalues --   -0.45710  -0.38929  -0.35450  -0.33910  -0.31825
 Alpha  occ. eigenvalues --   -0.26216
 Alpha virt. eigenvalues --    0.02702   0.03749   0.03848   0.05088   0.05113
 Alpha virt. eigenvalues --    0.05806   0.06623   0.08196   0.08648   0.09469
 Alpha virt. eigenvalues --    0.10322   0.10468   0.10668   0.10848   0.11374

 Mulliken charges:
               1
     1  C    0.549683
     2  C    0.323083
     3  C    0.704518
     4  C   -0.357836
     5  H   -0.425601
     6  S    0.480498
     7  H   -0.326942
     8  C    0.179790
     9  S    0.472779
    10  C   -0.641058
    11  C    0.043375
    12  C    0.052700
    13  H   -0.419015
    14  S    0.562399
    15  C   -0.176513
    16  C    0.380359
    17  H   -0.352332
    18  H   -0.290674
    19  O   -0.970930
    20  H    0.211715
 Sum of Mulliken charges =   0.00000

 Dipole moment (field-independent basis, Debye):
    X=             -2.3160    Y=              1.1132    Z=              0.4856  Tot=              2.6151
 Quadrupole moment (field-independent basis, Debye-Ang):
   XX=            -78.1118   YY=            -95.3270   ZZ=           -110.1341
   XY=            -10.3340   XZ=             -0.9109   YZ=              0.6669

 Normal termination of Gaussian 16 at Wed Oct 27 08:22:30 2021.
