 Gaussian 16, Revision C.01,
 Gaussian 16:  ES64L-G16RevC.01  3-Jul-2019

 ----------------------------------
 # opt=modredundant mp2/aug-cc-pvdz
 ----------------------------------

 --------------
 pBTTT_-115.pdb
 --------------
 Symbolic Z-matrix:
 Charge =  0 Multiplicity = 1

 SCF Done:  E(RHF) =  -1649.64184244     A.U. after   17 cycles
 E2 =    -0.1968305414D+01 EUMP2 =    -0.16516101478542D+04
 SCF Done:  E(RHF) =  -1649.63259184     A.U. after   15 cycles
 E2 =    -0.1987750653D+01 EUMP2 =    -0.16516203424950D+04
 SCF Done:  E(RHF) =  -1649.63025457     A.U. after   14 cycles
 E2 =    -0.1990725366D+01 EUMP2 =    -0.16516209799408D+04
 SCF Done:  E(RHF) =  -1649.62965391     A.U. after   13 cycles
 E2 =    -0.1991393393D+01 EUMP2 =    -0.16516210473041D+04
 SCF Done:  E(RHF) =  -1649.62973124     A.U. after   12 cycles
 E2 =    -0.1991322676D+01 EUMP2 =    -0.16516210539123D+04
 SCF Done:  E(RHF) =  -1649.62985620     A.U. after   11 cycles
 E2 =    -0.1991202942D+01 EUMP2 =    -0.16516210591395D+04
 SCF Done:  E(RHF) =  -1649.62990427     A.U. after   11 cycles
 E2 =    -0.1991156065D+01 EUMP2 =    -0.16516210603338D+04
 SCF Done:  E(RHF) =  -1649.62989048     A.U. after   10 cycles
 E2 =    -0.1991170171D+01 EUMP2 =    -0.16516210606494D+04
 SCF Done:  E(RHF) =  -1649.62986536     A.U. after    9 cycles
 E2 =    -0.1991195500D+01 EUMP2 =    -0.16516210608608D+04
 SCF Done:  E(RHF) =  -1649.62985611     A.U. after    9 cycles
 E2 =    -0.1991204901D+01 EUMP2 =    -0.16516210610094D+04
 SCF Done:  E(RHF) =  -1649.62985647     A.U. after    9 cycles
 E2 =    -0.1991204611D+01 EUMP2 =    -0.16516210610851D+04
 SCF Done:  E(RHF) =  -1649.62986351     A.U. after    9 cycles
 E2 =    -0.1991197612D+01 EUMP2 =    -0.16516210611202D+04
 Optimization completed.
    -- Stationary point found.

                         Standard orientation:
 ---------------------------------------------------------------------
 Center     Atomic      Atomic             Coordinates (Angstroms)
 Number     Number       Type             X           Y           Z
 ---------------------------------------------------------------------
      1          6           0        3.933585    0.805185    0.299127
      2          6           0        2.535507    1.039951    0.431947
      3          6           0        1.743505    0.035625   -0.136142
      4          6           0        4.203790   -0.393788   -0.353801
      5          1           0        4.712993    1.476486    0.670052
      6         16           0        2.754387   -1.213035   -0.817255
      7          1           0        5.176657   -0.823121   -0.593660
      8          6           0        0.289936   -0.061594   -0.111829
      9         16           0       -0.496749   -1.390908    0.745170
     10          6           0       -2.072984   -0.741301    0.392266
     11          6           0       -1.964289    0.472283   -0.333527
     12          6           0       -0.626796    0.857826   -0.622188
     13          1           0       -0.312652    1.748823   -1.168979
     14         16           0       -3.541768    1.121420   -0.686864
     15          6           0       -4.316624   -0.219464    0.126456
     16          6           0       -3.417538   -1.138962    0.652343
     17          1           0       -5.406041   -0.252671    0.174942
     18          1           0       -3.725346   -2.035913    1.192624
     19          8           0        1.950229    2.126467    1.044176
     20          1           0        2.650074    2.660475    1.446906
 ---------------------------------------------------------------------

 The electronic state is 1-A.
 Alpha  occ. eigenvalues --  -91.99613 -91.99074 -91.98931 -20.61356 -11.32474
 Alpha  occ. eigenvalues --  -11.29255 -11.28868 -11.28102 -11.27614 -11.27607
 Alpha  occ. eigenvalues --  -11.27484 -11.26369 -11.26160 -11.25959  -8.99742
 Alpha  occ. eigenvalues --   -8.99188  -8.99025  -6.67905  -6.67813  -6.67629
 Alpha  occ. eigenvalues --   -6.67353  -6.67273  -6.67188  -6.67103  -6.67077
 Alpha  occ. eigenvalues --   -6.66904  -1.41410  -1.20136  -1.17567  -1.11562
 Alpha  occ. eigenvalues --   -1.02328  -1.01813  -0.98768  -0.94459  -0.93788
 Alpha  occ. eigenvalues --   -0.82402  -0.80294  -0.76362  -0.73699  -0.71986
 Alpha  occ. eigenvalues --   -0.69314  -0.66268  -0.65822  -0.61041  -0.60263
 Alpha  occ. eigenvalues --   -0.58114  -0.56458  -0.55559  -0.53977  -0.52832
 Alpha  occ. eigenvalues --   -0.52748  -0.50495  -0.49429  -0.48617  -0.45879
 Alpha  occ. eigenvalues --   -0.45608  -0.38563  -0.34970  -0.32872  -0.31653
 Alpha  occ. eigenvalues --   -0.27750
 Alpha virt. eigenvalues --    0.02776   0.03735   0.03923   0.04985   0.05079
 Alpha virt. eigenvalues --    0.06229   0.07112   0.08076   0.08428   0.09036
 Alpha virt. eigenvalues --    0.09646   0.10114   0.10461   0.10919   0.11238

 Mulliken charges:
               1
     1  C    0.570948
     2  C    0.405310
     3  C    0.592534
     4  C   -0.348698
     5  H   -0.408111
     6  S    0.415868
     7  H   -0.313939
     8  C    0.313057
     9  S    0.420199
    10  C   -0.763015
    11  C   -0.080414
    12  C   -0.016798
    13  H   -0.392697
    14  S    0.631861
    15  C   -0.131013
    16  C    0.519755
    17  H   -0.349666
    18  H   -0.291571
    19  O   -0.964445
    20  H    0.190836
 Sum of Mulliken charges =  -0.00000

 Dipole moment (field-independent basis, Debye):
    X=              2.1689    Y=              1.0042    Z=              0.7388  Tot=              2.5017
 Quadrupole moment (field-independent basis, Debye-Ang):
   XX=            -78.1781   YY=            -98.7857   ZZ=           -106.6082
   XY=              9.0991   XZ=              0.8976   YZ=              0.2259

 Normal termination of Gaussian 16 at Wed Oct 27 06:11:20 2021.
