 Gaussian 16, Revision C.01,
 Gaussian 16:  ES64L-G16RevC.01  3-Jul-2019

 ----------------------------------
 # opt=modredundant mp2/aug-cc-pvdz
 ----------------------------------

 ------------
 pBTTT_45.pdb
 ------------
 Symbolic Z-matrix:
 Charge =  0 Multiplicity = 1

 SCF Done:  E(RHF) =  -1649.64215172     A.U. after   17 cycles
 E2 =    -0.1969190791D+01 EUMP2 =    -0.16516113425098D+04
 SCF Done:  E(RHF) =  -1649.63288149     A.U. after   15 cycles
 E2 =    -0.1988642231D+01 EUMP2 =    -0.16516215237219D+04
 SCF Done:  E(RHF) =  -1649.63054890     A.U. after   14 cycles
 E2 =    -0.1991590495D+01 EUMP2 =    -0.16516221393947D+04
 SCF Done:  E(RHF) =  -1649.63001180     A.U. after   13 cycles
 E2 =    -0.1992189994D+01 EUMP2 =    -0.16516222017992D+04
 SCF Done:  E(RHF) =  -1649.63011858     A.U. after   11 cycles
 E2 =    -0.1992089536D+01 EUMP2 =    -0.16516222081189D+04
 SCF Done:  E(RHF) =  -1649.63020588     A.U. after   12 cycles
 E2 =    -0.1992004879D+01 EUMP2 =    -0.16516222107567D+04
 SCF Done:  E(RHF) =  -1649.63023187     A.U. after   10 cycles
 E2 =    -0.1991979996D+01 EUMP2 =    -0.16516222118616D+04
 SCF Done:  E(RHF) =  -1649.63022853     A.U. after   10 cycles
 E2 =    -0.1991983894D+01 EUMP2 =    -0.16516222124260D+04
 SCF Done:  E(RHF) =  -1649.63019436     A.U. after    9 cycles
 E2 =    -0.1992018486D+01 EUMP2 =    -0.16516222128463D+04
 SCF Done:  E(RHF) =  -1649.63017006     A.U. after    9 cycles
 E2 =    -0.1992043274D+01 EUMP2 =    -0.16516222133330D+04
 SCF Done:  E(RHF) =  -1649.63017537     A.U. after    9 cycles
 E2 =    -0.1992038173D+01 EUMP2 =    -0.16516222135391D+04
 SCF Done:  E(RHF) =  -1649.63019444     A.U. after    9 cycles
 E2 =    -0.1992019190D+01 EUMP2 =    -0.16516222136293D+04
 Optimization completed.
    -- Stationary point found.

                         Standard orientation:
 ---------------------------------------------------------------------
 Center     Atomic      Atomic             Coordinates (Angstroms)
 Number     Number       Type             X           Y           Z
 ---------------------------------------------------------------------
      1          6           0        4.034421    0.351100    0.288321
      2          6           0        2.697487    0.830399    0.376280
      3          6           0        1.736475   -0.110687   -0.014437
      4          6           0        4.092464   -0.963993   -0.162759
      5          1           0        4.920008    0.936795    0.549846
      6         16           0        2.517338   -1.595396   -0.496407
      7          1           0        4.976092   -1.581114   -0.325557
      8          6           0        0.287792   -0.006136    0.019318
      9         16           0       -0.517886    1.458105   -0.550722
     10          6           0       -2.085071    0.742548   -0.298557
     11          6           0       -1.963350   -0.581792    0.192280
     12          6           0       -0.620974   -1.008639    0.374925
     13          1           0       -0.300293   -1.978806    0.760978
     14         16           0       -3.533728   -1.283263    0.470711
     15          6           0       -4.323620    0.183982   -0.062759
     16          6           0       -3.433977    1.183046   -0.438510
     17          1           0       -5.413801    0.224920   -0.075764
     18          1           0       -3.751939    2.163638   -0.797198
     19          8           0        2.310757    2.083800    0.800116
     20          1           0        3.102415    2.574055    1.064835
 ---------------------------------------------------------------------

 The electronic state is 1-A.
 Alpha  occ. eigenvalues --  -91.99757 -91.98996 -91.98769 -20.61498 -11.32531
 Alpha  occ. eigenvalues --  -11.29307 -11.29233 -11.27981 -11.27903 -11.27499
 Alpha  occ. eigenvalues --  -11.27358 -11.26521 -11.26068 -11.25925  -8.99890
 Alpha  occ. eigenvalues --   -8.99109  -8.98861  -6.68054  -6.67962  -6.67776
 Alpha  occ. eigenvalues --   -6.67275  -6.67195  -6.67021  -6.66998  -6.66936
 Alpha  occ. eigenvalues --   -6.66736  -1.41568  -1.20132  -1.17677  -1.11566
 Alpha  occ. eigenvalues --   -1.02385  -1.01873  -0.98890  -0.94429  -0.93791
 Alpha  occ. eigenvalues --   -0.82530  -0.80584  -0.76363  -0.73999  -0.71324
 Alpha  occ. eigenvalues --   -0.69564  -0.66456  -0.65803  -0.60935  -0.60422
 Alpha  occ. eigenvalues --   -0.58571  -0.56565  -0.55484  -0.54089  -0.52752
 Alpha  occ. eigenvalues --   -0.52470  -0.50888  -0.49587  -0.48289  -0.45875
 Alpha  occ. eigenvalues --   -0.45640  -0.38734  -0.35288  -0.33621  -0.31625
 Alpha  occ. eigenvalues --   -0.26714
 Alpha virt. eigenvalues --    0.02782   0.03733   0.03939   0.04968   0.05114
 Alpha virt. eigenvalues --    0.06166   0.06253   0.08449   0.08622   0.09235
 Alpha virt. eigenvalues --    0.10290   0.10453   0.10512   0.10722   0.11179

 Mulliken charges:
               1
     1  C    0.454505
     2  C    0.490465
     3  C    0.692715
     4  C   -0.269648
     5  H   -0.416991
     6  S    0.433479
     7  H   -0.320375
     8  C    0.164222
     9  S    0.467011
    10  C   -0.543233
    11  C   -0.202649
    12  C    0.129501
    13  H   -0.449371
    14  S    0.589728
    15  C   -0.164503
    16  C    0.352288
    17  H   -0.350382
    18  H   -0.289766
    19  O   -0.964381
    20  H    0.197388
 Sum of Mulliken charges =   0.00000

 Dipole moment (field-independent basis, Debye):
    X=              2.5030    Y=              0.8240    Z=              0.4974  Tot=              2.6816
 Quadrupole moment (field-independent basis, Debye-Ang):
   XX=            -76.4953   YY=            -97.4873   ZZ=           -109.2301
   XY=              0.4553   XZ=              4.3583   YZ=              0.0275

 Normal termination of Gaussian 16 at Wed Oct 27 07:37:26 2021.
