 Gaussian 16, Revision C.01,
 Gaussian 16:  ES64L-G16RevC.01  3-Jul-2019

 ----------------------------------
 # opt=modredundant mp2/aug-cc-pvdz
 ----------------------------------

 ------------
 pBTTT_15.pdb
 ------------
 Symbolic Z-matrix:
 Charge =  0 Multiplicity = 1

 SCF Done:  E(RHF) =  -1649.64257177     A.U. after   17 cycles
 E2 =    -0.1969873060D+01 EUMP2 =    -0.16516124448256D+04
 SCF Done:  E(RHF) =  -1649.63323152     A.U. after   15 cycles
 E2 =    -0.1989558565D+01 EUMP2 =    -0.16516227900857D+04
 SCF Done:  E(RHF) =  -1649.63089932     A.U. after   14 cycles
 E2 =    -0.1992484627D+01 EUMP2 =    -0.16516233839513D+04
 SCF Done:  E(RHF) =  -1649.63043918     A.U. after   13 cycles
 E2 =    -0.1992992380D+01 EUMP2 =    -0.16516234315587D+04
 SCF Done:  E(RHF) =  -1649.63055961     A.U. after   12 cycles
 E2 =    -0.1992875235D+01 EUMP2 =    -0.16516234348485D+04
 SCF Done:  E(RHF) =  -1649.63062759     A.U. after   11 cycles
 E2 =    -0.1992808677D+01 EUMP2 =    -0.16516234362635D+04
 SCF Done:  E(RHF) =  -1649.63063577     A.U. after    9 cycles
 E2 =    -0.1992800716D+01 EUMP2 =    -0.16516234364894D+04
 SCF Done:  E(RHF) =  -1649.63063654     A.U. after    9 cycles
 E2 =    -0.1992800069D+01 EUMP2 =    -0.16516234366122D+04
 SCF Done:  E(RHF) =  -1649.63062474     A.U. after    8 cycles
 E2 =    -0.1992811952D+01 EUMP2 =    -0.16516234366921D+04
 SCF Done:  E(RHF) =  -1649.63061176     A.U. after    9 cycles
 E2 =    -0.1992825033D+01 EUMP2 =    -0.16516234367959D+04
 SCF Done:  E(RHF) =  -1649.63061392     A.U. after    8 cycles
 E2 =    -0.1992822930D+01 EUMP2 =    -0.16516234368505D+04
 Optimization completed.
    -- Stationary point found.

                         Standard orientation:
 ---------------------------------------------------------------------
 Center     Atomic      Atomic             Coordinates (Angstroms)
 Number     Number       Type             X           Y           Z
 ---------------------------------------------------------------------
      1          6           0        4.040607    0.384542    0.089753
      2          6           0        2.702186    0.867121    0.121948
      3          6           0        1.732638   -0.137845    0.000289
      4          6           0        4.096229   -0.996114   -0.057163
      5          1           0        4.927863    1.018156    0.171561
      6         16           0        2.514572   -1.692646   -0.166298
      7          1           0        4.977708   -1.634593   -0.113502
      8          6           0        0.287703   -0.029333    0.022645
      9         16           0       -0.509215    1.539861   -0.169317
     10          6           0       -2.079842    0.791436   -0.103429
     11          6           0       -1.970568   -0.611514    0.061090
     12          6           0       -0.633287   -1.079168    0.135768
     13          1           0       -0.330360   -2.120079    0.272481
     14         16           0       -3.547416   -1.347986    0.151526
     15          6           0       -4.324175    0.210140   -0.028956
     16          6           0       -3.424658    1.262414   -0.151199
     17          1           0       -5.413950    0.261711   -0.039041
     18          1           0       -3.733628    2.302348   -0.271956
     19          8           0        2.320816    2.185622    0.255843
     20          1           0        3.117789    2.729745    0.334665
 ---------------------------------------------------------------------

 The electronic state is 1-A.
 Alpha  occ. eigenvalues --  -91.99772 -91.98883 -91.98755 -20.61834 -11.32689
 Alpha  occ. eigenvalues --  -11.29469 -11.29464 -11.28252 -11.27811 -11.27430
 Alpha  occ. eigenvalues --  -11.27089 -11.26692 -11.25967 -11.25735  -8.99928
 Alpha  occ. eigenvalues --   -8.98995  -8.98826  -6.68098  -6.68005  -6.67815
 Alpha  occ. eigenvalues --   -6.67162  -6.67082  -6.66982  -6.66897  -6.66885
 Alpha  occ. eigenvalues --   -6.66695  -1.41918  -1.20076  -1.17771  -1.11514
 Alpha  occ. eigenvalues --   -1.02452  -1.01916  -0.99018  -0.94354  -0.93767
 Alpha  occ. eigenvalues --   -0.82667  -0.80885  -0.76345  -0.74199  -0.71018
 Alpha  occ. eigenvalues --   -0.69785  -0.66810  -0.65637  -0.61035  -0.60775
 Alpha  occ. eigenvalues --   -0.58693  -0.56545  -0.55447  -0.54303  -0.52686
 Alpha  occ. eigenvalues --   -0.52100  -0.51285  -0.49719  -0.47908  -0.46235
 Alpha  occ. eigenvalues --   -0.45367  -0.39004  -0.35578  -0.34169  -0.31613
 Alpha  occ. eigenvalues --   -0.25839
 Alpha virt. eigenvalues --    0.02712   0.03694   0.03905   0.04969   0.05118
 Alpha virt. eigenvalues --    0.05514   0.06248   0.08495   0.09282   0.09532
 Alpha virt. eigenvalues --    0.10354   0.10683   0.10700   0.11017   0.11317

 Mulliken charges:
               1
     1  C    0.625947
     2  C    0.158910
     3  C    0.936595
     4  C   -0.355983
     5  H   -0.421651
     6  S    0.503912
     7  H   -0.354126
     8  C    0.142129
     9  S    0.484382
    10  C   -0.526702
    11  C   -0.072977
    12  C    0.179428
    13  H   -0.475904
    14  S    0.518632
    15  C   -0.207700
    16  C    0.283298
    17  H   -0.357904
    18  H   -0.301232
    19  O   -0.974407
    20  H    0.215353
 Sum of Mulliken charges =  -0.00000

 Dipole moment (field-independent basis, Debye):
    X=              2.7593    Y=              1.0426    Z=              0.1518  Tot=              2.9536
 Quadrupole moment (field-independent basis, Debye-Ang):
   XX=            -76.4212   YY=            -95.4462   ZZ=           -111.3293
   XY=              1.0023   XZ=              1.4017   YZ=             -0.0239

 Normal termination of Gaussian 16 at Wed Oct 27 06:13:32 2021.
