 Gaussian 16, Revision C.01,
 Gaussian 16:  ES64L-G16RevC.01  3-Jul-2019

 ----------------------------------
 # opt=modredundant mp2/aug-cc-pvdz
 ----------------------------------

 -------------
 pBTTT_-70.pdb
 -------------
 Symbolic Z-matrix:
 Charge =  0 Multiplicity = 1

 SCF Done:  E(RHF) =  -1649.64167640     A.U. after   17 cycles
 E2 =    -0.1968054171D+01 EUMP2 =    -0.16516097305681D+04
 SCF Done:  E(RHF) =  -1649.63243723     A.U. after   14 cycles
 E2 =    -0.1987554626D+01 EUMP2 =    -0.16516199918546D+04
 SCF Done:  E(RHF) =  -1649.63013014     A.U. after   13 cycles
 E2 =    -0.1990466589D+01 EUMP2 =    -0.16516205967304D+04
 SCF Done:  E(RHF) =  -1649.62961580     A.U. after   13 cycles
 E2 =    -0.1991038732D+01 EUMP2 =    -0.16516206545325D+04
 SCF Done:  E(RHF) =  -1649.62973942     A.U. after   12 cycles
 E2 =    -0.1990920545D+01 EUMP2 =    -0.16516206599621D+04
 SCF Done:  E(RHF) =  -1649.62982254     A.U. after   11 cycles
 E2 =    -0.1990839196D+01 EUMP2 =    -0.16516206617359D+04
 SCF Done:  E(RHF) =  -1649.62983721     A.U. after   11 cycles
 E2 =    -0.1990825354D+01 EUMP2 =    -0.16516206625677D+04
 SCF Done:  E(RHF) =  -1649.62983006     A.U. after   11 cycles
 E2 =    -0.1990833094D+01 EUMP2 =    -0.16516206631524D+04
 SCF Done:  E(RHF) =  -1649.62979710     A.U. after   10 cycles
 E2 =    -0.1990866410D+01 EUMP2 =    -0.16516206635089D+04
 SCF Done:  E(RHF) =  -1649.62978049     A.U. after    9 cycles
 E2 =    -0.1990883302D+01 EUMP2 =    -0.16516206637947D+04
 SCF Done:  E(RHF) =  -1649.62978647     A.U. after    8 cycles
 E2 =    -0.1990877450D+01 EUMP2 =    -0.16516206639188D+04
 SCF Done:  E(RHF) =  -1649.62979844     A.U. after    9 cycles
 E2 =    -0.1990865542D+01 EUMP2 =    -0.16516206639847D+04
 Optimization completed.
    -- Stationary point found.

                         Standard orientation:
 ---------------------------------------------------------------------
 Center     Atomic      Atomic             Coordinates (Angstroms)
 Number     Number       Type             X           Y           Z
 ---------------------------------------------------------------------
      1          6           0       -4.009343    0.357420    0.472771
      2          6           0       -2.651648    0.761915    0.616383
      3          6           0       -1.742937   -0.100330   -0.006584
      4          6           0       -4.130279   -0.823431   -0.254210
      5          1           0       -4.864310    0.897083    0.889329
      6         16           0       -2.591873   -1.420717   -0.766346
      7          1           0       -5.042412   -1.361411   -0.513129
      8          6           0       -0.286351   -0.017970   -0.011762
      9         16           0        0.521702    1.268942   -0.907287
     10          6           0        2.088064    0.646878   -0.473256
     11          6           0        1.962227   -0.524913    0.315883
     12          6           0        0.617405   -0.904219    0.577510
     13          1           0        0.289341   -1.760864    1.169829
     14         16           0        3.530237   -1.143079    0.756554
     15          6           0        4.324621    0.155084   -0.105893
     16          6           0        3.439025    1.037555   -0.711525
     17          1           0        5.414870    0.193075   -0.120067
     18          1           0        3.760366    1.905177   -1.290405
     19          8           0       -2.201939    1.872769    1.294674
     20          1           0       -2.968108    2.334525    1.664395
 ---------------------------------------------------------------------

 The electronic state is 1-A.
 Alpha  occ. eigenvalues --  -91.99652 -91.99077 -91.98799 -20.61293 -11.32445
 Alpha  occ. eigenvalues --  -11.29227 -11.28962 -11.28123 -11.27588 -11.27551
 Alpha  occ. eigenvalues --  -11.27458 -11.26348 -11.26139 -11.26108  -8.99770
 Alpha  occ. eigenvalues --   -8.99191  -8.98893  -6.67931  -6.67839  -6.67656
 Alpha  occ. eigenvalues --   -6.67357  -6.67277  -6.67080  -6.67054  -6.66969
 Alpha  occ. eigenvalues --   -6.66771  -1.41375  -1.20135  -1.17553  -1.11570
 Alpha  occ. eigenvalues --   -1.02323  -1.01777  -0.98738  -0.94484  -0.93808
 Alpha  occ. eigenvalues --   -0.82372  -0.80320  -0.76377  -0.73830  -0.71654
 Alpha  occ. eigenvalues --   -0.69391  -0.66297  -0.65839  -0.60885  -0.60199
 Alpha  occ. eigenvalues --   -0.58322  -0.56607  -0.55543  -0.53884  -0.52856
 Alpha  occ. eigenvalues --   -0.52716  -0.50613  -0.49345  -0.48606  -0.45810
 Alpha  occ. eigenvalues --   -0.45484  -0.38532  -0.34941  -0.32457  -0.31671
 Alpha  occ. eigenvalues --   -0.28111
 Alpha virt. eigenvalues --    0.02809   0.03727   0.03968   0.04911   0.05096
 Alpha virt. eigenvalues --    0.06226   0.07203   0.08161   0.08490   0.08922
 Alpha virt. eigenvalues --    0.09534   0.10271   0.10415   0.10730   0.11218

 Mulliken charges:
               1
     1  C    0.494172
     2  C    0.601325
     3  C    0.384060
     4  C   -0.262988
     5  H   -0.410152
     6  S    0.381537
     7  H   -0.310086
     8  C    0.400475
     9  S    0.427794
    10  C   -0.697712
    11  C   -0.200645
    12  C    0.034615
    13  H   -0.419276
    14  S    0.637101
    15  C   -0.136676
    16  C    0.509800
    17  H   -0.349526
    18  H   -0.290814
    19  O   -0.984464
    20  H    0.191459
 Sum of Mulliken charges =  -0.00000

 Dipole moment (field-independent basis, Debye):
    X=             -2.2798    Y=              0.7047    Z=              0.6870  Tot=              2.4831
 Quadrupole moment (field-independent basis, Debye-Ang):
   XX=            -76.8788   YY=           -100.2280   ZZ=           -106.0908
   XY=             -0.3892   XZ=             -6.4542   YZ=             -0.1334

 Normal termination of Gaussian 16 at Wed Oct 27 06:02:07 2021.
