 Gaussian 16, Revision C.01,
 Gaussian 16:  ES64L-G16RevC.01  3-Jul-2019

 ----------------------------------
 # opt=modredundant mp2/aug-cc-pvdz
 ----------------------------------

 -------------
 pBTTT_-10.pdb
 -------------
 Symbolic Z-matrix:
 Charge =  0 Multiplicity = 1

 SCF Done:  E(RHF) =  -1649.64261379     A.U. after   17 cycles
 E2 =    -0.1970074673D+01 EUMP2 =    -0.16516126884604D+04
 SCF Done:  E(RHF) =  -1649.63323693     A.U. after   15 cycles
 E2 =    -0.1989653468D+01 EUMP2 =    -0.16516228903929D+04
 SCF Done:  E(RHF) =  -1649.63093691     A.U. after   14 cycles
 E2 =    -0.1992531928D+01 EUMP2 =    -0.16516234688406D+04
 SCF Done:  E(RHF) =  -1649.63049373     A.U. after   13 cycles
 E2 =    -0.1993020593D+01 EUMP2 =    -0.16516235143264D+04
 SCF Done:  E(RHF) =  -1649.63062003     A.U. after   12 cycles
 E2 =    -0.1992897276D+01 EUMP2 =    -0.16516235173104D+04
 SCF Done:  E(RHF) =  -1649.63068278     A.U. after   11 cycles
 E2 =    -0.1992835281D+01 EUMP2 =    -0.16516235180627D+04
 Optimization completed.
    -- Stationary point found.

                         Standard orientation:
 ---------------------------------------------------------------------
 Center     Atomic      Atomic             Coordinates (Angstroms)
 Number     Number       Type             X           Y           Z
 ---------------------------------------------------------------------
      1          6           0       -4.040888    0.388457    0.059297
      2          6           0       -2.701745    0.869768    0.081635
      3          6           0       -1.732613   -0.139807    0.000894
      4          6           0       -4.098211   -0.996110   -0.039617
      5          1           0       -4.927297    1.026087    0.113541
      6         16           0       -2.516882   -1.698739   -0.110802
      7          1           0       -4.980089   -1.635251   -0.077969
      8          6           0       -0.287665   -0.031924    0.016252
      9         16           0        0.509276    1.544378   -0.112597
     10          6           0        2.080062    0.794810   -0.068978
     11          6           0        1.971294   -0.613435    0.041125
     12          6           0        0.634241   -1.084397    0.091725
     13          1           0        0.332496   -2.130536    0.183760
     14         16           0        3.548456   -1.352426    0.100716
     15          6           0        4.324736    0.211676   -0.020385
     16          6           0        3.424767    1.267457   -0.101469
     17          1           0        5.414444    0.263958   -0.027432
     18          1           0        3.733541    2.311279   -0.182299
     19          8           0       -2.319330    2.191736    0.171956
     20          1           0       -3.115932    2.740198    0.214809
 ---------------------------------------------------------------------

 The electronic state is 1-A.
 Alpha  occ. eigenvalues --  -91.99769 -91.98872 -91.98756 -20.61863 -11.32709
 Alpha  occ. eigenvalues --  -11.29488 -11.29486 -11.28288 -11.27794 -11.27425
 Alpha  occ. eigenvalues --  -11.27061 -11.26706 -11.25957 -11.25719  -8.99928
 Alpha  occ. eigenvalues --   -8.98984  -8.98824  -6.68098  -6.68006  -6.67815
 Alpha  occ. eigenvalues --   -6.67151  -6.67071  -6.66980  -6.66894  -6.66874
 Alpha  occ. eigenvalues --   -6.66692  -1.41953  -1.20070  -1.17781  -1.11511
 Alpha  occ. eigenvalues --   -1.02460  -1.01917  -0.99027  -0.94349  -0.93769
 Alpha  occ. eigenvalues --   -0.82680  -0.80914  -0.76343  -0.74218  -0.70997
 Alpha  occ. eigenvalues --   -0.69809  -0.66848  -0.65621  -0.61048  -0.60810
 Alpha  occ. eigenvalues --   -0.58701  -0.56552  -0.55444  -0.54323  -0.52684
 Alpha  occ. eigenvalues --   -0.52058  -0.51335  -0.49721  -0.47869  -0.46269
 Alpha  occ. eigenvalues --   -0.45331  -0.39032  -0.35599  -0.34204  -0.31614
 Alpha  occ. eigenvalues --   -0.25782
 Alpha virt. eigenvalues --    0.02705   0.03689   0.03899   0.04969   0.05116
 Alpha virt. eigenvalues --    0.05469   0.06247   0.08493   0.09385   0.09540
 Alpha virt. eigenvalues --    0.10356   0.10699   0.10741   0.11073   0.11344

 Mulliken charges:
               1
     1  C    0.668622
     2  C    0.106970
     3  C    0.945665
     4  C   -0.361861
     5  H   -0.422271
     6  S    0.528760
     7  H   -0.359282
     8  C    0.135955
     9  S    0.473307
    10  C   -0.520616
    11  C   -0.049921
    12  C    0.178048
    13  H   -0.478440
    14  S    0.508080
    15  C   -0.214601
    16  C    0.286237
    17  H   -0.359589
    18  H   -0.303339
    19  O   -0.979322
    20  H    0.217599
 Sum of Mulliken charges =  -0.00000

 Dipole moment (field-independent basis, Debye):
    X=             -2.7827    Y=              1.0607    Z=              0.0854  Tot=              2.9792
 Quadrupole moment (field-independent basis, Debye-Ang):
   XX=            -76.4054   YY=            -95.2986   ZZ=           -111.4826
   XY=             -1.0449   XZ=             -0.8806   YZ=             -0.0678

 Normal termination of Gaussian 16 at Wed Oct 27 05:45:18 2021.
