 Gaussian 16, Revision C.01,
 Gaussian 16:  ES64L-G16RevC.01  3-Jul-2019

 ----------------------------------
 # opt=modredundant mp2/aug-cc-pvdz
 ----------------------------------

 ------------
 pBTTT_80.pdb
 ------------
 Symbolic Z-matrix:
 Charge =  0 Multiplicity = 1

 SCF Done:  E(RHF) =  -1649.64150980     A.U. after   17 cycles
 E2 =    -0.1967867925D+01 EUMP2 =    -0.16516093777266D+04
 SCF Done:  E(RHF) =  -1649.63223718     A.U. after   14 cycles
 E2 =    -0.1987325386D+01 EUMP2 =    -0.16516195625657D+04
 SCF Done:  E(RHF) =  -1649.62995838     A.U. after   13 cycles
 E2 =    -0.1990193249D+01 EUMP2 =    -0.16516201516253D+04
 SCF Done:  E(RHF) =  -1649.62946161     A.U. after   13 cycles
 E2 =    -0.1990743683D+01 EUMP2 =    -0.16516202052907D+04
 SCF Done:  E(RHF) =  -1649.62959182     A.U. after   11 cycles
 E2 =    -0.1990617415D+01 EUMP2 =    -0.16516202092370D+04
 SCF Done:  E(RHF) =  -1649.62966711     A.U. after   10 cycles
 E2 =    -0.1990543133D+01 EUMP2 =    -0.16516202102421D+04
 Optimization completed.
    -- Stationary point found.

                         Standard orientation:
 ---------------------------------------------------------------------
 Center     Atomic      Atomic             Coordinates (Angstroms)
 Number     Number       Type             X           Y           Z
 ---------------------------------------------------------------------
      1          6           0        3.991008    0.376608    0.551529
      2          6           0        2.619576    0.726508    0.710228
      3          6           0        1.744974   -0.108153    0.007227
      4          6           0        4.155908   -0.731452   -0.274514
      5          1           0        4.824776    0.903479    1.023502
      6         16           0        2.642612   -1.330229   -0.853883
      7          1           0        5.087016   -1.218306   -0.565118
      8          6           0        0.285981   -0.041170   -0.026759
      9         16           0       -0.516945    1.134017   -1.068180
     10          6           0       -2.085857    0.580511   -0.558451
     11          6           0       -1.964275   -0.482729    0.372724
     12          6           0       -0.620744   -0.837141    0.673991
     13          1           0       -0.294834   -1.617125    1.365006
     14         16           0       -3.534627   -1.036105    0.885007
     15          6           0       -4.324311    0.143818   -0.136549
     16          6           0       -3.435718    0.939530   -0.848279
     17          1           0       -5.414348    0.184257   -0.155209
     18          1           0       -3.754370    1.727438   -1.532878
     19          8           0        2.127463    1.762985    1.471096
     20          1           0        2.876151    2.235483    1.861973
 ---------------------------------------------------------------------

 The electronic state is 1-A.
 Alpha  occ. eigenvalues --  -91.99596 -91.99095 -91.98816 -20.61254 -11.32426
 Alpha  occ. eigenvalues --  -11.29214 -11.28866 -11.28160 -11.27625 -11.27467
 Alpha  occ. eigenvalues --  -11.27449 -11.26293 -11.26156 -11.26148  -8.99713
 Alpha  occ. eigenvalues --   -8.99210  -8.98909  -6.67874  -6.67782  -6.67599
 Alpha  occ. eigenvalues --   -6.67376  -6.67296  -6.67099  -6.67070  -6.66984
 Alpha  occ. eigenvalues --   -6.66788  -1.41343  -1.20131  -1.17513  -1.11567
 Alpha  occ. eigenvalues --   -1.02310  -1.01741  -0.98692  -0.94495  -0.93812
 Alpha  occ. eigenvalues --   -0.82326  -0.80243  -0.76380  -0.73766  -0.71776
 Alpha  occ. eigenvalues --   -0.69344  -0.66290  -0.65820  -0.60891  -0.60156
 Alpha  occ. eigenvalues --   -0.58209  -0.56610  -0.55573  -0.53818  -0.52965
 Alpha  occ. eigenvalues --   -0.52724  -0.50535  -0.49269  -0.48680  -0.45832
 Alpha  occ. eigenvalues --   -0.45405  -0.38488  -0.34846  -0.31850  -0.31716
 Alpha  occ. eigenvalues --   -0.28720
 Alpha virt. eigenvalues --    0.02808   0.03715   0.03972   0.04891   0.05087
 Alpha virt. eigenvalues --    0.06218   0.07653   0.08053   0.08445   0.08866
 Alpha virt. eigenvalues --    0.09112   0.10218   0.10382   0.10759   0.11358

 Mulliken charges:
               1
     1  C    0.574832
     2  C    0.527758
     3  C    0.320528
     4  C   -0.307135
     5  H   -0.407731
     6  S    0.370486
     7  H   -0.304894
     8  C    0.563649
     9  S    0.415924
    10  C   -0.749287
    11  C   -0.217328
    12  C   -0.046599
    13  H   -0.402229
    14  S    0.653838
    15  C   -0.134024
    16  C    0.580968
    17  H   -0.350402
    18  H   -0.293978
    19  O   -0.983306
    20  H    0.188929
 Sum of Mulliken charges =   0.00000

 Dipole moment (field-independent basis, Debye):
    X=              2.2030    Y=              0.7351    Z=              0.7357  Tot=              2.4361
 Quadrupole moment (field-independent basis, Debye-Ang):
   XX=            -77.1836   YY=           -101.5450   ZZ=           -104.5088
   XY=              0.7105   XZ=              7.1537   YZ=             -0.1545

 Normal termination of Gaussian 16 at Wed Oct 27 06:49:03 2021.
