 Gaussian 16, Revision C.01,
 Gaussian 16:  ES64L-G16RevC.01  3-Jul-2019

 ----------------------------------
 # opt=modredundant mp2/aug-cc-pvdz
 ----------------------------------

 --------------
 pBTTT_-165.pdb
 --------------
 Symbolic Z-matrix:
 Charge =  0 Multiplicity = 1

 SCF Done:  E(RHF) =  -1649.64245075     A.U. after   17 cycles
 E2 =    -0.1970413283D+01 EUMP2 =    -0.16516128640298D+04
 SCF Done:  E(RHF) =  -1649.63319041     A.U. after   15 cycles
 E2 =    -0.1989779369D+01 EUMP2 =    -0.16516229697792D+04
 SCF Done:  E(RHF) =  -1649.63098917     A.U. after   15 cycles
 E2 =    -0.1992552957D+01 EUMP2 =    -0.16516235421292D+04
 SCF Done:  E(RHF) =  -1649.63052337     A.U. after   14 cycles
 E2 =    -0.1993063539D+01 EUMP2 =    -0.16516235869125D+04
 SCF Done:  E(RHF) =  -1649.63062457     A.U. after   11 cycles
 E2 =    -0.1992966151D+01 EUMP2 =    -0.16516235907252D+04
 SCF Done:  E(RHF) =  -1649.63071038     A.U. after   11 cycles
 E2 =    -0.1992883247D+01 EUMP2 =    -0.16516235936234D+04
 SCF Done:  E(RHF) =  -1649.63074658     A.U. after   11 cycles
 E2 =    -0.1992847812D+01 EUMP2 =    -0.16516235943886D+04
 SCF Done:  E(RHF) =  -1649.63076113     A.U. after   11 cycles
 E2 =    -0.1992833718D+01 EUMP2 =    -0.16516235948525D+04
 SCF Done:  E(RHF) =  -1649.63072191     A.U. after    9 cycles
 E2 =    -0.1992873359D+01 EUMP2 =    -0.16516235952667D+04
 SCF Done:  E(RHF) =  -1649.63071386     A.U. after    8 cycles
 E2 =    -0.1992881491D+01 EUMP2 =    -0.16516235953555D+04
 Optimization completed.
    -- Stationary point found.

                         Standard orientation:
 ---------------------------------------------------------------------
 Center     Atomic      Atomic             Coordinates (Angstroms)
 Number     Number       Type             X           Y           Z
 ---------------------------------------------------------------------
      1          6           0        3.945233    0.888294    0.065322
      2          6           0        2.552206    1.171620    0.107515
      3          6           0        1.739503    0.035452   -0.023976
      4          6           0        4.201591   -0.468667   -0.098044
      5          1           0        4.731625    1.642995    0.152446
      6         16           0        2.738291   -1.385048   -0.215500
      7          1           0        5.166372   -0.971141   -0.164156
      8          6           0        0.291545   -0.035582   -0.010283
      9         16           0       -0.513755   -1.597242    0.203118
     10          6           0       -2.084073   -0.850197    0.094535
     11          6           0       -1.961016    0.550149   -0.079350
     12          6           0       -0.620786    1.018142   -0.141394
     13          1           0       -0.304915    2.052304   -0.278931
     14         16           0       -3.532916    1.295964   -0.174329
     15          6           0       -4.321848   -0.253522    0.016763
     16          6           0       -3.430483   -1.312131    0.150392
     17          1           0       -5.411934   -0.298080    0.019608
     18          1           0       -3.746821   -2.348759    0.278985
     19          8           0        1.990400    2.422969    0.260229
     20          1           0        2.705314    3.058795    0.408707
 ---------------------------------------------------------------------

 The electronic state is 1-A.
 Alpha  occ. eigenvalues --  -91.99777 -91.99004 -91.98984 -20.61942 -11.32568
 Alpha  occ. eigenvalues --  -11.29329 -11.29313 -11.28254 -11.27937 -11.27565
 Alpha  occ. eigenvalues --  -11.27427 -11.26625 -11.26132 -11.25499  -8.99933
 Alpha  occ. eigenvalues --   -8.99116  -8.99115  -6.68100  -6.68009  -6.67819
 Alpha  occ. eigenvalues --   -6.67284  -6.67281  -6.67202  -6.67201  -6.67006
 Alpha  occ. eigenvalues --   -6.66996  -1.41920  -1.20183  -1.17765  -1.11590
 Alpha  occ. eigenvalues --   -1.02412  -1.02034  -0.99006  -0.94414  -0.93804
 Alpha  occ. eigenvalues --   -0.82670  -0.80740  -0.76332  -0.73977  -0.71951
 Alpha  occ. eigenvalues --   -0.69699  -0.66508  -0.65522  -0.61239  -0.60739
 Alpha  occ. eigenvalues --   -0.58431  -0.56326  -0.55598  -0.54364  -0.53070
 Alpha  occ. eigenvalues --   -0.51770  -0.51140  -0.50001  -0.48189  -0.46293
 Alpha  occ. eigenvalues --   -0.45624  -0.39063  -0.35617  -0.34078  -0.31824
 Alpha  occ. eigenvalues --   -0.25892
 Alpha virt. eigenvalues --    0.02661   0.03729   0.03833   0.05083   0.05109
 Alpha virt. eigenvalues --    0.05508   0.06806   0.08233   0.08805   0.09582
 Alpha virt. eigenvalues --    0.10424   0.10514   0.10863   0.10940   0.11548

 Mulliken charges:
               1
     1  C    0.580884
     2  C    0.304573
     3  C    0.688148
     4  C   -0.362454
     5  H   -0.440055
     6  S    0.498526
     7  H   -0.343261
     8  C    0.104414
     9  S    0.488476
    10  C   -0.602263
    11  C    0.073229
    12  C    0.222072
    13  H   -0.434898
    14  S    0.510112
    15  C   -0.210689
    16  C    0.347426
    17  H   -0.354214
    18  H   -0.292952
    19  O   -1.004592
    20  H    0.227519
 Sum of Mulliken charges =  -0.00000

 Dipole moment (field-independent basis, Debye):
    X=              2.3799    Y=              1.1719    Z=              0.2287  Tot=              2.6626
 Quadrupole moment (field-independent basis, Debye-Ang):
   XX=            -77.8797   YY=            -94.3259   ZZ=           -111.1792
   XY=             10.7717   XZ=              0.4595   YZ=              0.4096

 Normal termination of Gaussian 16 at Wed Oct 27 05:10:06 2021.
