 Gaussian 16, Revision C.01,
 Gaussian 16:  ES64L-G16RevC.01  3-Jul-2019

 ----------------------------------
 # opt=modredundant mp2/aug-cc-pvdz
 ----------------------------------

 -------------
 pBTTT_-40.pdb
 -------------
 Symbolic Z-matrix:
 Charge =  0 Multiplicity = 1

 SCF Done:  E(RHF) =  -1649.64223658     A.U. after   17 cycles
 E2 =    -0.1969453087D+01 EUMP2 =    -0.16516116896700D+04
 SCF Done:  E(RHF) =  -1649.63293819     A.U. after   15 cycles
 E2 =    -0.1988890525D+01 EUMP2 =    -0.16516218287127D+04
 SCF Done:  E(RHF) =  -1649.63062235     A.U. after   14 cycles
 E2 =    -0.1991810238D+01 EUMP2 =    -0.16516224325929D+04
 SCF Done:  E(RHF) =  -1649.63008629     A.U. after   13 cycles
 E2 =    -0.1992406868D+01 EUMP2 =    -0.16516224931535D+04
 SCF Done:  E(RHF) =  -1649.63019319     A.U. after   12 cycles
 E2 =    -0.1992305599D+01 EUMP2 =    -0.16516224987934D+04
 SCF Done:  E(RHF) =  -1649.63027796     A.U. after   12 cycles
 E2 =    -0.1992223364D+01 EUMP2 =    -0.16516225013271D+04
 SCF Done:  E(RHF) =  -1649.63030406     A.U. after   10 cycles
 E2 =    -0.1992198241D+01 EUMP2 =    -0.16516225022996D+04
 SCF Done:  E(RHF) =  -1649.63029940     A.U. after   10 cycles
 E2 =    -0.1992203477D+01 EUMP2 =    -0.16516225028741D+04
 SCF Done:  E(RHF) =  -1649.63027117     A.U. after    9 cycles
 E2 =    -0.1992232120D+01 EUMP2 =    -0.16516225032929D+04
 SCF Done:  E(RHF) =  -1649.63025224     A.U. after    9 cycles
 E2 =    -0.1992251420D+01 EUMP2 =    -0.16516225036635D+04
 SCF Done:  E(RHF) =  -1649.63025917     A.U. after    9 cycles
 E2 =    -0.1992244645D+01 EUMP2 =    -0.16516225038193D+04
 Optimization completed.
    -- Stationary point found.

                         Standard orientation:
 ---------------------------------------------------------------------
 Center     Atomic      Atomic             Coordinates (Angstroms)
 Number     Number       Type             X           Y           Z
 ---------------------------------------------------------------------
      1          6           0       -4.036753    0.355395    0.252936
      2          6           0       -2.700922    0.839307    0.330685
      3          6           0       -1.735338   -0.116057   -0.012142
      4          6           0       -4.090478   -0.976915   -0.144134
      5          1           0       -4.924576    0.950919    0.482739
      6         16           0       -2.512051   -1.619892   -0.440270
      7          1           0       -4.972037   -1.601494   -0.288573
      8          6           0       -0.287891   -0.009353    0.024297
      9         16           0        0.515553    1.480576   -0.481021
     10          6           0        2.083655    0.754777   -0.265877
     11          6           0        1.964651   -0.589235    0.168424
     12          6           0        0.623437   -1.024804    0.335999
     13          1           0        0.306327   -2.011365    0.681622
     14         16           0        3.536493   -1.299687    0.414427
     15          6           0        4.323478    0.190014   -0.058065
     16          6           0        3.431614    1.202929   -0.389115
     17          1           0        5.413596    0.232796   -0.072014
     18          1           0        3.747499    2.198346   -0.706513
     19          8           0       -2.318808    2.110840    0.702083
     20          1           0       -3.112993    2.611780    0.937846
 ---------------------------------------------------------------------

 The electronic state is 1-A.
 Alpha  occ. eigenvalues --  -91.99766 -91.98975 -91.98764 -20.61560 -11.32556
 Alpha  occ. eigenvalues --  -11.29333 -11.29283 -11.27974 -11.27950 -11.27484
 Alpha  occ. eigenvalues --  -11.27316 -11.26557 -11.26050 -11.25887  -8.99903
 Alpha  occ. eigenvalues --   -8.99088  -8.98852  -6.68068  -6.67976  -6.67789
 Alpha  occ. eigenvalues --   -6.67254  -6.67174  -6.67012  -6.66977  -6.66927
 Alpha  occ. eigenvalues --   -6.66726  -1.41629  -1.20123  -1.17697  -1.11558
 Alpha  occ. eigenvalues --   -1.02397  -1.01886  -0.98918  -0.94413  -0.93785
 Alpha  occ. eigenvalues --   -0.82560  -0.80644  -0.76360  -0.74036  -0.71258
 Alpha  occ. eigenvalues --   -0.69604  -0.66518  -0.65775  -0.60952  -0.60485
 Alpha  occ. eigenvalues --   -0.58605  -0.56555  -0.55476  -0.54133  -0.52742
 Alpha  occ. eigenvalues --   -0.52401  -0.50954  -0.49626  -0.48213  -0.45944
 Alpha  occ. eigenvalues --   -0.45602  -0.38784  -0.35357  -0.33765  -0.31619
 Alpha  occ. eigenvalues --   -0.26501
 Alpha virt. eigenvalues --    0.02770   0.03729   0.03934   0.04971   0.05117
 Alpha virt. eigenvalues --    0.06010   0.06248   0.08477   0.08696   0.09317
 Alpha virt. eigenvalues --    0.10308   0.10487   0.10565   0.10754   0.11199

 Mulliken charges:
               1
     1  C    0.473531
     2  C    0.431610
     3  C    0.757027
     4  C   -0.285318
     5  H   -0.418005
     6  S    0.442989
     7  H   -0.324483
     8  C    0.153643
     9  S    0.478499
    10  C   -0.530471
    11  C   -0.191811
    12  C    0.135997
    13  H   -0.454323
    14  S    0.578942
    15  C   -0.172984
    16  C    0.330464
    17  H   -0.351064
    18  H   -0.290755
    19  O   -0.963456
    20  H    0.199972
 Sum of Mulliken charges =  -0.00000

 Dipole moment (field-independent basis, Debye):
    X=             -2.5525    Y=              0.8662    Z=              0.4452  Tot=              2.7320
 Quadrupole moment (field-independent basis, Debye-Ang):
   XX=            -76.4666   YY=            -97.0237   ZZ=           -109.7234
   XY=             -0.5547   XZ=             -3.8753   YZ=              0.0404

 Normal termination of Gaussian 16 at Wed Oct 27 07:06:13 2021.
