 Gaussian 16, Revision C.01,
 Gaussian 16:  ES64L-G16RevC.01  3-Jul-2019

 ----------------------------------
 # opt=modredundant mp2/aug-cc-pvdz
 ----------------------------------

 --------------
 pBTTT_-160.pdb
 --------------
 Symbolic Z-matrix:
 Charge =  0 Multiplicity = 1

 SCF Done:  E(RHF) =  -1649.64253676     A.U. after   17 cycles
 E2 =    -0.1970169913D+01 EUMP2 =    -0.16516127066706D+04
 SCF Done:  E(RHF) =  -1649.63329079     A.U. after   15 cycles
 E2 =    -0.1989623734D+01 EUMP2 =    -0.16516229145276D+04
 SCF Done:  E(RHF) =  -1649.63105896     A.U. after   15 cycles
 E2 =    -0.1992439092D+01 EUMP2 =    -0.16516234980496D+04
 SCF Done:  E(RHF) =  -1649.63056748     A.U. after   14 cycles
 E2 =    -0.1992976732D+01 EUMP2 =    -0.16516235442097D+04
 SCF Done:  E(RHF) =  -1649.63065633     A.U. after   11 cycles
 E2 =    -0.1992893040D+01 EUMP2 =    -0.16516235493699D+04
 SCF Done:  E(RHF) =  -1649.63076809     A.U. after   12 cycles
 E2 =    -0.1992785265D+01 EUMP2 =    -0.16516235533558D+04
 SCF Done:  E(RHF) =  -1649.63081894     A.U. after   11 cycles
 E2 =    -0.1992735701D+01 EUMP2 =    -0.16516235546427D+04
 SCF Done:  E(RHF) =  -1649.63083363     A.U. after   11 cycles
 E2 =    -0.1992721807D+01 EUMP2 =    -0.16516235554415D+04
 SCF Done:  E(RHF) =  -1649.63078324     A.U. after   10 cycles
 E2 =    -0.1992772830D+01 EUMP2 =    -0.16516235560752D+04
 SCF Done:  E(RHF) =  -1649.63077520     A.U. after    8 cycles
 E2 =    -0.1992780958D+01 EUMP2 =    -0.16516235561624D+04
 Optimization completed.
    -- Stationary point found.

                         Standard orientation:
 ---------------------------------------------------------------------
 Center     Atomic      Atomic             Coordinates (Angstroms)
 Number     Number       Type             X           Y           Z
 ---------------------------------------------------------------------
      1          6           0        3.943846    0.884911    0.090765
      2          6           0        2.550484    1.165725    0.141278
      3          6           0        1.739581    0.034999   -0.036489
      4          6           0        4.201048   -0.464921   -0.123780
      5          1           0        4.729894    1.635828    0.208522
      6         16           0        2.738719   -1.376509   -0.282359
      7          1           0        5.166452   -0.963633   -0.207464
      8          6           0        0.291669   -0.037074   -0.019838
      9         16           0       -0.512616   -1.587708    0.263183
     10          6           0       -2.083056   -0.845784    0.125227
     11          6           0       -1.960336    0.546608   -0.105360
     12          6           0       -0.620044    1.010786   -0.190647
     13          1           0       -0.303416    2.038104   -0.372433
     14         16           0       -3.532318    1.288149   -0.227945
     15          6           0       -4.321021   -0.252338    0.026513
     16          6           0       -3.429597   -1.304757    0.201433
     17          1           0       -5.411107   -0.296538    0.033027
     18          1           0       -3.745865   -2.335297    0.372228
     19          8           0        1.986270    2.409277    0.340906
     20          1           0        2.697888    3.035483    0.538196
 ---------------------------------------------------------------------

 The electronic state is 1-A.
 Alpha  occ. eigenvalues --  -91.99773 -91.99008 -91.98992 -20.61884 -11.32546
 Alpha  occ. eigenvalues --  -11.29300 -11.29288 -11.28207 -11.27945 -11.27572
 Alpha  occ. eigenvalues --  -11.27431 -11.26610 -11.26134 -11.25536  -8.99927
 Alpha  occ. eigenvalues --   -8.99120  -8.99118  -6.68093  -6.68001  -6.67812
 Alpha  occ. eigenvalues --   -6.67287  -6.67286  -6.67206  -6.67204  -6.67010
 Alpha  occ. eigenvalues --   -6.66999  -1.41863  -1.20183  -1.17751  -1.11592
 Alpha  occ. eigenvalues --   -1.02406  -1.02022  -0.98991  -0.94420  -0.93798
 Alpha  occ. eigenvalues --   -0.82654  -0.80696  -0.76332  -0.73945  -0.71957
 Alpha  occ. eigenvalues --   -0.69657  -0.66475  -0.65559  -0.61231  -0.60695
 Alpha  occ. eigenvalues --   -0.58399  -0.56325  -0.55591  -0.54350  -0.53046
 Alpha  occ. eigenvalues --   -0.51872  -0.51047  -0.49961  -0.48229  -0.46253
 Alpha  occ. eigenvalues --   -0.45654  -0.39024  -0.35568  -0.34033  -0.31828
 Alpha  occ. eigenvalues --   -0.25980
 Alpha virt. eigenvalues --    0.02674   0.03737   0.03837   0.05087   0.05112
 Alpha virt. eigenvalues --    0.05595   0.06743   0.08223   0.08749   0.09539
 Alpha virt. eigenvalues --    0.10425   0.10481   0.10807   0.10905   0.11467

 Mulliken charges:
               1
     1  C    0.567430
     2  C    0.311806
     3  C    0.692388
     4  C   -0.363871
     5  H   -0.434701
     6  S    0.494505
     7  H   -0.337184
     8  C    0.141344
     9  S    0.478673
    10  C   -0.614231
    11  C    0.062802
    12  C    0.159830
    13  H   -0.429313
    14  S    0.528658
    15  C   -0.199158
    16  C    0.356220
    17  H   -0.353447
    18  H   -0.291944
    19  O   -0.991793
    20  H    0.221987
 Sum of Mulliken charges =  -0.00000

 Dipole moment (field-independent basis, Debye):
    X=              2.3606    Y=              1.1539    Z=              0.3153  Tot=              2.6464
 Quadrupole moment (field-independent basis, Debye-Ang):
   XX=            -77.9481   YY=            -94.6123   ZZ=           -110.8836
   XY=             10.6506   XZ=              0.6231   YZ=              0.5228

 Normal termination of Gaussian 16 at Wed Oct 27 05:40:34 2021.
