 Gaussian 16, Revision C.01,
 Gaussian 16:  ES64L-G16RevC.01  3-Jul-2019

 ----------------------------------
 # opt=modredundant mp2/aug-cc-pvdz
 ----------------------------------

 ------------
 pBTTT_30.pdb
 ------------
 Symbolic Z-matrix:
 Charge =  0 Multiplicity = 1

 SCF Done:  E(RHF) =  -1649.64239033     A.U. after   17 cycles
 E2 =    -0.1969824387D+01 EUMP2 =    -0.16516122147170D+04
 SCF Done:  E(RHF) =  -1649.63305800     A.U. after   15 cycles
 E2 =    -0.1989269196D+01 EUMP2 =    -0.16516223271997D+04
 SCF Done:  E(RHF) =  -1649.63073667     A.U. after   14 cycles
 E2 =    -0.1992185704D+01 EUMP2 =    -0.16516229223690D+04
 SCF Done:  E(RHF) =  -1649.63024024     A.U. after   13 cycles
 E2 =    -0.1992735539D+01 EUMP2 =    -0.16516229757834D+04
 SCF Done:  E(RHF) =  -1649.63034590     A.U. after   13 cycles
 E2 =    -0.1992634025D+01 EUMP2 =    -0.16516229799296D+04
 SCF Done:  E(RHF) =  -1649.63042490     A.U. after   12 cycles
 E2 =    -0.1992557329D+01 EUMP2 =    -0.16516229822253D+04
 SCF Done:  E(RHF) =  -1649.63044708     A.U. after   10 cycles
 E2 =    -0.1992535732D+01 EUMP2 =    -0.16516229828077D+04
 SCF Done:  E(RHF) =  -1649.63045012     A.U. after    9 cycles
 E2 =    -0.1992532971D+01 EUMP2 =    -0.16516229830921D+04
 SCF Done:  E(RHF) =  -1649.63042403     A.U. after    9 cycles
 E2 =    -0.1992559315D+01 EUMP2 =    -0.16516229833438D+04
 SCF Done:  E(RHF) =  -1649.63040413     A.U. after    9 cycles
 E2 =    -0.1992579467D+01 EUMP2 =    -0.16516229836015D+04
 SCF Done:  E(RHF) =  -1649.63040899     A.U. after    9 cycles
 E2 =    -0.1992574735D+01 EUMP2 =    -0.16516229837242D+04
 SCF Done:  E(RHF) =  -1649.63042432     A.U. after    9 cycles
 E2 =    -0.1992559468D+01 EUMP2 =    -0.16516229837895D+04
 Optimization completed.
    -- Stationary point found.

                         Standard orientation:
 ---------------------------------------------------------------------
 Center     Atomic      Atomic             Coordinates (Angstroms)
 Number     Number       Type             X           Y           Z
 ---------------------------------------------------------------------
      1          6           0        4.039410    0.367127    0.185352
      2          6           0        2.703491    0.853206    0.245168
      3          6           0        1.733667   -0.126645   -0.005794
      4          6           0        4.090928   -0.990815   -0.109690
      5          1           0        4.928601    0.980692    0.353943
      6         16           0        2.509307   -1.657769   -0.330935
      7          1           0        4.971136   -1.624228   -0.219106
      8          6           0        0.287842   -0.017869    0.029681
      9         16           0       -0.511632    1.512737   -0.350439
     10          6           0       -2.081297    0.773737   -0.201815
     11          6           0       -1.967411   -0.600604    0.124543
     12          6           0       -0.628340   -1.051661    0.259577
     13          1           0       -0.318052   -2.065030    0.524970
     14         16           0       -3.541954   -1.324438    0.306904
     15          6           0       -4.323481    0.200304   -0.049288
     16          6           0       -3.427562    1.233730   -0.295266
     17          1           0       -5.413411    0.247096   -0.063880
     18          1           0       -3.739811    2.252024   -0.534019
     19          8           0        2.324414    2.150693    0.517865
     20          1           0        3.121197    2.672371    0.691885
 ---------------------------------------------------------------------

 The electronic state is 1-A.
 Alpha  occ. eigenvalues --  -91.99773 -91.98933 -91.98756 -20.61681 -11.32609
 Alpha  occ. eigenvalues --  -11.29388 -11.29369 -11.28102 -11.27887 -11.27458
 Alpha  occ. eigenvalues --  -11.27222 -11.26619 -11.26013 -11.25816  -8.99919
 Alpha  occ. eigenvalues --   -8.99046  -8.98838  -6.68085  -6.67993  -6.67805
 Alpha  occ. eigenvalues --   -6.67213  -6.67133  -6.66996  -6.66936  -6.66911
 Alpha  occ. eigenvalues --   -6.66710  -1.41755  -1.20105  -1.17734  -1.11541
 Alpha  occ. eigenvalues --   -1.02421  -1.01905  -0.98967  -0.94386  -0.93776
 Alpha  occ. eigenvalues --   -0.82612  -0.80755  -0.76353  -0.74108  -0.71143
 Alpha  occ. eigenvalues --   -0.69684  -0.66646  -0.65716  -0.60989  -0.60611
 Alpha  occ. eigenvalues --   -0.58654  -0.56544  -0.55465  -0.54214  -0.52720
 Alpha  occ. eigenvalues --   -0.52270  -0.51092  -0.49680  -0.48073  -0.46079
 Alpha  occ. eigenvalues --   -0.45507  -0.38883  -0.35469  -0.33978  -0.31613
 Alpha  occ. eigenvalues --   -0.26164
 Alpha virt. eigenvalues --    0.02746   0.03716   0.03923   0.04972   0.05121
 Alpha virt. eigenvalues --    0.05756   0.06249   0.08497   0.08902   0.09450
 Alpha virt. eigenvalues --    0.10328   0.10552   0.10623   0.10864   0.11242

 Mulliken charges:
               1
     1  C    0.524983
     2  C    0.317499
     3  C    0.855964
     4  C   -0.318907
     5  H   -0.419670
     6  S    0.458967
     7  H   -0.335332
     8  C    0.150513
     9  S    0.492930
    10  C   -0.525250
    11  C   -0.151627
    12  C    0.152964
    13  H   -0.464230
    14  S    0.555891
    15  C   -0.187374
    16  C    0.299496
    17  H   -0.353376
    18  H   -0.294172
    19  O   -0.965135
    20  H    0.205866
 Sum of Mulliken charges =  -0.00000

 Dipole moment (field-independent basis, Debye):
    X=              2.6458    Y=              0.9484    Z=              0.3307  Tot=              2.8301
 Quadrupole moment (field-independent basis, Debye-Ang):
   XX=            -76.4359   YY=            -96.2440   ZZ=           -110.5295
   XY=              0.7633   XZ=              2.8951   YZ=              0.0290

 Normal termination of Gaussian 16 at Wed Oct 27 06:36:36 2021.
