 Gaussian 16, Revision C.01,
 Gaussian 16:  ES64L-G16RevC.01  3-Jul-2019

 ----------------------------------
 # opt=modredundant mp2/aug-cc-pvdz
 ----------------------------------

 ------------
 pBTTT_90.pdb
 ------------
 Symbolic Z-matrix:
 Charge =  0 Multiplicity = 1

 SCF Done:  E(RHF) =  -1649.64143720     A.U. after   17 cycles
 E2 =    -0.1967848079D+01 EUMP2 =    -0.16516092852787D+04
 SCF Done:  E(RHF) =  -1649.63214963     A.U. after   14 cycles
 E2 =    -0.1987244580D+01 EUMP2 =    -0.16516193942134D+04
 SCF Done:  E(RHF) =  -1649.62987360     A.U. after   14 cycles
 E2 =    -0.1990108804D+01 EUMP2 =    -0.16516199824022D+04
 SCF Done:  E(RHF) =  -1649.62937463     A.U. after   13 cycles
 E2 =    -0.1990661390D+01 EUMP2 =    -0.16516200360162D+04
 SCF Done:  E(RHF) =  -1649.62949988     A.U. after   11 cycles
 E2 =    -0.1990540167D+01 EUMP2 =    -0.16516200400490D+04
 SCF Done:  E(RHF) =  -1649.62957568     A.U. after   11 cycles
 E2 =    -0.1990465686D+01 EUMP2 =    -0.16516200413638D+04
 SCF Done:  E(RHF) =  -1649.62957738     A.U. after    9 cycles
 E2 =    -0.1990464525D+01 EUMP2 =    -0.16516200419078D+04
 SCF Done:  E(RHF) =  -1649.62956474     A.U. after   10 cycles
 E2 =    -0.1990477485D+01 EUMP2 =    -0.16516200422227D+04
 SCF Done:  E(RHF) =  -1649.62955309     A.U. after    9 cycles
 E2 =    -0.1990489225D+01 EUMP2 =    -0.16516200423154D+04
 SCF Done:  E(RHF) =  -1649.62954523     A.U. after    8 cycles
 E2 =    -0.1990497175D+01 EUMP2 =    -0.16516200424060D+04
 SCF Done:  E(RHF) =  -1649.62954638     A.U. after    8 cycles
 E2 =    -0.1990496109D+01 EUMP2 =    -0.16516200424920D+04
 Optimization completed.
    -- Stationary point found.

                         Standard orientation:
 ---------------------------------------------------------------------
 Center     Atomic      Atomic             Coordinates (Angstroms)
 Number     Number       Type             X           Y           Z
 ---------------------------------------------------------------------
      1          6           0       -3.969897    0.722676    0.163515
      2          6           0       -2.586309    0.980314    0.383192
      3          6           0       -1.745892   -0.018928   -0.117485
      4          6           0       -4.178142   -0.482246   -0.501261
      5          1           0       -4.781920    1.385580    0.474715
      6         16           0       -2.690479   -1.286772   -0.853381
      7          1           0       -5.127283   -0.926796   -0.801395
      8          6           0       -0.286660   -0.061600   -0.050359
      9         16           0        0.511397   -0.826116    1.324570
     10          6           0        2.082466   -0.437665    0.685243
     11          6           0        1.964956    0.257658   -0.545551
     12          6           0        0.622937    0.469847   -0.964587
     13          1           0        0.300180    0.982218   -1.873051
     14         16           0        3.537386    0.646898   -1.186350
     15          6           0        4.322510   -0.114047    0.179042
     16          6           0        3.430894   -0.650568    1.099224
     17          1           0        5.412420   -0.121828    0.227351
     18          1           0        3.746052   -1.161200    2.010831
     19          8           0       -2.054829    2.082369    1.013894
     20          1           0       -2.784864    2.646264    1.307131
 ---------------------------------------------------------------------

 The electronic state is 1-A.
 Alpha  occ. eigenvalues --  -91.99563 -91.99103 -91.98842 -20.61249 -11.32425
 Alpha  occ. eigenvalues --  -11.29216 -11.28808 -11.28176 -11.27641 -11.27468
 Alpha  occ. eigenvalues --  -11.27408 -11.26273 -11.26167 -11.26142  -8.99680
 Alpha  occ. eigenvalues --   -8.99217  -8.98933  -6.67842  -6.67750  -6.67567
 Alpha  occ. eigenvalues --   -6.67383  -6.67303  -6.67106  -6.67095  -6.67009
 Alpha  occ. eigenvalues --   -6.66813  -1.41336  -1.20126  -1.17493  -1.11557
 Alpha  occ. eigenvalues --   -1.02307  -1.01722  -0.98674  -0.94490  -0.93805
 Alpha  occ. eigenvalues --   -0.82308  -0.80206  -0.76383  -0.73715  -0.71869
 Alpha  occ. eigenvalues --   -0.69303  -0.66286  -0.65809  -0.60920  -0.60138
 Alpha  occ. eigenvalues --   -0.58124  -0.56585  -0.55581  -0.53792  -0.53015
 Alpha  occ. eigenvalues --   -0.52726  -0.50486  -0.49243  -0.48716  -0.45854
 Alpha  occ. eigenvalues --   -0.45388  -0.38470  -0.34810  -0.31841  -0.31480
 Alpha  occ. eigenvalues --   -0.28979
 Alpha virt. eigenvalues --    0.02801   0.03713   0.03967   0.04887   0.05081
 Alpha virt. eigenvalues --    0.06218   0.07934   0.07995   0.08356   0.08753
 Alpha virt. eigenvalues --    0.08999   0.10186   0.10358   0.10825   0.11433

 Mulliken charges:
               1
     1  C    0.633987
     2  C    0.449963
     3  C    0.355043
     4  C   -0.353227
     5  H   -0.406744
     6  S    0.371169
     7  H   -0.302349
     8  C    0.601515
     9  S    0.394913
    10  C   -0.761341
    11  C   -0.222835
    12  C   -0.065335
    13  H   -0.392785
    14  S    0.658157
    15  C   -0.130136
    16  C    0.606037
    17  H   -0.350534
    18  H   -0.295849
    19  O   -0.975000
    20  H    0.185352
 Sum of Mulliken charges =  -0.00000

 Dipole moment (field-independent basis, Debye):
    X=             -2.1515    Y=              1.0269    Z=              0.4411  Tot=              2.4245
 Quadrupole moment (field-independent basis, Debye-Ang):
   XX=            -77.5513   YY=           -102.6733   ZZ=           -103.1032
   XY=             -7.7650   XZ=              1.6375   YZ=             -0.1034

 Normal termination of Gaussian 16 at Wed Oct 27 07:15:49 2021.
