 Gaussian 16, Revision C.01,
 Gaussian 16:  ES64L-G16RevC.01  3-Jul-2019

 ----------------------------------
 # opt=modredundant mp2/aug-cc-pvdz
 ----------------------------------

 ------------
 pBTTT_95.pdb
 ------------
 Symbolic Z-matrix:
 Charge =  0 Multiplicity = 1

 SCF Done:  E(RHF) =  -1649.64144418     A.U. after   17 cycles
 E2 =    -0.1967863759D+01 EUMP2 =    -0.16516093079435D+04
 SCF Done:  E(RHF) =  -1649.63215331     A.U. after   14 cycles
 E2 =    -0.1987280473D+01 EUMP2 =    -0.16516194337783D+04
 SCF Done:  E(RHF) =  -1649.62988172     A.U. after   14 cycles
 E2 =    -0.1990139417D+01 EUMP2 =    -0.16516200211330D+04
 SCF Done:  E(RHF) =  -1649.62936019     A.U. after   13 cycles
 E2 =    -0.1990716929D+01 EUMP2 =    -0.16516200771233D+04
 SCF Done:  E(RHF) =  -1649.62947438     A.U. after   11 cycles
 E2 =    -0.1990607448D+01 EUMP2 =    -0.16516200818261D+04
 SCF Done:  E(RHF) =  -1649.62955307     A.U. after   11 cycles
 E2 =    -0.1990530969D+01 EUMP2 =    -0.16516200840388D+04
 SCF Done:  E(RHF) =  -1649.62957252     A.U. after   10 cycles
 E2 =    -0.1990512265D+01 EUMP2 =    -0.16516200847879D+04
 SCF Done:  E(RHF) =  -1649.62956697     A.U. after   10 cycles
 E2 =    -0.1990518134D+01 EUMP2 =    -0.16516200851007D+04
 SCF Done:  E(RHF) =  -1649.62954032     A.U. after    9 cycles
 E2 =    -0.1990544952D+01 EUMP2 =    -0.16516200852714D+04
 SCF Done:  E(RHF) =  -1649.62952726     A.U. after    9 cycles
 E2 =    -0.1990558146D+01 EUMP2 =    -0.16516200854025D+04
 SCF Done:  E(RHF) =  -1649.62953175     A.U. after    8 cycles
 E2 =    -0.1990553716D+01 EUMP2 =    -0.16516200854705D+04
 Optimization completed.
    -- Stationary point found.

                         Standard orientation:
 ---------------------------------------------------------------------
 Center     Atomic      Atomic             Coordinates (Angstroms)
 Number     Number       Type             X           Y           Z
 ---------------------------------------------------------------------
      1          6           0       -3.959780    0.708100    0.311440
      2          6           0       -2.571218    0.917958    0.549674
      3          6           0       -1.745880    0.012459   -0.124547
      4          6           0       -4.187248   -0.369940   -0.538938
      5          1           0       -4.761972    1.314059    0.741526
      6         16           0       -2.711208   -1.111930   -1.044164
      7          1           0       -5.144078   -0.753729   -0.893524
      8          6           0       -0.287266   -0.056806   -0.075437
      9         16           0        0.508045   -1.158545    1.050085
     10          6           0        2.080371   -0.611610    0.543240
     11          6           0        1.965143    0.390886   -0.453652
     12          6           0        0.624092    0.704827   -0.806620
     13          1           0        0.303146    1.442257   -1.544936
     14         16           0        3.538811    0.938246   -0.962143
     15          6           0        4.321351   -0.164523    0.147484
     16          6           0        3.427938   -0.930188    0.885881
     17          1           0        5.411143   -0.184802    0.194749
     18          1           0        3.741284   -1.668909    1.625615
     19          8           0       -2.022565    1.895089    1.349182
     20          1           0       -2.744408    2.399103    1.751509
 ---------------------------------------------------------------------

 The electronic state is 1-A.
 Alpha  occ. eigenvalues --  -91.99557 -91.99102 -91.98858 -20.61255 -11.32431
 Alpha  occ. eigenvalues --  -11.29222 -11.28797 -11.28172 -11.27643 -11.27470
 Alpha  occ. eigenvalues --  -11.27419 -11.26277 -11.26169 -11.26122  -8.99677
 Alpha  occ. eigenvalues --   -8.99217  -8.98949  -6.67838  -6.67747  -6.67563
 Alpha  occ. eigenvalues --   -6.67382  -6.67302  -6.67110  -6.67105  -6.67025
 Alpha  occ. eigenvalues --   -6.66828  -1.41340  -1.20125  -1.17495  -1.11555
 Alpha  occ. eigenvalues --   -1.02309  -1.01727  -0.98679  -0.94486  -0.93802
 Alpha  occ. eigenvalues --   -0.82313  -0.80204  -0.76381  -0.73698  -0.71906
 Alpha  occ. eigenvalues --   -0.69293  -0.66285  -0.65808  -0.60941  -0.60144
 Alpha  occ. eigenvalues --   -0.58099  -0.56563  -0.55584  -0.53804  -0.53008
 Alpha  occ. eigenvalues --   -0.52733  -0.50472  -0.49255  -0.48712  -0.45861
 Alpha  occ. eigenvalues --   -0.45406  -0.38472  -0.34815  -0.31962  -0.31461
 Alpha  occ. eigenvalues --   -0.28883
 Alpha virt. eigenvalues --    0.02798   0.03715   0.03962   0.04897   0.05079
 Alpha virt. eigenvalues --    0.06217   0.07873   0.08008   0.08343   0.08751
 Alpha virt. eigenvalues --    0.09061   0.10170   0.10364   0.10856   0.11414

 Mulliken charges:
               1
     1  C    0.639221
     2  C    0.417651
     3  C    0.402269
     4  C   -0.363646
     5  H   -0.406702
     6  S    0.383314
     7  H   -0.303500
     8  C    0.549404
     9  S    0.392305
    10  C   -0.758611
    11  C   -0.215095
    12  C   -0.040959
    13  H   -0.389090
    14  S    0.655544
    15  C   -0.128777
    16  C    0.598166
    17  H   -0.350268
    18  H   -0.295610
    19  O   -0.969667
    20  H    0.184052
 Sum of Mulliken charges =  -0.00000

 Dipole moment (field-independent basis, Debye):
    X=             -2.1388    Y=              0.9436    Z=              0.6632  Tot=              2.4300
 Quadrupole moment (field-independent basis, Debye-Ang):
   XX=            -77.7151   YY=           -101.7807   ZZ=           -103.8813
   XY=             -8.2335   XZ=             -0.1695   YZ=             -0.0514

 Normal termination of Gaussian 16 at Wed Oct 27 07:23:42 2021.
