 Gaussian 16, Revision C.01,
 Gaussian 16:  ES64L-G16RevC.01  3-Jul-2019

 ----------------------------------
 # opt=modredundant mp2/aug-cc-pvdz
 ----------------------------------

 -------------
 pBTTT_-60.pdb
 -------------
 Symbolic Z-matrix:
 Charge =  0 Multiplicity = 1

 SCF Done:  E(RHF) =  -1649.64187818     A.U. after   17 cycles
 E2 =    -0.1968528812D+01 EUMP2 =    -0.16516104069966D+04
 SCF Done:  E(RHF) =  -1649.63262011     A.U. after   15 cycles
 E2 =    -0.1987969372D+01 EUMP2 =    -0.16516205894828D+04
 SCF Done:  E(RHF) =  -1649.63032219     A.U. after   13 cycles
 E2 =    -0.1990874164D+01 EUMP2 =    -0.16516211963494D+04
 SCF Done:  E(RHF) =  -1649.62978747     A.U. after   13 cycles
 E2 =    -0.1991470757D+01 EUMP2 =    -0.16516212582307D+04
 SCF Done:  E(RHF) =  -1649.62989831     A.U. after   12 cycles
 E2 =    -0.1991366745D+01 EUMP2 =    -0.16516212650537D+04
 SCF Done:  E(RHF) =  -1649.62998788     A.U. after   12 cycles
 E2 =    -0.1991279807D+01 EUMP2 =    -0.16516212676871D+04
 SCF Done:  E(RHF) =  -1649.63001170     A.U. after   11 cycles
 E2 =    -0.1991257247D+01 EUMP2 =    -0.16516212689471D+04
 SCF Done:  E(RHF) =  -1649.63000598     A.U. after   11 cycles
 E2 =    -0.1991263604D+01 EUMP2 =    -0.16516212695827D+04
 SCF Done:  E(RHF) =  -1649.62996672     A.U. after    9 cycles
 E2 =    -0.1991303371D+01 EUMP2 =    -0.16516212700890D+04
 SCF Done:  E(RHF) =  -1649.62994057     A.U. after    9 cycles
 E2 =    -0.1991329956D+01 EUMP2 =    -0.16516212705282D+04
 SCF Done:  E(RHF) =  -1649.62994606     A.U. after    9 cycles
 E2 =    -0.1991324682D+01 EUMP2 =    -0.16516212707422D+04
 SCF Done:  E(RHF) =  -1649.62996491     A.U. after    9 cycles
 E2 =    -0.1991305954D+01 EUMP2 =    -0.16516212708648D+04
 Optimization completed.
    -- Stationary point found.

                         Standard orientation:
 ---------------------------------------------------------------------
 Center     Atomic      Atomic             Coordinates (Angstroms)
 Number     Number       Type             X           Y           Z
 ---------------------------------------------------------------------
      1          6           0       -4.022548    0.349272    0.395927
      2          6           0       -2.676134    0.795039    0.517576
      3          6           0       -1.740390   -0.099997   -0.013962
      4          6           0       -4.109673   -0.896088   -0.219680
      5          1           0       -4.893787    0.906542    0.751100
      6         16           0       -2.552155   -1.501981   -0.660631
      7          1           0       -5.006669   -1.475103   -0.439835
      8          6           0       -0.287057   -0.006433    0.001541
      9         16           0        0.522575    1.362787   -0.761718
     10          6           0        2.088124    0.693438   -0.399578
     11          6           0        1.961414   -0.552876    0.264924
     12          6           0        0.616647   -0.952140    0.493005
     13          1           0        0.289125   -1.862331    0.999794
     14         16           0        3.529026   -1.213867    0.640250
     15          6           0        4.324336    0.166001   -0.083583
     16          6           0        3.439016    1.106961   -0.594498
     17          1           0        5.414634    0.203598   -0.095747
     18          1           0        3.760791    2.029463   -1.080961
     19          8           0       -2.259777    1.973238    1.097574
     20          1           0       -3.039410    2.441855    1.428616
 ---------------------------------------------------------------------

 The electronic state is 1-A.
 Alpha  occ. eigenvalues --  -91.99705 -91.99050 -91.98787 -20.61354 -11.32474
 Alpha  occ. eigenvalues --  -11.29249 -11.29072 -11.28071 -11.27687 -11.27549
 Alpha  occ. eigenvalues --  -11.27438 -11.26415 -11.26115 -11.26041  -8.99828
 Alpha  occ. eigenvalues --   -8.99164  -8.98882  -6.67989  -6.67898  -6.67713
 Alpha  occ. eigenvalues --   -6.67330  -6.67250  -6.67053  -6.67042  -6.66957
 Alpha  occ. eigenvalues --   -6.66759  -1.41430  -1.20139  -1.17604  -1.11574
 Alpha  occ. eigenvalues --   -1.02346  -1.01819  -0.98798  -0.94467  -0.93804
 Alpha  occ. eigenvalues --   -0.82433  -0.80417  -0.76373  -0.73895  -0.71524
 Alpha  occ. eigenvalues --   -0.69454  -0.66330  -0.65845  -0.60896  -0.60269
 Alpha  occ. eigenvalues --   -0.58435  -0.56592  -0.55518  -0.53964  -0.52777
 Alpha  occ. eigenvalues --   -0.52664  -0.50711  -0.49446  -0.48495  -0.45783
 Alpha  occ. eigenvalues --   -0.45601  -0.38600  -0.35072  -0.33017  -0.31648
 Alpha  occ. eigenvalues --   -0.27491
 Alpha virt. eigenvalues --    0.02804   0.03734   0.03957   0.04942   0.05103
 Alpha virt. eigenvalues --    0.06232   0.06757   0.08286   0.08523   0.09015
 Alpha virt. eigenvalues --    0.09960   0.10326   0.10431   0.10735   0.11147

 Mulliken charges:
               1
     1  C    0.446226
     2  C    0.616390
     3  C    0.491353
     4  C   -0.246485
     5  H   -0.413015
     6  S    0.397001
     7  H   -0.313804
     8  C    0.261807
     9  S    0.435068
    10  C   -0.626134
    11  C   -0.198569
    12  C    0.095919
    13  H   -0.434801
    14  S    0.618265
    15  C   -0.141811
    16  C    0.435012
    17  H   -0.349475
    18  H   -0.289155
    19  O   -0.976404
    20  H    0.192611
 Sum of Mulliken charges =  -0.00000

 Dipole moment (field-independent basis, Debye):
    X=             -2.3650    Y=              0.7306    Z=              0.6162  Tot=              2.5508
 Quadrupole moment (field-independent basis, Debye-Ang):
   XX=            -76.6624   YY=            -99.0223   ZZ=           -107.5114
   XY=             -0.3196   XZ=             -5.6515   YZ=             -0.0808

 Normal termination of Gaussian 16 at Wed Oct 27 06:26:39 2021.
