 Gaussian 16, Revision C.01,
 Gaussian 16:  ES64L-G16RevC.01  3-Jul-2019

 ----------------------------------
 # opt=modredundant mp2/aug-cc-pvdz
 ----------------------------------

 --------------
 pBTTT_-130.pdb
 --------------
 Symbolic Z-matrix:
 Charge =  0 Multiplicity = 1

 SCF Done:  E(RHF) =  -1649.64232684     A.U. after   17 cycles
 E2 =    -0.1968974004D+01 EUMP2 =    -0.16516113008463D+04
 SCF Done:  E(RHF) =  -1649.63308995     A.U. after   15 cycles
 E2 =    -0.1988374907D+01 EUMP2 =    -0.16516214648579D+04
 SCF Done:  E(RHF) =  -1649.63074714     A.U. after   14 cycles
 E2 =    -0.1991356793D+01 EUMP2 =    -0.16516221039337D+04
 SCF Done:  E(RHF) =  -1649.63014373     A.U. after   13 cycles
 E2 =    -0.1992023202D+01 EUMP2 =    -0.16516221669312D+04
 SCF Done:  E(RHF) =  -1649.63021243     A.U. after   12 cycles
 E2 =    -0.1991960696D+01 EUMP2 =    -0.16516221731276D+04
 SCF Done:  E(RHF) =  -1649.63036189     A.U. after   11 cycles
 E2 =    -0.1991817215D+01 EUMP2 =    -0.16516221791087D+04
 SCF Done:  E(RHF) =  -1649.63041568     A.U. after   11 cycles
 E2 =    -0.1991764629D+01 EUMP2 =    -0.16516221803121D+04
 SCF Done:  E(RHF) =  -1649.63041127     A.U. after   11 cycles
 E2 =    -0.1991769587D+01 EUMP2 =    -0.16516221808581D+04
 SCF Done:  E(RHF) =  -1649.63037824     A.U. after   11 cycles
 E2 =    -0.1991803232D+01 EUMP2 =    -0.16516221814678D+04
 SCF Done:  E(RHF) =  -1649.63036562     A.U. after   10 cycles
 E2 =    -0.1991816273D+01 EUMP2 =    -0.16516221818940D+04
 SCF Done:  E(RHF) =  -1649.63036789     A.U. after    9 cycles
 E2 =    -0.1991814068D+01 EUMP2 =    -0.16516221819614D+04
 Optimization completed.
    -- Stationary point found.

                         Standard orientation:
 ---------------------------------------------------------------------
 Center     Atomic      Atomic             Coordinates (Angstroms)
 Number     Number       Type             X           Y           Z
 ---------------------------------------------------------------------
      1          6           0        3.930446    0.848504    0.247356
      2          6           0        2.532562    1.103390    0.329378
      3          6           0        1.741566    0.038492   -0.120020
      4          6           0        4.203833   -0.422439   -0.249077
      5          1           0        4.707737    1.557978    0.544279
      6         16           0        2.755895   -1.284830   -0.636181
      7          1           0        5.177029   -0.882614   -0.420227
      8          6           0        0.291374   -0.054937   -0.101483
      9         16           0       -0.498476   -1.486679    0.569965
     10          6           0       -2.073628   -0.794583    0.298771
     11          6           0       -1.961562    0.506012   -0.254596
     12          6           0       -0.623760    0.927281   -0.484717
     13          1           0       -0.309303    1.883142   -0.907241
     14         16           0       -3.537903    1.198841   -0.519679
     15          6           0       -4.315939   -0.239117    0.102446
     16          6           0       -3.418402   -1.222592    0.500473
     17          1           0       -5.405507   -0.277823    0.143097
     18          1           0       -3.728014   -2.184409    0.913120
     19          8           0        1.946130    2.263452    0.789115
     20          1           0        2.637820    2.818721    1.177197
 ---------------------------------------------------------------------

 The electronic state is 1-A.
 Alpha  occ. eigenvalues --  -91.99688 -91.99046 -91.98983 -20.61498 -11.32484
 Alpha  occ. eigenvalues --  -11.29267 -11.28994 -11.28031 -11.27832 -11.27588
 Alpha  occ. eigenvalues --  -11.27474 -11.26466 -11.26149 -11.25805  -8.99825
 Alpha  occ. eigenvalues --   -8.99159  -8.99083  -6.67989  -6.67897  -6.67712
 Alpha  occ. eigenvalues --   -6.67324  -6.67247  -6.67244  -6.67164  -6.67048
 Alpha  occ. eigenvalues --   -6.66963  -1.41518  -1.20155  -1.17639  -1.11576
 Alpha  occ. eigenvalues --   -1.02356  -1.01898  -0.98857  -0.94444  -0.93780
 Alpha  occ. eigenvalues --   -0.82499  -0.80409  -0.76344  -0.73759  -0.71988
 Alpha  occ. eigenvalues --   -0.69398  -0.66281  -0.65793  -0.61113  -0.60414
 Alpha  occ. eigenvalues --   -0.58196  -0.56407  -0.55528  -0.54137  -0.52880
 Alpha  occ. eigenvalues --   -0.52468  -0.50611  -0.49618  -0.48506  -0.45940
 Alpha  occ. eigenvalues --   -0.45747  -0.38706  -0.35172  -0.33470  -0.31756
 Alpha  occ. eigenvalues --   -0.26946
 Alpha virt. eigenvalues --    0.02751   0.03746   0.03887   0.05062   0.05084
 Alpha virt. eigenvalues --    0.06201   0.06634   0.08134   0.08511   0.09266
 Alpha virt. eigenvalues --    0.10119   0.10142   0.10502   0.10874   0.11283

 Mulliken charges:
               1
     1  C    0.537047
     2  C    0.393573
     3  C    0.664068
     4  C   -0.342446
     5  H   -0.412450
     6  S    0.440458
     7  H   -0.316536
     8  C    0.228145
     9  S    0.453272
    10  C   -0.726617
    11  C    0.004002
    12  C   -0.039753
    13  H   -0.407029
    14  S    0.609909
    15  C   -0.140799
    16  C    0.457529
    17  H   -0.350730
    18  H   -0.289933
    19  O   -0.960784
    20  H    0.199074
 Sum of Mulliken charges =  -0.00000

 Dipole moment (field-independent basis, Debye):
    X=              2.2254    Y=              1.0387    Z=              0.7178  Tot=              2.5586
 Quadrupole moment (field-independent basis, Debye-Ang):
   XX=            -78.3127   YY=            -97.1431   ZZ=           -108.2327
   XY=              9.5958   XZ=              1.1274   YZ=              0.5497

 Normal termination of Gaussian 16 at Wed Oct 27 06:16:13 2021.
