 Gaussian 16, Revision C.01,
 Gaussian 16:  ES64L-G16RevC.01  3-Jul-2019

 ----------------------------------
 # opt=modredundant mp2/aug-cc-pvdz
 ----------------------------------

 --------------
 pBTTT_-145.pdb
 --------------
 Symbolic Z-matrix:
 Charge =  0 Multiplicity = 1

 SCF Done:  E(RHF) =  -1649.64262453     A.U. after   17 cycles
 E2 =    -0.1969692564D+01 EUMP2 =    -0.16516123170900D+04
 SCF Done:  E(RHF) =  -1649.63335841     A.U. after   15 cycles
 E2 =    -0.1989089393D+01 EUMP2 =    -0.16516224478003D+04
 SCF Done:  E(RHF) =  -1649.63108707     A.U. after   14 cycles
 E2 =    -0.1991966798D+01 EUMP2 =    -0.16516230538656D+04
 SCF Done:  E(RHF) =  -1649.63053710     A.U. after   13 cycles
 E2 =    -0.1992568942D+01 EUMP2 =    -0.16516231060423D+04
 SCF Done:  E(RHF) =  -1649.63061135     A.U. after   11 cycles
 E2 =    -0.1992501179D+01 EUMP2 =    -0.16516231125289D+04
 SCF Done:  E(RHF) =  -1649.63075184     A.U. after   12 cycles
 E2 =    -0.1992366166D+01 EUMP2 =    -0.16516231180111D+04
 SCF Done:  E(RHF) =  -1649.63082096     A.U. after   11 cycles
 E2 =    -0.1992299028D+01 EUMP2 =    -0.16516231199896D+04
 SCF Done:  E(RHF) =  -1649.63083139     A.U. after   11 cycles
 E2 =    -0.1992289832D+01 EUMP2 =    -0.16516231212265D+04
 SCF Done:  E(RHF) =  -1649.63077086     A.U. after   11 cycles
 E2 =    -0.1992351439D+01 EUMP2 =    -0.16516231222963D+04
 SCF Done:  E(RHF) =  -1649.63076108     A.U. after    9 cycles
 E2 =    -0.1992361397D+01 EUMP2 =    -0.16516231224811D+04
 Optimization completed.
    -- Stationary point found.

                         Standard orientation:
 ---------------------------------------------------------------------
 Center     Atomic      Atomic             Coordinates (Angstroms)
 Number     Number       Type             X           Y           Z
 ---------------------------------------------------------------------
      1          6           0        3.936785    0.872072    0.172376
      2          6           0        2.541260    1.141832    0.234668
      3          6           0        1.740236    0.035878   -0.081354
      4          6           0        4.201664   -0.446902   -0.182195
      5          1           0        4.718772    1.607065    0.381996
      6         16           0        2.746258   -1.339214   -0.462497
      7          1           0        5.170866   -0.929556   -0.307228
      8          6           0        0.291872   -0.045142   -0.062543
      9         16           0       -0.506263   -1.548409    0.417921
     10          6           0       -2.078491   -0.826750    0.211521
     11          6           0       -1.959696    0.530301   -0.179852
     12          6           0       -0.620144    0.977353   -0.338591
     13          1           0       -0.303185    1.976101   -0.642165
     14         16           0       -3.533235    1.253132   -0.372490
     15          6           0       -4.318147   -0.247793    0.064785
     16          6           0       -3.424596   -1.273348    0.350860
     17          1           0       -5.408080   -0.290000    0.088396
     18          1           0       -3.738590   -2.277229    0.642164
     19          8           0        1.965508    2.352298    0.561318
     20          1           0        2.663528    2.942103    0.881304
 ---------------------------------------------------------------------

 The electronic state is 1-A.
 Alpha  occ. eigenvalues --  -91.99746 -91.99024 -91.99003 -20.61686 -11.32498
 Alpha  occ. eigenvalues --  -11.29274 -11.29143 -11.28037 -11.27977 -11.27585
 Alpha  occ. eigenvalues --  -11.27449 -11.26549 -11.26140 -11.25661  -8.99890
 Alpha  occ. eigenvalues --   -8.99137  -8.99116  -6.68055  -6.67964  -6.67776
 Alpha  occ. eigenvalues --   -6.67302  -6.67282  -6.67222  -6.67199  -6.67026
 Alpha  occ. eigenvalues --   -6.66996  -1.41677  -1.20174  -1.17702  -1.11589
 Alpha  occ. eigenvalues --   -1.02386  -1.01971  -0.98933  -0.94435  -0.93784
 Alpha  occ. eigenvalues --   -0.82588  -0.80548  -0.76334  -0.73846  -0.71975
 Alpha  occ. eigenvalues --   -0.69523  -0.66367  -0.65684  -0.61184  -0.60558
 Alpha  occ. eigenvalues --   -0.58298  -0.56354  -0.55551  -0.54271  -0.52963
 Alpha  occ. eigenvalues --   -0.52159  -0.50805  -0.49807  -0.48369  -0.46104
 Alpha  occ. eigenvalues --   -0.45732  -0.38876  -0.35384  -0.33830  -0.31816
 Alpha  occ. eigenvalues --   -0.26364
 Alpha virt. eigenvalues --    0.02716   0.03751   0.03856   0.05088   0.05107
 Alpha virt. eigenvalues --    0.05923   0.06577   0.08182   0.08608   0.09431
 Alpha virt. eigenvalues --    0.10257   0.10461   0.10574   0.10843   0.11349

 Mulliken charges:
               1
     1  C    0.543177
     2  C    0.336099
     3  C    0.704210
     4  C   -0.353413
     5  H   -0.421616
     6  S    0.471127
     7  H   -0.323057
     8  C    0.190665
     9  S    0.471976
    10  C   -0.658903
    11  C    0.034650
    12  C    0.012266
    13  H   -0.415279
    14  S    0.576759
    15  C   -0.165813
    16  C    0.396170
    17  H   -0.351914
    18  H   -0.290311
    19  O   -0.964357
    20  H    0.207564
 Sum of Mulliken charges =  -0.00000

 Dipole moment (field-independent basis, Debye):
    X=              2.2924    Y=              1.0924    Z=              0.5633  Tot=              2.6011
 Quadrupole moment (field-independent basis, Debye-Ang):
   XX=            -78.1924   YY=            -95.7404   ZZ=           -109.6975
   XY=             10.1507   XZ=              1.0216   YZ=              0.6918

 Normal termination of Gaussian 16 at Wed Oct 27 05:27:01 2021.
