 Gaussian 16, Revision C.01,
 Gaussian 16:  ES64L-G16RevC.01  3-Jul-2019

 ----------------------------------
 # opt=modredundant mp2/aug-cc-pvdz
 ----------------------------------

 ------------
 pBTTT_60.pdb
 ------------
 Symbolic Z-matrix:
 Charge =  0 Multiplicity = 1

 SCF Done:  E(RHF) =  -1649.64187747     A.U. after   17 cycles
 E2 =    -0.1968410013D+01 EUMP2 =    -0.16516102874834D+04
 SCF Done:  E(RHF) =  -1649.63264044     A.U. after   15 cycles
 E2 =    -0.1987936749D+01 EUMP2 =    -0.16516205771890D+04
 SCF Done:  E(RHF) =  -1649.63032283     A.U. after   13 cycles
 E2 =    -0.1990870388D+01 EUMP2 =    -0.16516211932194D+04
 SCF Done:  E(RHF) =  -1649.62978279     A.U. after   13 cycles
 E2 =    -0.1991473424D+01 EUMP2 =    -0.16516212562096D+04
 SCF Done:  E(RHF) =  -1649.62989767     A.U. after   12 cycles
 E2 =    -0.1991365520D+01 EUMP2 =    -0.16516212631877D+04
 SCF Done:  E(RHF) =  -1649.62998821     A.U. after   12 cycles
 E2 =    -0.1991277623D+01 EUMP2 =    -0.16516212658282D+04
 SCF Done:  E(RHF) =  -1649.63001148     A.U. after   11 cycles
 E2 =    -0.1991255602D+01 EUMP2 =    -0.16516212670870D+04
 SCF Done:  E(RHF) =  -1649.63000464     A.U. after   11 cycles
 E2 =    -0.1991263094D+01 EUMP2 =    -0.16516212677324D+04
 SCF Done:  E(RHF) =  -1649.62996614     A.U. after    9 cycles
 E2 =    -0.1991302078D+01 EUMP2 =    -0.16516212682209D+04
 SCF Done:  E(RHF) =  -1649.62994020     A.U. after    9 cycles
 E2 =    -0.1991328452D+01 EUMP2 =    -0.16516212686538D+04
 SCF Done:  E(RHF) =  -1649.62994522     A.U. after    9 cycles
 E2 =    -0.1991323653D+01 EUMP2 =    -0.16516212688705D+04
 SCF Done:  E(RHF) =  -1649.62996282     A.U. after    9 cycles
 E2 =    -0.1991306165D+01 EUMP2 =    -0.16516212689848D+04
 Optimization completed.
    -- Stationary point found.

                         Standard orientation:
 ---------------------------------------------------------------------
 Center     Atomic      Atomic             Coordinates (Angstroms)
 Number     Number       Type             X           Y           Z
 ---------------------------------------------------------------------
      1          6           0        4.022539    0.349219    0.396107
      2          6           0        2.676122    0.794959    0.517818
      3          6           0        1.740397   -0.099950   -0.013968
      4          6           0        4.109692   -0.895998   -0.219783
      5          1           0        4.893754    0.906415    0.751458
      6         16           0        2.552186   -1.501784   -0.660934
      7          1           0        5.006693   -1.474963   -0.440051
      8          6           0        0.287058   -0.006415    0.001528
      9         16           0       -0.522593    1.362606   -0.762070
     10          6           0       -2.088139    0.693328   -0.399778
     11          6           0       -1.961408   -0.552811    0.265051
     12          6           0       -0.616639   -0.952000    0.493252
     13          1           0       -0.289120   -1.862066    1.000263
     14         16           0       -3.529014   -1.213714    0.640559
     15          6           0       -4.324343    0.165957   -0.083630
     16          6           0       -3.439030    1.106793   -0.594797
     17          1           0       -5.414642    0.203529   -0.095799
     18          1           0       -3.760804    2.029168   -1.081502
     19          8           0        2.259748    1.973017    1.098087
     20          1           0        3.039378    2.441565    1.429251
 ---------------------------------------------------------------------

 The electronic state is 1-A.
 Alpha  occ. eigenvalues --  -91.99705 -91.99051 -91.98787 -20.61354 -11.32474
 Alpha  occ. eigenvalues --  -11.29249 -11.29072 -11.28072 -11.27687 -11.27550
 Alpha  occ. eigenvalues --  -11.27438 -11.26415 -11.26115 -11.26042  -8.99827
 Alpha  occ. eigenvalues --   -8.99164  -8.98882  -6.67989  -6.67898  -6.67713
 Alpha  occ. eigenvalues --   -6.67330  -6.67250  -6.67053  -6.67042  -6.66957
 Alpha  occ. eigenvalues --   -6.66759  -1.41430  -1.20139  -1.17604  -1.11574
 Alpha  occ. eigenvalues --   -1.02346  -1.01819  -0.98798  -0.94467  -0.93804
 Alpha  occ. eigenvalues --   -0.82433  -0.80417  -0.76373  -0.73895  -0.71524
 Alpha  occ. eigenvalues --   -0.69454  -0.66330  -0.65845  -0.60896  -0.60269
 Alpha  occ. eigenvalues --   -0.58435  -0.56592  -0.55518  -0.53963  -0.52777
 Alpha  occ. eigenvalues --   -0.52664  -0.50710  -0.49445  -0.48495  -0.45783
 Alpha  occ. eigenvalues --   -0.45600  -0.38599  -0.35071  -0.33016  -0.31648
 Alpha  occ. eigenvalues --   -0.27492
 Alpha virt. eigenvalues --    0.02804   0.03734   0.03957   0.04942   0.05103
 Alpha virt. eigenvalues --    0.06232   0.06758   0.08286   0.08523   0.09015
 Alpha virt. eigenvalues --    0.09959   0.10325   0.10431   0.10735   0.11147

 Mulliken charges:
               1
     1  C    0.446301
     2  C    0.616493
     3  C    0.491051
     4  C   -0.246472
     5  H   -0.413012
     6  S    0.396941
     7  H   -0.313789
     8  C    0.262012
     9  S    0.435044
    10  C   -0.626276
    11  C   -0.198596
    12  C    0.095822
    13  H   -0.434771
    14  S    0.618306
    15  C   -0.141783
    16  C    0.435176
    17  H   -0.349470
    18  H   -0.289153
    19  O   -0.976435
    20  H    0.192611
 Sum of Mulliken charges =  -0.00000

 Dipole moment (field-independent basis, Debye):
    X=              2.3648    Y=              0.7303    Z=              0.6165  Tot=              2.5506
 Quadrupole moment (field-independent basis, Debye-Ang):
   XX=            -76.6624   YY=            -99.0257   ZZ=           -107.5079
   XY=              0.3192   XZ=              5.6540   YZ=             -0.0810

 Normal termination of Gaussian 16 at Wed Oct 27 07:58:27 2021.
