 Gaussian 16, Revision C.01,
 Gaussian 16:  ES64L-G16RevC.01  3-Jul-2019

 ----------------------------------
 # opt=modredundant mp2/aug-cc-pvdz
 ----------------------------------

 -------------
 pBTTT_-45.pdb
 -------------
 Symbolic Z-matrix:
 Charge =  0 Multiplicity = 1

 SCF Done:  E(RHF) =  -1649.64215403     A.U. after   17 cycles
 E2 =    -0.1969155167D+01 EUMP2 =    -0.16516113091921D+04
 SCF Done:  E(RHF) =  -1649.63287935     A.U. after   15 cycles
 E2 =    -0.1988653673D+01 EUMP2 =    -0.16516215330255D+04
 SCF Done:  E(RHF) =  -1649.63056111     A.U. after   14 cycles
 E2 =    -0.1991582088D+01 EUMP2 =    -0.16516221432023D+04
 SCF Done:  E(RHF) =  -1649.63001297     A.U. after   13 cycles
 E2 =    -0.1992192989D+01 EUMP2 =    -0.16516222059609D+04
 SCF Done:  E(RHF) =  -1649.63011822     A.U. after   11 cycles
 E2 =    -0.1992094073D+01 EUMP2 =    -0.16516222122891D+04
 SCF Done:  E(RHF) =  -1649.63020559     A.U. after   12 cycles
 E2 =    -0.1992009400D+01 EUMP2 =    -0.16516222149910D+04
 SCF Done:  E(RHF) =  -1649.63023323     A.U. after   10 cycles
 E2 =    -0.1991982917D+01 EUMP2 =    -0.16516222161484D+04
 SCF Done:  E(RHF) =  -1649.63023068     A.U. after   10 cycles
 E2 =    -0.1991986075D+01 EUMP2 =    -0.16516222167512D+04
 SCF Done:  E(RHF) =  -1649.63019621     A.U. after    9 cycles
 E2 =    -0.1992020984D+01 EUMP2 =    -0.16516222171947D+04
 SCF Done:  E(RHF) =  -1649.63017103     A.U. after    9 cycles
 E2 =    -0.1992046682D+01 EUMP2 =    -0.16516222177086D+04
 SCF Done:  E(RHF) =  -1649.63017653     A.U. after    9 cycles
 E2 =    -0.1992041392D+01 EUMP2 =    -0.16516222179211D+04
 SCF Done:  E(RHF) =  -1649.63019605     A.U. after    9 cycles
 E2 =    -0.1992021964D+01 EUMP2 =    -0.16516222180114D+04
 Optimization completed.
    -- Stationary point found.

                         Standard orientation:
 ---------------------------------------------------------------------
 Center     Atomic      Atomic             Coordinates (Angstroms)
 Number     Number       Type             X           Y           Z
 ---------------------------------------------------------------------
      1          6           0       -4.034456    0.351167    0.287822
      2          6           0       -2.697538    0.830536    0.375628
      3          6           0       -1.736460   -0.110772   -0.014402
      4          6           0       -4.092430   -0.964192   -0.162488
      5          1           0       -4.920082    0.937003    0.548894
      6         16           0       -2.517260   -1.595768   -0.495610
      7          1           0       -4.976027   -1.581431   -0.325008
      8          6           0       -0.287796   -0.006181    0.019384
      9         16           0        0.517853    1.458446   -0.549732
     10          6           0        2.085054    0.742742   -0.298073
     11          6           0        1.963368   -0.581900    0.191953
     12          6           0        0.621003   -1.008881    0.374362
     13          1           0        0.300362   -1.979291    0.759842
     14         16           0        3.533768   -1.283519    0.469904
     15          6           0        4.323620    0.184066   -0.062692
     16          6           0        3.433949    1.183348   -0.437799
     17          1           0        5.413800    0.225034   -0.075709
     18          1           0        3.751891    2.164164   -0.795890
     19          8           0       -2.310878    2.084220    0.798705
     20          1           0       -3.102567    2.574616    1.063063
 ---------------------------------------------------------------------

 The electronic state is 1-A.
 Alpha  occ. eigenvalues --  -91.99757 -91.98995 -91.98769 -20.61499 -11.32531
 Alpha  occ. eigenvalues --  -11.29307 -11.29234 -11.27981 -11.27904 -11.27498
 Alpha  occ. eigenvalues --  -11.27358 -11.26522 -11.26068 -11.25925  -8.99890
 Alpha  occ. eigenvalues --   -8.99109  -8.98861  -6.68054  -6.67962  -6.67776
 Alpha  occ. eigenvalues --   -6.67275  -6.67195  -6.67020  -6.66998  -6.66935
 Alpha  occ. eigenvalues --   -6.66735  -1.41569  -1.20132  -1.17677  -1.11566
 Alpha  occ. eigenvalues --   -1.02386  -1.01873  -0.98890  -0.94429  -0.93791
 Alpha  occ. eigenvalues --   -0.82530  -0.80585  -0.76363  -0.73999  -0.71324
 Alpha  occ. eigenvalues --   -0.69565  -0.66457  -0.65802  -0.60935  -0.60423
 Alpha  occ. eigenvalues --   -0.58572  -0.56565  -0.55484  -0.54090  -0.52752
 Alpha  occ. eigenvalues --   -0.52470  -0.50888  -0.49588  -0.48288  -0.45876
 Alpha  occ. eigenvalues --   -0.45640  -0.38735  -0.35289  -0.33624  -0.31625
 Alpha  occ. eigenvalues --   -0.26711
 Alpha virt. eigenvalues --    0.02781   0.03733   0.03939   0.04969   0.05114
 Alpha virt. eigenvalues --    0.06163   0.06252   0.08449   0.08623   0.09236
 Alpha virt. eigenvalues --    0.10290   0.10454   0.10513   0.10722   0.11179

 Mulliken charges:
               1
     1  C    0.454730
     2  C    0.489632
     3  C    0.693697
     4  C   -0.269870
     5  H   -0.417006
     6  S    0.433625
     7  H   -0.320431
     8  C    0.164036
     9  S    0.467175
    10  C   -0.543018
    11  C   -0.202526
    12  C    0.129580
    13  H   -0.449442
    14  S    0.589579
    15  C   -0.164625
    16  C    0.351969
    17  H   -0.350393
    18  H   -0.289778
    19  O   -0.964356
    20  H    0.197420
 Sum of Mulliken charges =  -0.00000

 Dipole moment (field-independent basis, Debye):
    X=             -2.5036    Y=              0.8245    Z=              0.4967  Tot=              2.6823
 Quadrupole moment (field-independent basis, Debye-Ang):
   XX=            -76.4948   YY=            -97.4806   ZZ=           -109.2373
   XY=             -0.4564   XZ=             -4.3518   YZ=              0.0280

 Normal termination of Gaussian 16 at Wed Oct 27 05:58:19 2021.
