 Gaussian 16, Revision C.01,
 Gaussian 16:  ES64L-G16RevC.01  3-Jul-2019

 ----------------------------------
 # opt=modredundant mp2/aug-cc-pvdz
 ----------------------------------

 -----------
 pBTTT_0.pdb
 -----------
 Symbolic Z-matrix:
 Charge =  0 Multiplicity = 1

 SCF Done:  E(RHF) =  -1649.64264762     A.U. after   17 cycles
 E2 =    -0.1969985974D+01 EUMP2 =    -0.16516126335925D+04
 SCF Done:  E(RHF) =  -1649.63327458     A.U. after   15 cycles
 E2 =    -0.1989687754D+01 EUMP2 =    -0.16516229623367D+04
 SCF Done:  E(RHF) =  -1649.63098495     A.U. after   14 cycles
 E2 =    -0.1992550895D+01 EUMP2 =    -0.16516235358478D+04
 SCF Done:  E(RHF) =  -1649.63053716     A.U. after   13 cycles
 E2 =    -0.1993043837D+01 EUMP2 =    -0.16516235810012D+04
 SCF Done:  E(RHF) =  -1649.63067209     A.U. after   11 cycles
 E2 =    -0.1992911776D+01 EUMP2 =    -0.16516235838664D+04
 Optimization completed.
    -- Stationary point found.

                         Standard orientation:
 ---------------------------------------------------------------------
 Center     Atomic      Atomic             Coordinates (Angstroms)
 Number     Number       Type             X           Y           Z
 ---------------------------------------------------------------------
      1          6           0        0.866985    3.966182    0.000000
      2          6           0        1.185813    2.579081    0.000000
      3          6           0        0.064865    1.737073    0.000000
      4          6           0       -0.504134    4.188614    0.000000
      5          1           0        1.608539    4.769552    0.000000
      6         16           0       -1.393650    2.702261    0.000000
      7          1           0       -1.035204    5.140266    0.000000
      8          6           0        0.000000    0.289669    0.000000
      9         16           0        1.476880   -0.688825    0.000000
     10          6           0        0.545669   -2.159919    0.000000
     11          6           0       -0.844102   -1.885187    0.000000
     12          6           0       -1.156524   -0.501761    0.000000
     13          1           0       -2.164312   -0.079443    0.000000
     14         16           0       -1.766648   -3.363788    0.000000
     15          6           0       -0.300298   -4.319870    0.000000
     16          6           0        0.857473   -3.551000    0.000000
     17          1           0       -0.376896   -5.408177    0.000000
     18          1           0        1.860885   -3.980701    0.000000
     19          8           0        2.456249    2.042338    0.000000
     20          1           0        3.097193    2.768146    0.000000
 ---------------------------------------------------------------------

 The electronic state is 1-A'.
 Alpha  occ. eigenvalues --  -91.99767 -91.98863 -91.98758 -20.61893 -11.32729
 Alpha  occ. eigenvalues --  -11.29506 -11.29506 -11.28319 -11.27784 -11.27421
 Alpha  occ. eigenvalues --  -11.27036 -11.26720 -11.25951 -11.25708  -8.99928
 Alpha  occ. eigenvalues --   -8.98976  -8.98823  -6.68098  -6.68006  -6.67815
 Alpha  occ. eigenvalues --   -6.67142  -6.67063  -6.66978  -6.66892  -6.66866
 Alpha  occ. eigenvalues --   -6.66690  -1.41978  -1.20063  -1.17785  -1.11502
 Alpha  occ. eigenvalues --   -1.02466  -1.01919  -0.99034  -0.94341  -0.93765
 Alpha  occ. eigenvalues --   -0.82691  -0.80935  -0.76346  -0.74236  -0.70975
 Alpha  occ. eigenvalues --   -0.69824  -0.66879  -0.65608  -0.61058  -0.60838
 Alpha  occ. eigenvalues --   -0.58705  -0.56558  -0.55435  -0.54338  -0.52677
 Alpha  occ. eigenvalues --   -0.52014  -0.51377  -0.49723  -0.47841  -0.46294
 Alpha  occ. eigenvalues --   -0.45304  -0.39055  -0.35615  -0.34232  -0.31616
 Alpha  occ. eigenvalues --   -0.25731
 Alpha virt. eigenvalues --    0.02698   0.03684   0.03893   0.04968   0.05113
 Alpha virt. eigenvalues --    0.05429   0.06244   0.08490   0.09463   0.09555
 Alpha virt. eigenvalues --    0.10353   0.10692   0.10794   0.11144   0.11376

 Mulliken charges:
               1
     1  C    0.729912
     2  C    0.043282
     3  C    0.945025
     4  C   -0.364226
     5  H   -0.423021
     6  S    0.561914
     7  H   -0.363971
     8  C    0.132444
     9  S    0.454460
    10  C   -0.506932
    11  C   -0.023822
    12  C    0.162417
    13  H   -0.480552
    14  S    0.497161
    15  C   -0.220683
    16  C    0.290843
    17  H   -0.361411
    18  H   -0.305201
    19  O   -0.988342
    20  H    0.220702
 Sum of Mulliken charges =  -0.00000

 Dipole moment (field-independent basis, Debye):
    X=              1.3975    Y=              2.6564    Z=              0.0000  Tot=              3.0016
 Quadrupole moment (field-independent basis, Debye-Ang):
   XX=            -94.6655   YY=            -76.9208   ZZ=           -111.5970
   XY=              3.2538   XZ=              0.0000   YZ=              0.0000

 Normal termination of Gaussian 16 at Wed Oct 27 05:22:49 2021.
