 Gaussian 16, Revision C.01,
 Gaussian 16:  ES64L-G16RevC.01  3-Jul-2019

 ----------------------------------
 # opt=modredundant mp2/aug-cc-pvdz
 ----------------------------------

 --------------
 pBTTT_-150.pdb
 --------------
 Symbolic Z-matrix:
 Charge =  0 Multiplicity = 1

 SCF Done:  E(RHF) =  -1649.64263582     A.U. after   17 cycles
 E2 =    -0.1969845818D+01 EUMP2 =    -0.16516124816417D+04
 SCF Done:  E(RHF) =  -1649.63338414     A.U. after   15 cycles
 E2 =    -0.1989283885D+01 EUMP2 =    -0.16516226680242D+04
 SCF Done:  E(RHF) =  -1649.63112204     A.U. after   14 cycles
 E2 =    -0.1992138727D+01 EUMP2 =    -0.16516232607691D+04
 SCF Done:  E(RHF) =  -1649.63059097     A.U. after   13 cycles
 E2 =    -0.1992718839D+01 EUMP2 =    -0.16516233098096D+04
 SCF Done:  E(RHF) =  -1649.63066451     A.U. after   11 cycles
 E2 =    -0.1992651678D+01 EUMP2 =    -0.16516233161920D+04
 SCF Done:  E(RHF) =  -1649.63080038     A.U. after   12 cycles
 E2 =    -0.1992520956D+01 EUMP2 =    -0.16516233213351D+04
 SCF Done:  E(RHF) =  -1649.63086873     A.U. after   11 cycles
 E2 =    -0.1992454610D+01 EUMP2 =    -0.16516233233438D+04
 SCF Done:  E(RHF) =  -1649.63088014     A.U. after   11 cycles
 E2 =    -0.1992444436D+01 EUMP2 =    -0.16516233245768D+04
 SCF Done:  E(RHF) =  -1649.63081786     A.U. after   11 cycles
 E2 =    -0.1992507661D+01 EUMP2 =    -0.16516233255195D+04
 SCF Done:  E(RHF) =  -1649.63080944     A.U. after    9 cycles
 E2 =    -0.1992516215D+01 EUMP2 =    -0.16516233256500D+04
 Optimization completed.
    -- Stationary point found.

                         Standard orientation:
 ---------------------------------------------------------------------
 Center     Atomic      Atomic             Coordinates (Angstroms)
 Number     Number       Type             X           Y           Z
 ---------------------------------------------------------------------
      1          6           0        3.939474    0.876944    0.145067
      2          6           0        2.544799    1.150832    0.204495
      3          6           0        1.739948    0.035177   -0.066016
      4          6           0        4.201127   -0.453809   -0.164459
      5          1           0        4.723228    1.618023    0.324460
      6         16           0        2.742890   -1.353398   -0.405185
      7          1           0        5.168832   -0.942478   -0.276769
      8          6           0        0.291858   -0.041994   -0.047126
      9         16           0       -0.508808   -1.563268    0.369370
     10          6           0       -2.080217   -0.834099    0.183502
     11          6           0       -1.959617    0.536587   -0.155568
     12          6           0       -0.619638    0.990212   -0.289681
     13          1           0       -0.302383    1.999690   -0.554228
     14         16           0       -3.532412    1.266638   -0.326188
     15          6           0       -4.319130   -0.249482    0.051286
     16          6           0       -3.426626   -1.285332    0.301801
     17          1           0       -5.409148   -0.292491    0.068646
     18          1           0       -3.741741   -2.299439    0.553816
     19          8           0        1.973332    2.373823    0.490236
     20          1           0        2.675972    2.976344    0.774427
 ---------------------------------------------------------------------

 The electronic state is 1-A.
 Alpha  occ. eigenvalues --  -91.99758 -91.99018 -91.99002 -20.61753 -11.32510
 Alpha  occ. eigenvalues --  -11.29280 -11.29192 -11.28096 -11.27964 -11.27583
 Alpha  occ. eigenvalues --  -11.27443 -11.26571 -11.26138 -11.25618  -8.99905
 Alpha  occ. eigenvalues --   -8.99131  -8.99119  -6.68071  -6.67979  -6.67791
 Alpha  occ. eigenvalues --   -6.67296  -6.67286  -6.67217  -6.67203  -6.67020
 Alpha  occ. eigenvalues --   -6.67000  -1.41738  -1.20178  -1.17719  -1.11591
 Alpha  occ. eigenvalues --   -1.02394  -1.01991  -0.98954  -0.94431  -0.93787
 Alpha  occ. eigenvalues --   -0.82613  -0.80597  -0.76333  -0.73878  -0.71969
 Alpha  occ. eigenvalues --   -0.69567  -0.66403  -0.65642  -0.61203  -0.60603
 Alpha  occ. eigenvalues --   -0.58332  -0.56340  -0.55566  -0.54303  -0.52991
 Alpha  occ. eigenvalues --   -0.52065  -0.50880  -0.49863  -0.48322  -0.46157
 Alpha  occ. eigenvalues --   -0.45710  -0.38929  -0.35449  -0.33909  -0.31825
 Alpha  occ. eigenvalues --   -0.26218
 Alpha virt. eigenvalues --    0.02702   0.03749   0.03848   0.05088   0.05113
 Alpha virt. eigenvalues --    0.05807   0.06622   0.08196   0.08648   0.09468
 Alpha virt. eigenvalues --    0.10321   0.10468   0.10667   0.10848   0.11374

 Mulliken charges:
               1
     1  C    0.549609
     2  C    0.323185
     3  C    0.704548
     4  C   -0.357787
     5  H   -0.425558
     6  S    0.480409
     7  H   -0.326897
     8  C    0.179922
     9  S    0.472776
    10  C   -0.641237
    11  C    0.043277
    12  C    0.052216
    13  H   -0.418973
    14  S    0.562561
    15  C   -0.176397
    16  C    0.380520
    17  H   -0.352326
    18  H   -0.290669
    19  O   -0.970846
    20  H    0.211667
 Sum of Mulliken charges =  -0.00000

 Dipole moment (field-independent basis, Debye):
    X=              2.3157    Y=              1.1130    Z=              0.4865  Tot=              2.6150
 Quadrupole moment (field-independent basis, Debye-Ang):
   XX=            -78.1126   YY=            -95.3313   ZZ=           -110.1298
   XY=             10.3321   XZ=              0.9123   YZ=              0.6674

 Normal termination of Gaussian 16 at Wed Oct 27 05:51:34 2021.
