 Gaussian 16, Revision C.01,
 Gaussian 16:  ES64L-G16RevC.01  3-Jul-2019

 ----------------------------------
 # opt=modredundant mp2/aug-cc-pvdz
 ----------------------------------

 -------------
 pBTTT_110.pdb
 -------------
 Symbolic Z-matrix:
 Charge =  0 Multiplicity = 1

 SCF Done:  E(RHF) =  -1649.64169284     A.U. after   17 cycles
 E2 =    -0.1968146758D+01 EUMP2 =    -0.16516098395993D+04
 SCF Done:  E(RHF) =  -1649.63243048     A.U. after   14 cycles
 E2 =    -0.1987587834D+01 EUMP2 =    -0.16516200183156D+04
 SCF Done:  E(RHF) =  -1649.63010941     A.U. after   14 cycles
 E2 =    -0.1990532919D+01 EUMP2 =    -0.16516206423271D+04
 SCF Done:  E(RHF) =  -1649.62952258     A.U. after   13 cycles
 E2 =    -0.1991185619D+01 EUMP2 =    -0.16516207082025D+04
 SCF Done:  E(RHF) =  -1649.62960576     A.U. after   12 cycles
 E2 =    -0.1991109011D+01 EUMP2 =    -0.16516207147750D+04
 SCF Done:  E(RHF) =  -1649.62971723     A.U. after   11 cycles
 E2 =    -0.1991002180D+01 EUMP2 =    -0.16516207194080D+04
 SCF Done:  E(RHF) =  -1649.62976397     A.U. after   11 cycles
 E2 =    -0.1990956710D+01 EUMP2 =    -0.16516207206837D+04
 SCF Done:  E(RHF) =  -1649.62975067     A.U. after   10 cycles
 E2 =    -0.1990970322D+01 EUMP2 =    -0.16516207209963D+04
 SCF Done:  E(RHF) =  -1649.62972405     A.U. after    9 cycles
 E2 =    -0.1990997158D+01 EUMP2 =    -0.16516207212043D+04
 SCF Done:  E(RHF) =  -1649.62971473     A.U. after    9 cycles
 E2 =    -0.1991006609D+01 EUMP2 =    -0.16516207213414D+04
 SCF Done:  E(RHF) =  -1649.62971455     A.U. after    9 cycles
 E2 =    -0.1991006864D+01 EUMP2 =    -0.16516207214156D+04
 Optimization completed.
    -- Stationary point found.

                         Standard orientation:
 ---------------------------------------------------------------------
 Center     Atomic      Atomic             Coordinates (Angstroms)
 Number     Number       Type             X           Y           Z
 ---------------------------------------------------------------------
      1          6           0       -3.937267    0.785330    0.311374
      2          6           0       -2.540027    1.011986    0.467173
      3          6           0       -1.744246    0.032361   -0.136838
      4          6           0       -4.202410   -0.383355   -0.396311
      5          1           0       -4.719526    1.440923    0.703786
      6         16           0       -2.749807   -1.184795   -0.879567
      7          1           0       -5.173606   -0.799968   -0.663941
      8          6           0       -0.289338   -0.062662   -0.108515
      9         16           0        0.498135   -1.349017    0.810104
     10          6           0        2.073992   -0.717571    0.425141
     11          6           0        1.964927    0.457699   -0.361275
     12          6           0        0.626936    0.828899   -0.666409
     13          1           0        0.311851    1.691766   -1.256196
     14         16           0        3.542059    1.088421   -0.747843
     15          6           0        4.317484   -0.209142    0.132439
     16          6           0        3.418940   -1.101015    0.704606
     17          1           0        5.406938   -0.239586    0.182065
     18          1           0        3.727209   -1.969256    1.289665
     19          8           0       -1.958812    2.068979    1.131910
     20          1           0       -2.662507    2.595363    1.537923
 ---------------------------------------------------------------------

 The electronic state is 1-A.
 Alpha  occ. eigenvalues --  -91.99590 -91.99084 -91.98912 -20.61321 -11.32465
 Alpha  occ. eigenvalues --  -11.29248 -11.28836 -11.28125 -11.27618 -11.27549
 Alpha  occ. eigenvalues --  -11.27481 -11.26339 -11.26164 -11.26008  -8.99717
 Alpha  occ. eigenvalues --   -8.99197  -8.99004  -6.67880  -6.67788  -6.67604
 Alpha  occ. eigenvalues --   -6.67363  -6.67283  -6.67166  -6.67086  -6.67082
 Alpha  occ. eigenvalues --   -6.66883  -1.41385  -1.20131  -1.17543  -1.11558
 Alpha  occ. eigenvalues --   -1.02321  -1.01784  -0.98739  -0.94465  -0.93791
 Alpha  occ. eigenvalues --   -0.82372  -0.80261  -0.76368  -0.73689  -0.71975
 Alpha  occ. eigenvalues --   -0.69299  -0.66273  -0.65818  -0.61016  -0.60221
 Alpha  occ. eigenvalues --   -0.58097  -0.56480  -0.55569  -0.53923  -0.52873
 Alpha  occ. eigenvalues --   -0.52766  -0.50476  -0.49373  -0.48648  -0.45874
 Alpha  occ. eigenvalues --   -0.45546  -0.38527  -0.34915  -0.32626  -0.31609
 Alpha  occ. eigenvalues --   -0.28057
 Alpha virt. eigenvalues --    0.02783   0.03730   0.03936   0.04959   0.05077
 Alpha virt. eigenvalues --    0.06224   0.07312   0.08053   0.08405   0.08955
 Alpha virt. eigenvalues --    0.09475   0.10123   0.10435   0.10920   0.11256

 Mulliken charges:
               1
     1  C    0.590339
     2  C    0.397732
     3  C    0.557211
     4  C   -0.354854
     5  H   -0.407454
     6  S    0.411087
     7  H   -0.311889
     8  C    0.353351
     9  S    0.412073
    10  C   -0.761570
    11  C   -0.122428
    12  C   -0.005015
    13  H   -0.388350
    14  S    0.638257
    15  C   -0.129729
    16  C    0.539579
    17  H   -0.349521
    18  H   -0.292524
    19  O   -0.964191
    20  H    0.187896
 Sum of Mulliken charges =  -0.00000

 Dipole moment (field-independent basis, Debye):
    X=             -2.1527    Y=              0.9915    Z=              0.7333  Tot=              2.4809
 Quadrupole moment (field-independent basis, Debye-Ang):
   XX=            -78.0993   YY=            -99.4413   ZZ=           -105.9868
   XY=             -8.9129   XZ=             -0.7826   YZ=              0.1387

 Normal termination of Gaussian 16 at Wed Oct 27 07:55:07 2021.
