 Gaussian 16, Revision C.01,
 Gaussian 16:  ES64L-G16RevC.01  3-Jul-2019

 ----------------------------------
 # opt=modredundant mp2/aug-cc-pvdz
 ----------------------------------

 -------------
 pBTTT_135.pdb
 -------------
 Symbolic Z-matrix:
 Charge =  0 Multiplicity = 1

 SCF Done:  E(RHF) =  -1649.64246158     A.U. after   17 cycles
 E2 =    -0.1969137099D+01 EUMP2 =    -0.16516115986835D+04
 SCF Done:  E(RHF) =  -1649.63322216     A.U. after   15 cycles
 E2 =    -0.1988606019D+01 EUMP2 =    -0.16516218281762D+04
 SCF Done:  E(RHF) =  -1649.63089266     A.U. after   14 cycles
 E2 =    -0.1991567578D+01 EUMP2 =    -0.16516224602370D+04
 SCF Done:  E(RHF) =  -1649.63030093     A.U. after   13 cycles
 E2 =    -0.1992218882D+01 EUMP2 =    -0.16516225198153D+04
 SCF Done:  E(RHF) =  -1649.63037097     A.U. after   12 cycles
 E2 =    -0.1992155130D+01 EUMP2 =    -0.16516225261017D+04
 SCF Done:  E(RHF) =  -1649.63052095     A.U. after   12 cycles
 E2 =    -0.1992011099D+01 EUMP2 =    -0.16516225320483D+04
 SCF Done:  E(RHF) =  -1649.63058062     A.U. after   11 cycles
 E2 =    -0.1991952898D+01 EUMP2 =    -0.16516225335154D+04
 SCF Done:  E(RHF) =  -1649.63058388     A.U. after   11 cycles
 E2 =    -0.1991950434D+01 EUMP2 =    -0.16516225343106D+04
 SCF Done:  E(RHF) =  -1649.63054080     A.U. after   11 cycles
 E2 =    -0.1991994413D+01 EUMP2 =    -0.16516225352102D+04
 SCF Done:  E(RHF) =  -1649.63052739     A.U. after   10 cycles
 E2 =    -0.1992008259D+01 EUMP2 =    -0.16516225356503D+04
 SCF Done:  E(RHF) =  -1649.63052957     A.U. after    9 cycles
 E2 =    -0.1992006131D+01 EUMP2 =    -0.16516225356985D+04
 Optimization completed.
    -- Stationary point found.

                         Standard orientation:
 ---------------------------------------------------------------------
 Center     Atomic      Atomic             Coordinates (Angstroms)
 Number     Number       Type             X           Y           Z
 ---------------------------------------------------------------------
      1          6           0       -3.931820    0.858190    0.224631
      2          6           0       -2.534605    1.118377    0.297222
      3          6           0       -1.741052    0.037786   -0.109248
      4          6           0       -4.203151   -0.430937   -0.223426
      5          1           0       -4.710200    1.577461    0.493793
      6         16           0       -2.753360   -1.304704   -0.578159
      7          1           0       -5.175289   -0.899331   -0.377170
      8          6           0       -0.291650   -0.051891   -0.091026
      9         16           0        0.500756   -1.510341    0.517772
     10          6           0        2.074979   -0.807201    0.269299
     11          6           0        1.960699    0.514915   -0.229560
     12          6           0        0.622350    0.945724   -0.437096
     13          1           0        0.306980    1.917809   -0.819735
     14         16           0        3.536127    1.219149   -0.469086
     15          6           0        4.316419   -0.242849    0.091106
     16          6           0        3.420175   -1.242275    0.450804
     17          1           0        5.406106   -0.282890    0.126810
     18          1           0        3.731218   -2.220103    0.822733
     19          8           0       -1.950814    2.297449    0.710663
     20          1           0       -2.642737    2.862762    1.083599
 ---------------------------------------------------------------------

 The electronic state is 1-A.
 Alpha  occ. eigenvalues --  -91.99710 -91.99038 -91.98994 -20.61557 -11.32486
 Alpha  occ. eigenvalues --  -11.29268 -11.29042 -11.28010 -11.27903 -11.27587
 Alpha  occ. eigenvalues --  -11.27465 -11.26495 -11.26145 -11.25755  -8.99850
 Alpha  occ. eigenvalues --   -8.99151  -8.99098  -6.68014  -6.67922  -6.67736
 Alpha  occ. eigenvalues --   -6.67316  -6.67262  -6.67236  -6.67179  -6.67040
 Alpha  occ. eigenvalues --   -6.66977  -1.41565  -1.20162  -1.17662  -1.11581
 Alpha  occ. eigenvalues --   -1.02367  -1.01925  -0.98885  -0.94441  -0.93780
 Alpha  occ. eigenvalues --   -0.82530  -0.80452  -0.76340  -0.73786  -0.71984
 Alpha  occ. eigenvalues --   -0.69436  -0.66303  -0.65764  -0.61138  -0.60463
 Alpha  occ. eigenvalues --   -0.58229  -0.56390  -0.55529  -0.54186  -0.52906
 Alpha  occ. eigenvalues --   -0.52362  -0.50669  -0.49683  -0.48463  -0.45990
 Alpha  occ. eigenvalues --   -0.45754  -0.38762  -0.35243  -0.33613  -0.31781
 Alpha  occ. eigenvalues --   -0.26729
 Alpha virt. eigenvalues --    0.02741   0.03749   0.03876   0.05082   0.05086
 Alpha virt. eigenvalues --    0.06139   0.06564   0.08150   0.08540   0.09330
 Alpha virt. eigenvalues --    0.10157   0.10274   0.10507   0.10860   0.11306

 Mulliken charges:
               1
     1  C    0.535898
     2  C    0.374846
     3  C    0.682878
     4  C   -0.345012
     5  H   -0.414942
     6  S    0.450622
     7  H   -0.317883
     8  C    0.211900
     9  S    0.463036
    10  C   -0.703634
    11  C    0.016493
    12  C   -0.033532
    13  H   -0.409965
    14  S    0.600456
    15  C   -0.147497
    16  C    0.435769
    17  H   -0.351150
    18  H   -0.289914
    19  O   -0.959820
    20  H    0.201452
 Sum of Mulliken charges =  -0.00000

 Dipole moment (field-independent basis, Debye):
    X=             -2.2462    Y=              1.0542    Z=              0.6827  Tot=              2.5735
 Quadrupole moment (field-independent basis, Debye-Ang):
   XX=            -78.3020   YY=            -96.6563   ZZ=           -108.7351
   XY=             -9.7727   XZ=             -1.1347   YZ=              0.6312

 Normal termination of Gaussian 16 at Wed Oct 27 08:01:41 2021.
