 Gaussian 16, Revision C.01,
 Gaussian 16:  ES64L-G16RevC.01  3-Jul-2019

 ----------------------------------
 # opt=modredundant mp2/aug-cc-pvdz
 ----------------------------------

 -------------
 pBTTT_-65.pdb
 -------------
 Symbolic Z-matrix:
 Charge =  0 Multiplicity = 1

 SCF Done:  E(RHF) =  -1649.64177555     A.U. after   17 cycles
 E2 =    -0.1968423820D+01 EUMP2 =    -0.16516101993698D+04
 SCF Done:  E(RHF) =  -1649.63251197     A.U. after   14 cycles
 E2 =    -0.1987770455D+01 EUMP2 =    -0.16516202824280D+04
 SCF Done:  E(RHF) =  -1649.63021994     A.U. after   13 cycles
 E2 =    -0.1990663517D+01 EUMP2 =    -0.16516208834538D+04
 SCF Done:  E(RHF) =  -1649.62970394     A.U. after   13 cycles
 E2 =    -0.1991238430D+01 EUMP2 =    -0.16516209423699D+04
 SCF Done:  E(RHF) =  -1649.62982089     A.U. after   12 cycles
 E2 =    -0.1991127620D+01 EUMP2 =    -0.16516209485064D+04
 SCF Done:  E(RHF) =  -1649.62990643     A.U. after   11 cycles
 E2 =    -0.1991044302D+01 EUMP2 =    -0.16516209507287D+04
 SCF Done:  E(RHF) =  -1649.62992514     A.U. after   11 cycles
 E2 =    -0.1991026648D+01 EUMP2 =    -0.16516209517906D+04
 SCF Done:  E(RHF) =  -1649.62990922     A.U. after   11 cycles
 E2 =    -0.1991043315D+01 EUMP2 =    -0.16516209525327D+04
 SCF Done:  E(RHF) =  -1649.62987929     A.U. after   10 cycles
 E2 =    -0.1991073672D+01 EUMP2 =    -0.16516209529581D+04
 SCF Done:  E(RHF) =  -1649.62986361     A.U. after    9 cycles
 E2 =    -0.1991089588D+01 EUMP2 =    -0.16516209531968D+04
 SCF Done:  E(RHF) =  -1649.62987313     A.U. after    9 cycles
 E2 =    -0.1991080246D+01 EUMP2 =    -0.16516209533722D+04
 SCF Done:  E(RHF) =  -1649.62988313     A.U. after    9 cycles
 E2 =    -0.1991070303D+01 EUMP2 =    -0.16516209534319D+04
 Optimization completed.
    -- Stationary point found.

                         Standard orientation:
 ---------------------------------------------------------------------
 Center     Atomic      Atomic             Coordinates (Angstroms)
 Number     Number       Type             X           Y           Z
 ---------------------------------------------------------------------
      1          6           0       -4.016450    0.352634    0.434229
      2          6           0       -2.664691    0.779228    0.567449
      3          6           0       -1.741718   -0.099379   -0.010836
      4          6           0       -4.119375   -0.861898   -0.238007
      5          1           0       -4.880096    0.900833    0.820664
      6         16           0       -2.570847   -1.462668   -0.715039
      7          1           0       -5.023507   -1.421694   -0.477936
      8          6           0       -0.286678   -0.011089   -0.004963
      9         16           0        0.522548    1.318690   -0.834792
     10          6           0        2.088315    0.671541   -0.436037
     11          6           0        1.961669   -0.539829    0.290533
     12          6           0        0.616707   -0.929307    0.535114
     13          1           0        0.288484   -1.814137    1.084444
     14         16           0        3.529265   -1.180964    0.698762
     15          6           0        4.324531    0.160300   -0.094207
     16          6           0        3.439390    1.074109   -0.652305
     17          1           0        5.414817    0.197806   -0.107261
     18          1           0        3.761283    1.970799   -1.184748
     19          8           0       -2.232587    1.924791    1.198360
     20          1           0       -3.005938    2.389286    1.549238
 ---------------------------------------------------------------------

 The electronic state is 1-A.
 Alpha  occ. eigenvalues --  -91.99680 -91.99065 -91.98793 -20.61319 -11.32458
 Alpha  occ. eigenvalues --  -11.29236 -11.29015 -11.28098 -11.27616 -11.27569
 Alpha  occ. eigenvalues --  -11.27451 -11.26380 -11.26128 -11.26077  -8.99799
 Alpha  occ. eigenvalues --   -8.99179  -8.98887  -6.67961  -6.67869  -6.67685
 Alpha  occ. eigenvalues --   -6.67345  -6.67265  -6.67068  -6.67048  -6.66963
 Alpha  occ. eigenvalues --   -6.66765  -1.41399  -1.20137  -1.17578  -1.11573
 Alpha  occ. eigenvalues --   -1.02334  -1.01798  -0.98767  -0.94477  -0.93806
 Alpha  occ. eigenvalues --   -0.82401  -0.80366  -0.76375  -0.73862  -0.71591
 Alpha  occ. eigenvalues --   -0.69421  -0.66309  -0.65845  -0.60888  -0.60231
 Alpha  occ. eigenvalues --   -0.58379  -0.56600  -0.55531  -0.53923  -0.52807
 Alpha  occ. eigenvalues --   -0.52703  -0.50659  -0.49394  -0.48555  -0.45796
 Alpha  occ. eigenvalues --   -0.45540  -0.38562  -0.35002  -0.32747  -0.31658
 Alpha  occ. eigenvalues --   -0.27799
 Alpha virt. eigenvalues --    0.02807   0.03731   0.03963   0.04927   0.05100
 Alpha virt. eigenvalues --    0.06229   0.06980   0.08222   0.08506   0.08962
 Alpha virt. eigenvalues --    0.09753   0.10298   0.10424   0.10733   0.11170

 Mulliken charges:
               1
     1  C    0.464984
     2  C    0.619682
     3  C    0.433478
     4  C   -0.251326
     5  H   -0.411513
     6  S    0.387660
     7  H   -0.312210
     8  C    0.325127
     9  S    0.430219
    10  C   -0.663537
    11  C   -0.196429
    12  C    0.069486
    13  H   -0.427771
    14  S    0.627820
    15  C   -0.138390
    16  C    0.471362
    17  H   -0.349432
    18  H   -0.289784
    19  O   -0.981374
    20  H    0.191948
 Sum of Mulliken charges =  -0.00000

 Dipole moment (field-independent basis, Debye):
    X=             -2.3210    Y=              0.7133    Z=              0.6518  Tot=              2.5141
 Quadrupole moment (field-independent basis, Debye-Ang):
   XX=            -76.7605   YY=            -99.6117   ZZ=           -106.8214
   XY=             -0.3377   XZ=             -6.0638   YZ=             -0.1131

 Normal termination of Gaussian 16 at Wed Oct 27 06:57:21 2021.
