 Gaussian 16, Revision C.01,
 Gaussian 16:  ES64L-G16RevC.01  3-Jul-2019

 -------------------------------------
 # opt=modredundant b3lyp/6-311+g(d,p)
 -------------------------------------

 -------------
 pBTTT_-35.pdb
 -------------
 Symbolic Z-matrix:
 Charge =  0 Multiplicity = 1

 SCF Done:  E(RB3LYP) =  -1654.53490089     A.U. after   16 cycles
 SCF Done:  E(RB3LYP) =  -1654.58755005     A.U. after   15 cycles
 SCF Done:  E(RB3LYP) =  -1654.62021136     A.U. after   15 cycles
 SCF Done:  E(RB3LYP) =  -1654.62929586     A.U. after   17 cycles
 SCF Done:  E(RB3LYP) =  -1654.63128341     A.U. after   14 cycles
 SCF Done:  E(RB3LYP) =  -1654.63169292     A.U. after   13 cycles
 SCF Done:  E(RB3LYP) =  -1654.63178129     A.U. after   13 cycles
 SCF Done:  E(RB3LYP) =  -1654.63193638     A.U. after   12 cycles
 SCF Done:  E(RB3LYP) =  -1654.63194875     A.U. after   12 cycles
 SCF Done:  E(RB3LYP) =  -1654.63195314     A.U. after   11 cycles
 SCF Done:  E(RB3LYP) =  -1654.63195607     A.U. after   10 cycles
 Optimization completed.
    -- Stationary point found.

                         Standard orientation:
 ---------------------------------------------------------------------
 Center     Atomic      Atomic             Coordinates (Angstroms)
 Number     Number       Type             X           Y           Z
 ---------------------------------------------------------------------
      1          6           0       -4.026691    0.349246    0.218008
      2          6           0       -2.688707    0.834585    0.292820
      3          6           0       -1.730339   -0.112687   -0.000126
      4          6           0       -4.084725   -0.968271   -0.132360
      5          1           0       -4.899676    0.957371    0.422180
      6         16           0       -2.512308   -1.635006   -0.393908
      7          1           0       -4.960649   -1.585015   -0.259992
      8          6           0       -0.285953   -0.007889    0.026403
      9         16           0        0.529180    1.499097   -0.427328
     10          6           0        2.090052    0.751714   -0.233496
     11          6           0        1.958321   -0.577197    0.148302
     12          6           0        0.617059   -1.010932    0.299609
     13          1           0        0.318135   -2.003404    0.607821
     14         16           0        3.524524   -1.312521    0.370299
     15          6           0        4.315457    0.189298   -0.055741
     16          6           0        3.438525    1.194675   -0.346387
     17          1           0        5.393932    0.228336   -0.068833
     18          1           0        3.745080    2.192030   -0.629769
     19          8           0       -2.342812    2.112655    0.629104
     20          1           0       -3.134651    2.629066    0.808559
 ---------------------------------------------------------------------

 The electronic state is 1-A.
 Alpha  occ. eigenvalues --  -88.88629 -88.87950 -88.87692 -19.17059 -10.24954
 Alpha  occ. eigenvalues --  -10.22142 -10.21476 -10.21454 -10.20632 -10.20553
 Alpha  occ. eigenvalues --  -10.20500 -10.19350 -10.18876 -10.18733  -7.97228
 Alpha  occ. eigenvalues --   -7.96524  -7.96247  -5.93536  -5.93159  -5.92838
 Alpha  occ. eigenvalues --   -5.92792  -5.92573  -5.92474  -5.92204  -5.92071
 Alpha  occ. eigenvalues --   -5.91768  -1.08118  -0.91191  -0.89376  -0.84594
 Alpha  occ. eigenvalues --   -0.77052  -0.76133  -0.74376  -0.70906  -0.70137
 Alpha  occ. eigenvalues --   -0.61914  -0.61134  -0.57212  -0.56048  -0.53269
 Alpha  occ. eigenvalues --   -0.52106  -0.49289  -0.48642  -0.45310  -0.43768
 Alpha  occ. eigenvalues --   -0.43638  -0.41242  -0.40909  -0.39461  -0.38914
 Alpha  occ. eigenvalues --   -0.38015  -0.36900  -0.36302  -0.35636  -0.33919
 Alpha  occ. eigenvalues --   -0.33537  -0.28743  -0.26650  -0.24779  -0.23160
 Alpha  occ. eigenvalues --   -0.20216
 Alpha virt. eigenvalues --   -0.05640  -0.01938  -0.01680  -0.00122   0.00040
 Alpha virt. eigenvalues --    0.00267   0.01183   0.01704   0.02286   0.02807
 Alpha virt. eigenvalues --    0.03133   0.03711   0.04157   0.04378   0.04710

 Mulliken charges:
               1
     1  C   -0.199397
     2  C   -0.191975
     3  C    0.619666
     4  C   -0.107791
     5  H    0.119090
     6  S   -0.410412
     7  H    0.163939
     8  C    0.368704
     9  S   -0.391459
    10  C    0.372014
    11  C    0.146992
    12  C   -0.150369
    13  H    0.138452
    14  S   -0.416389
    15  C   -0.135874
    16  C   -0.242148
    17  H    0.165557
    18  H    0.133810
    19  O   -0.238409
    20  H    0.256001
 Sum of Mulliken charges =  -0.00000

 Dipole moment (field-independent basis, Debye):
    X=             -2.2949    Y=              0.8230    Z=              0.3078  Tot=              2.4574
 Quadrupole moment (field-independent basis, Debye-Ang):
   XX=            -78.1853   YY=            -95.6893   ZZ=           -107.8428
   XY=             -1.4907   XZ=             -2.9743   YZ=              0.0510

 Normal termination of Gaussian 16 at Sun Oct 17 02:03:22 2021.
