 Gaussian 16, Revision C.01,
 Gaussian 16:  ES64L-G16RevC.01  3-Jul-2019

 -------------------------------------
 # opt=modredundant b3lyp/6-311+g(d,p)
 -------------------------------------

 ------------
 pBTTT_55.pdb
 ------------
 Symbolic Z-matrix:
 Charge =  0 Multiplicity = 1

 SCF Done:  E(RB3LYP) =  -1654.53210333     A.U. after   17 cycles
 SCF Done:  E(RB3LYP) =  -1654.58491292     A.U. after   15 cycles
 SCF Done:  E(RB3LYP) =  -1654.61836088     A.U. after   15 cycles
 SCF Done:  E(RB3LYP) =  -1654.62763006     A.U. after   15 cycles
 SCF Done:  E(RB3LYP) =  -1654.62991869     A.U. after   15 cycles
 SCF Done:  E(RB3LYP) =  -1654.63053972     A.U. after   13 cycles
 SCF Done:  E(RB3LYP) =  -1654.63072893     A.U. after   13 cycles
 SCF Done:  E(RB3LYP) =  -1654.63087684     A.U. after   13 cycles
 SCF Done:  E(RB3LYP) =  -1654.63088701     A.U. after   12 cycles
 SCF Done:  E(RB3LYP) =  -1654.63089046     A.U. after   11 cycles
 SCF Done:  E(RB3LYP) =  -1654.63089206     A.U. after   11 cycles
 SCF Done:  E(RB3LYP) =  -1654.63089235     A.U. after    9 cycles
 Optimization completed.
    -- Stationary point found.

                         Standard orientation:
 ---------------------------------------------------------------------
 Center     Atomic      Atomic             Coordinates (Angstroms)
 Number     Number       Type             X           Y           Z
 ---------------------------------------------------------------------
      1          6           0        4.020934    0.330622    0.340195
      2          6           0        2.678313    0.795571    0.464835
      3          6           0        1.734442   -0.093565    0.000623
      4          6           0        4.092108   -0.915647   -0.212388
      5          1           0        4.886978    0.898919    0.657579
      6         16           0        2.529862   -1.535804   -0.606564
      7          1           0        4.974987   -1.501703   -0.415659
      8          6           0        0.284644    0.003402    0.022254
      9         16           0       -0.535380    1.403735   -0.687618
     10          6           0       -2.093891    0.701485   -0.358804
     11          6           0       -1.956094   -0.544166    0.240721
     12          6           0       -0.611387   -0.943863    0.456351
     13          1           0       -0.304047   -1.870374    0.921524
     14         16           0       -3.518726   -1.238261    0.585316
     15          6           0       -4.316327    0.167115   -0.084795
     16          6           0       -3.444985    1.113502   -0.541616
     17          1           0       -5.395023    0.199826   -0.100283
     18          1           0       -3.756498    2.047827   -0.987593
     19          8           0        2.318959    1.999537    1.000027
     20          1           0        3.103290    2.467758    1.301817
 ---------------------------------------------------------------------

 The electronic state is 1-A.
 Alpha  occ. eigenvalues --  -88.88563 -88.88027 -88.87710 -19.16838 -10.24888
 Alpha  occ. eigenvalues --  -10.22013 -10.21403 -10.21216 -10.20685 -10.20648
 Alpha  occ. eigenvalues --  -10.20622 -10.19252 -10.18943 -10.18858  -7.97155
 Alpha  occ. eigenvalues --   -7.96602  -7.96275  -5.93457  -5.93082  -5.92914
 Alpha  occ. eigenvalues --   -5.92728  -5.92597  -5.92550  -5.92230  -5.92150
 Alpha  occ. eigenvalues --   -5.91802  -1.07917  -0.91218  -0.89290  -0.84621
 Alpha  occ. eigenvalues --   -0.77003  -0.76088  -0.74259  -0.70960  -0.70149
 Alpha  occ. eigenvalues --   -0.61818  -0.60950  -0.57184  -0.55946  -0.53483
 Alpha  occ. eigenvalues --   -0.52022  -0.49314  -0.48498  -0.45261  -0.43727
 Alpha  occ. eigenvalues --   -0.43459  -0.41353  -0.40902  -0.39467  -0.38938
 Alpha  occ. eigenvalues --   -0.37803  -0.36926  -0.36124  -0.35735  -0.33766
 Alpha  occ. eigenvalues --   -0.33613  -0.28666  -0.26290  -0.24442  -0.23203
 Alpha  occ. eigenvalues --   -0.20822
 Alpha virt. eigenvalues --   -0.05208  -0.02329  -0.01709  -0.00215   0.00019
 Alpha virt. eigenvalues --    0.00234   0.00921   0.01670   0.02206   0.02800
 Alpha virt. eigenvalues --    0.03137   0.03729   0.04001   0.04291   0.04679

 Mulliken charges:
               1
     1  C   -0.079994
     2  C   -0.443106
     3  C    0.409392
     4  C   -0.205070
     5  H    0.119507
     6  S   -0.213160
     7  H    0.164466
     8  C    0.341120
     9  S   -0.445100
    10  C    0.211346
    11  C   -0.612384
    12  C    0.642272
    13  H    0.138351
    14  S   -0.394505
    15  C   -0.213686
    16  C    0.269776
    17  H    0.165906
    18  H    0.134355
    19  O   -0.241393
    20  H    0.251906
 Sum of Mulliken charges =  -0.00000

 Dipole moment (field-independent basis, Debye):
    X=              2.1387    Y=              0.6605    Z=              0.4833  Tot=              2.2900
 Quadrupole moment (field-independent basis, Debye-Ang):
   XX=            -78.2694   YY=            -97.4319   ZZ=           -105.9782
   XY=              1.1503   XZ=              4.6930   YZ=              0.1149

 Normal termination of Gaussian 16 at Sun Oct 17 02:13:58 2021.
