 Gaussian 16, Revision C.01,
 Gaussian 16:  ES64L-G16RevC.01  3-Jul-2019

 -------------------------------------
 # opt=modredundant b3lyp/6-311+g(d,p)
 -------------------------------------

 -------------
 pBTTT_140.pdb
 -------------
 Symbolic Z-matrix:
 Charge =  0 Multiplicity = 1

 SCF Done:  E(RB3LYP) =  -1654.53329062     A.U. after   17 cycles
 SCF Done:  E(RB3LYP) =  -1654.58620934     A.U. after   14 cycles
 SCF Done:  E(RB3LYP) =  -1654.61953609     A.U. after   15 cycles
 SCF Done:  E(RB3LYP) =  -1654.62882634     A.U. after   14 cycles
 SCF Done:  E(RB3LYP) =  -1654.63108362     A.U. after   14 cycles
 SCF Done:  E(RB3LYP) =  -1654.63162878     A.U. after   13 cycles
 SCF Done:  E(RB3LYP) =  -1654.63171481     A.U. after   13 cycles
 SCF Done:  E(RB3LYP) =  -1654.63186338     A.U. after   12 cycles
 SCF Done:  E(RB3LYP) =  -1654.63186991     A.U. after   11 cycles
 SCF Done:  E(RB3LYP) =  -1654.63187590     A.U. after   12 cycles
 SCF Done:  E(RB3LYP) =  -1654.63187774     A.U. after   10 cycles
 SCF Done:  E(RB3LYP) =  -1654.63187790     A.U. after    9 cycles
 Optimization completed.
    -- Stationary point found.

                         Standard orientation:
 ---------------------------------------------------------------------
 Center     Atomic      Atomic             Coordinates (Angstroms)
 Number     Number       Type             X           Y           Z
 ---------------------------------------------------------------------
      1          6           0       -3.925782    0.850882    0.191749
      2          6           0       -2.526934    1.115154    0.266133
      3          6           0       -1.735328    0.041893   -0.084570
      4          6           0       -4.194822   -0.425575   -0.209099
      5          1           0       -4.689938    1.580882    0.430035
      6         16           0       -2.751570   -1.320469   -0.526177
      7          1           0       -5.158549   -0.889950   -0.348504
      8          6           0       -0.289477   -0.044344   -0.072858
      9         16           0        0.517239   -1.526261    0.476549
     10          6           0        2.083488   -0.800818    0.241265
     11          6           0        1.954467    0.509783   -0.200278
     12          6           0        0.615117    0.942625   -0.381795
     13          1           0        0.314933    1.922730   -0.722013
     14         16           0        3.523320    1.236922   -0.428532
     15          6           0        4.309525   -0.242682    0.074307
     16          6           0        3.429627   -1.235837    0.397293
     17          1           0        5.387780   -0.281198    0.100206
     18          1           0        3.732743   -2.218997    0.729531
     19          8           0       -1.982606    2.312306    0.640288
     20          1           0       -2.669249    2.878531    1.006126
 ---------------------------------------------------------------------

 The electronic state is 1-A.
 Alpha  occ. eigenvalues --  -88.88602 -88.88006 -88.87881 -19.17032 -10.24929
 Alpha  occ. eigenvalues --  -10.22012 -10.21439 -10.21407 -10.20706 -10.20649
 Alpha  occ. eigenvalues --  -10.20611 -10.19312 -10.18962 -10.18610  -7.97202
 Alpha  occ. eigenvalues --   -7.96580  -7.96460  -5.93506  -5.93131  -5.92892
 Alpha  occ. eigenvalues --   -5.92782  -5.92771  -5.92528  -5.92422  -5.92129
 Alpha  occ. eigenvalues --   -5.91981  -1.08032  -0.91245  -0.89355  -0.84637
 Alpha  occ. eigenvalues --   -0.77061  -0.76156  -0.74341  -0.70973  -0.70091
 Alpha  occ. eigenvalues --   -0.61908  -0.61022  -0.57058  -0.56022  -0.53846
 Alpha  occ. eigenvalues --   -0.51826  -0.49290  -0.48496  -0.45392  -0.43690
 Alpha  occ. eigenvalues --   -0.43519  -0.41247  -0.40828  -0.39761  -0.39032
 Alpha  occ. eigenvalues --   -0.37818  -0.36762  -0.36087  -0.35848  -0.33971
 Alpha  occ. eigenvalues --   -0.33699  -0.28769  -0.26565  -0.24742  -0.23333
 Alpha  occ. eigenvalues --   -0.20362
 Alpha virt. eigenvalues --   -0.05499  -0.02461  -0.01465  -0.00410   0.00298
 Alpha virt. eigenvalues --    0.00488   0.01098   0.01587   0.02122   0.02700
 Alpha virt. eigenvalues --    0.03258   0.03757   0.03918   0.04680   0.04747

 Mulliken charges:
               1
     1  C   -0.178431
     2  C   -0.251745
     3  C    0.541176
     4  C   -0.160926
     5  H    0.120443
     6  S   -0.348715
     7  H    0.163717
     8  C    0.486584
     9  S   -0.511086
    10  C    0.388112
    11  C    0.155669
    12  C   -0.023990
    13  H    0.140995
    14  S   -0.404705
    15  C   -0.132823
    16  C   -0.288846
    17  H    0.166020
    18  H    0.134008
    19  O   -0.250090
    20  H    0.254634
 Sum of Mulliken charges =  -0.00000

 Dipole moment (field-independent basis, Debye):
    X=             -2.0207    Y=              0.9826    Z=              0.5993  Tot=              2.3255
 Quadrupole moment (field-independent basis, Debye-Ang):
   XX=            -79.9274   YY=            -95.3930   ZZ=           -106.8575
   XY=             -8.8419   XZ=             -1.3471   YZ=              0.9467

 Normal termination of Gaussian 16 at Sun Oct 17 02:26:34 2021.
