 Gaussian 16, Revision C.01,
 Gaussian 16:  ES64L-G16RevC.01  3-Jul-2019

 -------------------------------------
 # opt=modredundant b3lyp/6-311+g(d,p)
 -------------------------------------

 -------------
 pBTTT_155.pdb
 -------------
 Symbolic Z-matrix:
 Charge =  0 Multiplicity = 1

 SCF Done:  E(RB3LYP) =  -1654.53432016     A.U. after   16 cycles
 SCF Done:  E(RB3LYP) =  -1654.58708216     A.U. after   14 cycles
 SCF Done:  E(RB3LYP) =  -1654.62031633     A.U. after   15 cycles
 SCF Done:  E(RB3LYP) =  -1654.62951155     A.U. after   15 cycles
 SCF Done:  E(RB3LYP) =  -1654.63171200     A.U. after   15 cycles
 SCF Done:  E(RB3LYP) =  -1654.63222756     A.U. after   13 cycles
 SCF Done:  E(RB3LYP) =  -1654.63233075     A.U. after   13 cycles
 SCF Done:  E(RB3LYP) =  -1654.63248166     A.U. after   13 cycles
 SCF Done:  E(RB3LYP) =  -1654.63248779     A.U. after   12 cycles
 SCF Done:  E(RB3LYP) =  -1654.63249485     A.U. after   11 cycles
 SCF Done:  E(RB3LYP) =  -1654.63249642     A.U. after   10 cycles
 SCF Done:  E(RB3LYP) =  -1654.63249652     A.U. after    9 cycles
 Optimization completed.
    -- Stationary point found.

                         Standard orientation:
 ---------------------------------------------------------------------
 Center     Atomic      Atomic             Coordinates (Angstroms)
 Number     Number       Type             X           Y           Z
 ---------------------------------------------------------------------
      1          6           0       -3.928850    0.872888    0.116374
      2          6           0       -2.531631    1.144696    0.172441
      3          6           0       -1.734464    0.038693   -0.044878
      4          6           0       -4.195367   -0.439712   -0.144282
      5          1           0       -4.694397    1.624828    0.265241
      6         16           0       -2.748722   -1.362925   -0.346781
      7          1           0       -5.157092   -0.918773   -0.239978
      8          6           0       -0.290184   -0.039278   -0.034095
      9         16           0        0.523871   -1.576093    0.319451
     10          6           0        2.087788   -0.825536    0.155491
     11          6           0        1.953059    0.527568   -0.126089
     12          6           0        0.612849    0.979389   -0.236849
     13          1           0        0.309698    1.991902   -0.455768
     14         16           0        3.519522    1.279215   -0.280726
     15          6           0        4.311515   -0.248013    0.036939
     16          6           0        3.434821   -1.273792    0.248720
     17          1           0        5.389959   -0.287795    0.047276
     18          1           0        3.741371   -2.288845    0.459813
     19          8           0       -1.991972    2.378427    0.412922
     20          1           0       -2.685711    2.986682    0.686300
 ---------------------------------------------------------------------

 The electronic state is 1-A.
 Alpha  occ. eigenvalues --  -88.88655 -88.87980 -88.87888 -19.17229 -10.24963
 Alpha  occ. eigenvalues --  -10.22121 -10.21570 -10.21459 -10.20689 -10.20633
 Alpha  occ. eigenvalues --  -10.20579 -10.19364 -10.18950 -10.18484  -7.97259
 Alpha  occ. eigenvalues --   -7.96554  -7.96473  -5.93566  -5.93189  -5.92865
 Alpha  occ. eigenvalues --   -5.92821  -5.92797  -5.92502  -5.92437  -5.92103
 Alpha  occ. eigenvalues --   -5.91988  -1.08196  -0.91252  -0.89411  -0.84639
 Alpha  occ. eigenvalues --   -0.77093  -0.76194  -0.74412  -0.70960  -0.70089
 Alpha  occ. eigenvalues --   -0.61978  -0.61146  -0.57036  -0.56133  -0.53807
 Alpha  occ. eigenvalues --   -0.51846  -0.49356  -0.48476  -0.45415  -0.43750
 Alpha  occ. eigenvalues --   -0.43603  -0.41215  -0.40817  -0.39850  -0.39087
 Alpha  occ. eigenvalues --   -0.37817  -0.36765  -0.36342  -0.35723  -0.34086
 Alpha  occ. eigenvalues --   -0.33674  -0.28847  -0.26798  -0.24877  -0.23341
 Alpha  occ. eigenvalues --   -0.20049
 Alpha virt. eigenvalues --   -0.05765  -0.02384  -0.01320  -0.00660   0.00358
 Alpha virt. eigenvalues --    0.00538   0.01223   0.01514   0.02147   0.02684
 Alpha virt. eigenvalues --    0.03381   0.03746   0.04060   0.04687   0.04809

 Mulliken charges:
               1
     1  C   -0.220882
     2  C   -0.019171
     3  C    0.510823
     4  C   -0.125677
     5  H    0.119683
     6  S   -0.430869
     7  H    0.162857
     8  C    0.299250
     9  S   -0.556355
    10  C    0.391935
    11  C    0.215186
    12  C    0.007134
    13  H    0.145779
    14  S   -0.406395
    15  C   -0.140246
    16  C   -0.259543
    17  H    0.165976
    18  H    0.133468
    19  O   -0.250558
    20  H    0.257605
 Sum of Mulliken charges =  -0.00000

 Dipole moment (field-independent basis, Debye):
    X=             -2.0856    Y=              1.0604    Z=              0.4246  Tot=              2.3779
 Quadrupole moment (field-independent basis, Debye-Ang):
   XX=            -79.7721   YY=            -94.2190   ZZ=           -108.0546
   XY=             -9.3501   XZ=             -1.0376   YZ=              0.9222

 Normal termination of Gaussian 16 at Sun Oct 17 02:31:00 2021.
