 Gaussian 16, Revision C.01,
 Gaussian 16:  ES64L-G16RevC.01  3-Jul-2019

 -------------------------------------
 # opt=modredundant b3lyp/6-311+g(d,p)
 -------------------------------------

 --------------
 pBTTT_-150.pdb
 --------------
 Symbolic Z-matrix:
 Charge =  0 Multiplicity = 1

 SCF Done:  E(RB3LYP) =  -1654.53463302     A.U. after   17 cycles
 SCF Done:  E(RB3LYP) =  -1654.58720081     A.U. after   15 cycles
 SCF Done:  E(RB3LYP) =  -1654.62050310     A.U. after   16 cycles
 SCF Done:  E(RB3LYP) =  -1654.62939600     A.U. after   14 cycles
 SCF Done:  E(RB3LYP) =  -1654.63149366     A.U. after   14 cycles
 SCF Done:  E(RB3LYP) =  -1654.63204211     A.U. after   13 cycles
 SCF Done:  E(RB3LYP) =  -1654.63216598     A.U. after   13 cycles
 SCF Done:  E(RB3LYP) =  -1654.63233079     A.U. after   12 cycles
 SCF Done:  E(RB3LYP) =  -1654.63234305     A.U. after   12 cycles
 SCF Done:  E(RB3LYP) =  -1654.63235115     A.U. after   11 cycles
 SCF Done:  E(RB3LYP) =  -1654.63235325     A.U. after   10 cycles
 SCF Done:  E(RB3LYP) =  -1654.63235333     A.U. after    9 cycles
 Optimization completed.
    -- Stationary point found.

                         Standard orientation:
 ---------------------------------------------------------------------
 Center     Atomic      Atomic             Coordinates (Angstroms)
 Number     Number       Type             X           Y           Z
 ---------------------------------------------------------------------
      1          6           0        3.927738    0.866776    0.142017
      2          6           0        2.530012    1.136310    0.203880
      3          6           0        1.734698    0.039439   -0.058494
      4          6           0        4.195037   -0.435560   -0.165556
      5          1           0        4.692882    1.612427    0.321420
      6         16           0        2.749439   -1.350578   -0.407869
      7          1           0        5.157400   -0.910337   -0.275548
      8          6           0        0.290040   -0.040826   -0.047221
      9         16           0       -0.521841   -1.561831    0.372775
     10          6           0       -2.086388   -0.818607    0.184247
     11          6           0       -1.953226    0.522491   -0.151068
     12          6           0       -0.613182    0.968873   -0.285565
     13          1           0       -0.310726    1.972171   -0.545237
     14         16           0       -3.520326    1.267126   -0.330497
     15          6           0       -4.310771   -0.246621    0.049341
     16          6           0       -3.433223   -1.263058    0.298705
     17          1           0       -5.389173   -0.286098    0.064723
     18          1           0       -3.738856   -2.269034    0.550635
     19          8           0        1.988598    2.359537    0.489052
     20          1           0        2.678936    2.953801    0.799337
 ---------------------------------------------------------------------

 The electronic state is 1-A.
 Alpha  occ. eigenvalues --  -88.88640 -88.87988 -88.87888 -19.17162 -10.24948
 Alpha  occ. eigenvalues --  -10.22086 -10.21519 -10.21451 -10.20695 -10.20639
 Alpha  occ. eigenvalues --  -10.20589 -10.19347 -10.18954 -10.18525  -7.97242
 Alpha  occ. eigenvalues --   -7.96562  -7.96471  -5.93548  -5.93172  -5.92874
 Alpha  occ. eigenvalues --   -5.92807  -5.92795  -5.92510  -5.92435  -5.92111
 Alpha  occ. eigenvalues --   -5.91989  -1.08137  -0.91251  -0.89394  -0.84640
 Alpha  occ. eigenvalues --   -0.77084  -0.76183  -0.74390  -0.70965  -0.70088
 Alpha  occ. eigenvalues --   -0.61956  -0.61104  -0.57043  -0.56097  -0.53820
 Alpha  occ. eigenvalues --   -0.51838  -0.49329  -0.48485  -0.45407  -0.43729
 Alpha  occ. eigenvalues --   -0.43578  -0.41228  -0.40815  -0.39825  -0.39068
 Alpha  occ. eigenvalues --   -0.37817  -0.36765  -0.36250  -0.35769  -0.34046
 Alpha  occ. eigenvalues --   -0.33690  -0.28823  -0.26729  -0.24840  -0.23343
 Alpha  occ. eigenvalues --   -0.20139
 Alpha virt. eigenvalues --   -0.05686  -0.02396  -0.01370  -0.00575   0.00342
 Alpha virt. eigenvalues --    0.00522   0.01183   0.01537   0.02141   0.02686
 Alpha virt. eigenvalues --    0.03348   0.03743   0.04013   0.04682   0.04790

 Mulliken charges:
               1
     1  C   -0.202166
     2  C   -0.116324
     3  C    0.519477
     4  C   -0.138814
     5  H    0.120030
     6  S   -0.400762
     7  H    0.163179
     8  C    0.375894
     9  S   -0.542356
    10  C    0.399279
    11  C    0.186824
    12  C    0.001400
    13  H    0.144200
    14  S   -0.406069
    15  C   -0.137202
    16  C   -0.271864
    17  H    0.165995
    18  H    0.133646
    19  O   -0.251058
    20  H    0.256692
 Sum of Mulliken charges =  -0.00000

 Dipole moment (field-independent basis, Debye):
    X=              2.0625    Y=              1.0339    Z=              0.4931  Tot=              2.3592
 Quadrupole moment (field-independent basis, Debye-Ang):
   XX=            -79.8380   YY=            -94.5866   ZZ=           -107.6811
   XY=              9.1832   XZ=              1.1704   YZ=              0.9682

 Normal termination of Gaussian 16 at Sun Oct 17 01:40:25 2021.
