 Gaussian 16, Revision C.01,
 Gaussian 16:  ES64L-G16RevC.01  3-Jul-2019

 -------------------------------------
 # opt=modredundant b3lyp/6-311+g(d,p)
 -------------------------------------

 ------------
 pBTTT_30.pdb
 ------------
 Symbolic Z-matrix:
 Charge =  0 Multiplicity = 1

 SCF Done:  E(RB3LYP) =  -1654.53440360     A.U. after   17 cycles
 SCF Done:  E(RB3LYP) =  -1654.58691867     A.U. after   15 cycles
 SCF Done:  E(RB3LYP) =  -1654.61970010     A.U. after   16 cycles
 SCF Done:  E(RB3LYP) =  -1654.62895059     A.U. after   14 cycles
 SCF Done:  E(RB3LYP) =  -1654.63119387     A.U. after   14 cycles
 SCF Done:  E(RB3LYP) =  -1654.63180884     A.U. after   13 cycles
 SCF Done:  E(RB3LYP) =  -1654.63199305     A.U. after   13 cycles
 SCF Done:  E(RB3LYP) =  -1654.63213448     A.U. after   12 cycles
 SCF Done:  E(RB3LYP) =  -1654.63214195     A.U. after   11 cycles
 SCF Done:  E(RB3LYP) =  -1654.63214532     A.U. after   11 cycles
 SCF Done:  E(RB3LYP) =  -1654.63214710     A.U. after   10 cycles
 SCF Done:  E(RB3LYP) =  -1654.63214725     A.U. after    9 cycles
 Optimization completed.
    -- Stationary point found.

                         Standard orientation:
 ---------------------------------------------------------------------
 Center     Atomic      Atomic             Coordinates (Angstroms)
 Number     Number       Type             X           Y           Z
 ---------------------------------------------------------------------
      1          6           0       -4.027246    0.355702   -0.186931
      2          6           0       -2.688906    0.841321   -0.251053
      3          6           0       -1.729573   -0.117576   -0.001055
      4          6           0       -4.085472   -0.973781    0.113745
      5          1           0       -4.900194    0.972676   -0.362639
      6         16           0       -2.512301   -1.652787    0.339545
      7          1           0       -4.961369   -1.593940    0.223493
      8          6           0       -0.286072   -0.011881   -0.026130
      9         16           0        0.527596    1.514302    0.363408
     10          6           0        2.089148    0.760388    0.202156
     11          6           0        1.959193   -0.582763   -0.126504
     12          6           0        0.618835   -1.023637   -0.260631
     13          1           0        0.322325   -2.028457   -0.528586
     14         16           0        3.526374   -1.324852   -0.316956
     15          6           0        4.315386    0.193676    0.049783
     16          6           0        3.436957    1.208794    0.299247
     17          1           0        5.393800    0.234537    0.061625
     18          1           0        3.742191    2.216877    0.543405
     19          8           0       -2.342802    2.131367   -0.538639
     20          1           0       -3.134546    2.659298   -0.679879
 ---------------------------------------------------------------------

 The electronic state is 1-A.
 Alpha  occ. eigenvalues --  -88.88642 -88.87928 -88.87686 -19.17119 -10.24976
 Alpha  occ. eigenvalues --  -10.22167 -10.21511 -10.21500 -10.20617 -10.20526
 Alpha  occ. eigenvalues --  -10.20461 -10.19375 -10.18856 -10.18704  -7.97243
 Alpha  occ. eigenvalues --   -7.96502  -7.96238  -5.93552  -5.93174  -5.92816
 Alpha  occ. eigenvalues --   -5.92804  -5.92565  -5.92452  -5.92194  -5.92049
 Alpha  occ. eigenvalues --   -5.91758  -1.08174  -0.91180  -0.89393  -0.84584
 Alpha  occ. eigenvalues --   -0.77061  -0.76141  -0.74404  -0.70891  -0.70133
 Alpha  occ. eigenvalues --   -0.61935  -0.61181  -0.57219  -0.56072  -0.53220
 Alpha  occ. eigenvalues --   -0.52126  -0.49292  -0.48670  -0.45324  -0.43779
 Alpha  occ. eigenvalues --   -0.43679  -0.41207  -0.40919  -0.39459  -0.38909
 Alpha  occ. eigenvalues --   -0.38075  -0.36883  -0.36356  -0.35596  -0.33979
 Alpha  occ. eigenvalues --   -0.33477  -0.28767  -0.26714  -0.24834  -0.23152
 Alpha  occ. eigenvalues --   -0.20106
 Alpha virt. eigenvalues --   -0.05717  -0.01926  -0.01630  -0.00106   0.00057
 Alpha virt. eigenvalues --    0.00277   0.01265   0.01710   0.02288   0.02813
 Alpha virt. eigenvalues --    0.03128   0.03685   0.04170   0.04443   0.04719

 Mulliken charges:
               1
     1  C   -0.220479
     2  C   -0.072833
     3  C    0.606146
     4  C   -0.104901
     5  H    0.119013
     6  S   -0.443775
     7  H    0.163792
     8  C    0.229518
     9  S   -0.401840
    10  C    0.340842
    11  C    0.205845
    12  C   -0.088937
    13  H    0.137326
    14  S   -0.419889
    15  C   -0.135634
    16  C   -0.232691
    17  H    0.165476
    18  H    0.133446
    19  O   -0.237965
    20  H    0.257542
 Sum of Mulliken charges =  -0.00000

 Dipole moment (field-independent basis, Debye):
    X=             -2.3374    Y=              0.8623    Z=             -0.2494  Tot=              2.5038
 Quadrupole moment (field-independent basis, Debye-Ang):
   XX=            -78.1803   YY=            -95.3391   ZZ=           -108.1992
   XY=             -1.5883   XZ=              2.4899   YZ=              0.0092

 Normal termination of Gaussian 16 at Sun Oct 17 02:15:56 2021.
