 Gaussian 16, Revision C.01,
 Gaussian 16:  ES64L-G16RevC.01  3-Jul-2019

 -------------------------------------
 # opt=modredundant b3lyp/6-311+g(d,p)
 -------------------------------------

 ------------
 pBTTT_-5.pdb
 ------------
 Symbolic Z-matrix:
 Charge =  0 Multiplicity = 1

 SCF Done:  E(RB3LYP) =  -1654.53624186     A.U. after   17 cycles
 SCF Done:  E(RB3LYP) =  -1654.58867951     A.U. after   15 cycles
 SCF Done:  E(RB3LYP) =  -1654.62091703     A.U. after   16 cycles
 SCF Done:  E(RB3LYP) =  -1654.62980824     A.U. after   17 cycles
 SCF Done:  E(RB3LYP) =  -1654.63178776     A.U. after   14 cycles
 SCF Done:  E(RB3LYP) =  -1654.63231360     A.U. after   13 cycles
 SCF Done:  E(RB3LYP) =  -1654.63237191     A.U. after   13 cycles
 SCF Done:  E(RB3LYP) =  -1654.63255062     A.U. after   12 cycles
 SCF Done:  E(RB3LYP) =  -1654.63256376     A.U. after   11 cycles
 SCF Done:  E(RB3LYP) =  -1654.63256620     A.U. after   10 cycles
 SCF Done:  E(RB3LYP) =  -1654.63256799     A.U. after   10 cycles
 Optimization completed.
    -- Stationary point found.

                         Standard orientation:
 ---------------------------------------------------------------------
 Center     Atomic      Atomic             Coordinates (Angstroms)
 Number     Number       Type             X           Y           Z
 ---------------------------------------------------------------------
      1          6           0       -4.027833    0.381171    0.027453
      2          6           0       -2.685792    0.860342    0.045541
      3          6           0       -1.728031   -0.132422    0.006285
      4          6           0       -4.093203   -0.979254   -0.027869
      5          1           0       -4.897270    1.026526    0.057964
      6         16           0       -2.521095   -1.700393   -0.058062
      7          1           0       -4.971376   -1.605300   -0.050760
      8          6           0       -0.286492   -0.026013    0.010444
      9         16           0        0.524247    1.552004   -0.059465
     10          6           0        2.087533    0.783909   -0.037327
     11          6           0        1.962274   -0.597663    0.021410
     12          6           0        0.624348   -1.060525    0.050514
     13          1           0        0.336197   -2.101663    0.101464
     14         16           0        3.532070   -1.358451    0.053370
     15          6           0        4.316120    0.205453   -0.013203
     16          6           0        3.433657    1.246624   -0.056538
     17          1           0        5.394362    0.251451   -0.017920
     18          1           0        3.735456    2.283978   -0.100444
     19          8           0       -2.332805    2.178796    0.106637
     20          1           0       -3.113972    2.734354    0.022824
 ---------------------------------------------------------------------

 The electronic state is 1-A.
 Alpha  occ. eigenvalues --  -88.88679 -88.87847 -88.87669 -19.17334 -10.25051
 Alpha  occ. eigenvalues --  -10.22246 -10.21702 -10.21593 -10.20562 -10.20434
 Alpha  occ. eigenvalues --  -10.20302 -10.19454 -10.18784 -10.18615  -7.97286
 Alpha  occ. eigenvalues --   -7.96422  -7.96208  -5.93600  -5.93221  -5.92838
 Alpha  occ. eigenvalues --   -5.92736  -5.92538  -5.92372  -5.92164  -5.91967
 Alpha  occ. eigenvalues --   -5.91725  -1.08374  -0.91130  -0.89440  -0.84536
 Alpha  occ. eigenvalues --   -0.77084  -0.76157  -0.74484  -0.70837  -0.70118
 Alpha  occ. eigenvalues --   -0.61999  -0.61325  -0.57247  -0.56146  -0.53058
 Alpha  occ. eigenvalues --   -0.52193  -0.49344  -0.48734  -0.45374  -0.43867
 Alpha  occ. eigenvalues --   -0.43767  -0.41049  -0.41006  -0.39445  -0.38901
 Alpha  occ. eigenvalues --   -0.38275  -0.36763  -0.36546  -0.35432  -0.34180
 Alpha  occ. eigenvalues --   -0.33224  -0.28854  -0.26869  -0.24992  -0.23140
 Alpha  occ. eigenvalues --   -0.19802
 Alpha virt. eigenvalues --   -0.05920  -0.01992  -0.01427  -0.00079   0.00114
 Alpha virt. eigenvalues --    0.00311   0.01652   0.01713   0.02170   0.02823
 Alpha virt. eigenvalues --    0.03116   0.03562   0.04233   0.04664   0.04924

 Mulliken charges:
               1
     1  C   -0.390258
     2  C    0.472738
     3  C    0.556374
     4  C   -0.150233
     5  H    0.119159
     6  S   -0.565083
     7  H    0.163707
     8  C   -0.056260
     9  S   -0.410812
    10  C    0.033726
    11  C    0.454365
    12  C    0.034139
    13  H    0.133085
    14  S   -0.435045
    15  C   -0.164606
    16  C   -0.123246
    17  H    0.165251
    18  H    0.131769
    19  O   -0.232672
    20  H    0.263902
 Sum of Mulliken charges =  -0.00000

 Dipole moment (field-independent basis, Debye):
    X=             -2.4829    Y=              0.9731    Z=             -0.1280  Tot=              2.6699
 Quadrupole moment (field-independent basis, Debye-Ang):
   XX=            -78.2672   YY=            -94.3964   ZZ=           -109.1034
   XY=             -1.8406   XZ=              0.1590   YZ=             -0.5781

 Normal termination of Gaussian 16 at Sun Oct 17 02:01:39 2021.
