 Gaussian 16, Revision C.01,
 Gaussian 16:  ES64L-G16RevC.01  3-Jul-2019

 -------------------------------------
 # opt=modredundant b3lyp/6-311+g(d,p)
 -------------------------------------

 --------------
 pBTTT_-165.pdb
 --------------
 Symbolic Z-matrix:
 Charge =  0 Multiplicity = 1

 SCF Done:  E(RB3LYP) =  -1654.53522768     A.U. after   17 cycles
 SCF Done:  E(RB3LYP) =  -1654.58769212     A.U. after   15 cycles
 SCF Done:  E(RB3LYP) =  -1654.62083463     A.U. after   16 cycles
 SCF Done:  E(RB3LYP) =  -1654.62967785     A.U. after   15 cycles
 SCF Done:  E(RB3LYP) =  -1654.63177220     A.U. after   14 cycles
 SCF Done:  E(RB3LYP) =  -1654.63229935     A.U. after   13 cycles
 SCF Done:  E(RB3LYP) =  -1654.63238959     A.U. after   13 cycles
 SCF Done:  E(RB3LYP) =  -1654.63258782     A.U. after   12 cycles
 SCF Done:  E(RB3LYP) =  -1654.63259710     A.U. after   12 cycles
 SCF Done:  E(RB3LYP) =  -1654.63260395     A.U. after   11 cycles
 SCF Done:  E(RB3LYP) =  -1654.63260617     A.U. after   10 cycles
 Optimization completed.
    -- Stationary point found.

                         Standard orientation:
 ---------------------------------------------------------------------
 Center     Atomic      Atomic             Coordinates (Angstroms)
 Number     Number       Type             X           Y           Z
 ---------------------------------------------------------------------
      1          6           0        3.930459    0.882479    0.065908
      2          6           0        2.533899    1.157758    0.106909
      3          6           0        1.734185    0.038513   -0.020928
      4          6           0        4.196654   -0.445729   -0.096284
      5          1           0        4.696140    1.643829    0.154037
      6         16           0        2.748996   -1.381664   -0.217687
      7          1           0        5.157592   -0.931516   -0.159742
      8          6           0        0.290220   -0.037066   -0.012575
      9         16           0       -0.526612   -1.597929    0.204410
     10          6           0       -2.090008   -0.835960    0.096293
     11          6           0       -1.953558    0.534866   -0.075876
     12          6           0       -0.613431    0.995097   -0.139821
     13          1           0       -0.310179    2.021601   -0.275219
     14         16           0       -3.519474    1.297067   -0.176579
     15          6           0       -4.312996   -0.250186    0.016033
     16          6           0       -3.437027   -1.289939    0.149072
     17          1           0       -5.391465   -0.290369    0.018067
     18          1           0       -3.744339   -2.318450    0.277896
     19          8           0        1.997135    2.407106    0.255950
     20          1           0        2.698217    3.039480    0.442671
 ---------------------------------------------------------------------

 The electronic state is 1-A.
 Alpha  occ. eigenvalues --  -88.88678 -88.87964 -88.87882 -19.17353 -10.24997
 Alpha  occ. eigenvalues --  -10.22183 -10.21657 -10.21478 -10.20678 -10.20618
 Alpha  occ. eigenvalues --  -10.20563 -10.19392 -10.18944 -10.18410  -7.97284
 Alpha  occ. eigenvalues --   -7.96538  -7.96471  -5.93593  -5.93216  -5.92850
 Alpha  occ. eigenvalues --   -5.92843  -5.92797  -5.92487  -5.92437  -5.92087
 Alpha  occ. eigenvalues --   -5.91982  -1.08309  -0.91251  -0.89440  -0.84634
 Alpha  occ. eigenvalues --   -0.77106  -0.76210  -0.74447  -0.70947  -0.70092
 Alpha  occ. eigenvalues --   -0.62014  -0.61222  -0.57024  -0.56194  -0.53785
 Alpha  occ. eigenvalues --   -0.51864  -0.49410  -0.48455  -0.45427  -0.43790
 Alpha  occ. eigenvalues --   -0.43643  -0.41184  -0.40845  -0.39879  -0.39118
 Alpha  occ. eigenvalues --   -0.37818  -0.36756  -0.36521  -0.35637  -0.34157
 Alpha  occ. eigenvalues --   -0.33634  -0.28887  -0.26903  -0.24933  -0.23329
 Alpha  occ. eigenvalues --   -0.19910
 Alpha virt. eigenvalues --   -0.05890  -0.02387  -0.01216  -0.00826   0.00378
 Alpha virt. eigenvalues --    0.00567   0.01298   0.01471   0.02152   0.02685
 Alpha virt. eigenvalues --    0.03410   0.03770   0.04155   0.04705   0.04839

 Mulliken charges:
               1
     1  C   -0.281964
     2  C    0.239481
     3  C    0.501491
     4  C   -0.098711
     5  H    0.118880
     6  S   -0.497202
     7  H    0.162238
     8  C    0.110466
     9  S   -0.584780
    10  C    0.348773
    11  C    0.273368
    12  C    0.016094
    13  H    0.149012
    14  S   -0.407151
    15  C   -0.148222
    16  C   -0.211979
    17  H    0.165975
    18  H    0.133120
    19  O   -0.247889
    20  H    0.259001
 Sum of Mulliken charges =  -0.00000

 Dipole moment (field-independent basis, Debye):
    X=              2.1308    Y=              1.1086    Z=              0.2755  Tot=              2.4177
 Quadrupole moment (field-independent basis, Debye-Ang):
   XX=            -79.6394   YY=            -93.6068   ZZ=           -108.6674
   XY=              9.6327   XZ=              0.7201   YZ=              0.7222

 Normal termination of Gaussian 16 at Sun Oct 17 01:38:23 2021.
