 Gaussian 16, Revision C.01,
 Gaussian 16:  ES64L-G16RevC.01  3-Jul-2019

 -------------------------------------
 # opt=modredundant b3lyp/6-311+g(d,p)
 -------------------------------------

 -------------
 pBTTT_-40.pdb
 -------------
 Symbolic Z-matrix:
 Charge =  0 Multiplicity = 1

 SCF Done:  E(RB3LYP) =  -1654.53458257     A.U. after   16 cycles
 SCF Done:  E(RB3LYP) =  -1654.58723327     A.U. after   14 cycles
 SCF Done:  E(RB3LYP) =  -1654.61991427     A.U. after   15 cycles
 SCF Done:  E(RB3LYP) =  -1654.62903101     A.U. after   15 cycles
 SCF Done:  E(RB3LYP) =  -1654.63104105     A.U. after   14 cycles
 SCF Done:  E(RB3LYP) =  -1654.63145845     A.U. after   13 cycles
 SCF Done:  E(RB3LYP) =  -1654.63156057     A.U. after   13 cycles
 SCF Done:  E(RB3LYP) =  -1654.63170846     A.U. after   12 cycles
 SCF Done:  E(RB3LYP) =  -1654.63172030     A.U. after   12 cycles
 SCF Done:  E(RB3LYP) =  -1654.63172567     A.U. after   11 cycles
 SCF Done:  E(RB3LYP) =  -1654.63172871     A.U. after   10 cycles
 SCF Done:  E(RB3LYP) =  -1654.63172881     A.U. after    9 cycles
 Optimization completed.
    -- Stationary point found.

                         Standard orientation:
 ---------------------------------------------------------------------
 Center     Atomic      Atomic             Coordinates (Angstroms)
 Number     Number       Type             X           Y           Z
 ---------------------------------------------------------------------
      1          6           0       -4.025892    0.343035    0.248187
      2          6           0       -2.687793    0.826622    0.335068
      3          6           0       -1.731187   -0.107623   -0.000618
      4          6           0       -4.084647   -0.960355   -0.152250
      5          1           0       -4.898411    0.941610    0.480724
      6         16           0       -2.513469   -1.614659   -0.447624
      7          1           0       -4.961211   -1.572093   -0.298532
      8          6           0       -0.285697   -0.004130    0.026465
      9         16           0        0.530785    1.480692   -0.491455
     10          6           0        2.090995    0.741747   -0.264398
     11          6           0        1.957520   -0.570469    0.171139
     12          6           0        0.615350   -0.996377    0.339473
     13          1           0        0.313980   -1.974871    0.687353
     14         16           0        3.522731   -1.297946    0.423344
     15          6           0        4.315531    0.184362   -0.062606
     16          6           0        3.440150    1.178301   -0.394043
     17          1           0        5.394069    0.221847   -0.075834
     18          1           0        3.748055    2.162941   -0.717511
     19          8           0       -2.341349    2.090670    0.720494
     20          1           0       -3.132410    2.595146    0.933116
 ---------------------------------------------------------------------

 The electronic state is 1-A.
 Alpha  occ. eigenvalues --  -88.88616 -88.87972 -88.87697 -19.16994 -10.24935
 Alpha  occ. eigenvalues --  -10.22113 -10.21454 -10.21397 -10.20646 -10.20578
 Alpha  occ. eigenvalues --  -10.20538 -10.19325 -10.18895 -10.18764  -7.97213
 Alpha  occ. eigenvalues --   -7.96546  -7.96256  -5.93520  -5.93143  -5.92859
 Alpha  occ. eigenvalues --   -5.92780  -5.92581  -5.92495  -5.92212  -5.92093
 Alpha  occ. eigenvalues --   -5.91778  -1.08057  -0.91202  -0.89358  -0.84605
 Alpha  occ. eigenvalues --   -0.77043  -0.76125  -0.74349  -0.70921  -0.70141
 Alpha  occ. eigenvalues --   -0.61893  -0.61085  -0.57206  -0.56025  -0.53322
 Alpha  occ. eigenvalues --   -0.52086  -0.49292  -0.48607  -0.45297  -0.43758
 Alpha  occ. eigenvalues --   -0.43592  -0.41274  -0.40904  -0.39464  -0.38920
 Alpha  occ. eigenvalues --   -0.37954  -0.36914  -0.36249  -0.35672  -0.33859
 Alpha  occ. eigenvalues --   -0.33589  -0.28721  -0.26575  -0.24716  -0.23169
 Alpha  occ. eigenvalues --   -0.20346
 Alpha virt. eigenvalues --   -0.05550  -0.01981  -0.01712  -0.00143   0.00027
 Alpha virt. eigenvalues --    0.00259   0.01105   0.01697   0.02275   0.02802
 Alpha virt. eigenvalues --    0.03140   0.03733   0.04138   0.04322   0.04703

 Mulliken charges:
               1
     1  C   -0.180393
     2  C   -0.301036
     3  C    0.630572
     4  C   -0.115602
     5  H    0.119184
     6  S   -0.376537
     7  H    0.164054
     8  C    0.511347
     9  S   -0.379751
    10  C    0.391439
    11  C    0.092717
    12  C   -0.210375
    13  H    0.139247
    14  S   -0.412787
    15  C   -0.137428
    16  C   -0.249888
    17  H    0.165640
    18  H    0.134134
    19  O   -0.239152
    20  H    0.254616
 Sum of Mulliken charges =  -0.00000

 Dipole moment (field-independent basis, Debye):
    X=             -2.2520    Y=              0.7809    Z=              0.3564  Tot=              2.4100
 Quadrupole moment (field-independent basis, Debye-Ang):
   XX=            -78.1942   YY=            -96.0762   ZZ=           -107.4452
   XY=             -1.3906   XZ=             -3.4209   YZ=              0.0798

 Normal termination of Gaussian 16 at Sun Oct 17 02:05:17 2021.
