 Gaussian 16, Revision C.01,
 Gaussian 16:  ES64L-G16RevC.01  3-Jul-2019

 -------------------------------------
 # opt=modredundant b3lyp/6-311+g(d,p)
 -------------------------------------

 --------------
 pBTTT_-160.pdb
 --------------
 Symbolic Z-matrix:
 Charge =  0 Multiplicity = 1

 SCF Done:  E(RB3LYP) =  -1654.53525266     A.U. after   17 cycles
 SCF Done:  E(RB3LYP) =  -1654.58768824     A.U. after   15 cycles
 SCF Done:  E(RB3LYP) =  -1654.62080058     A.U. after   16 cycles
 SCF Done:  E(RB3LYP) =  -1654.62966556     A.U. after   16 cycles
 SCF Done:  E(RB3LYP) =  -1654.63173182     A.U. after   14 cycles
 SCF Done:  E(RB3LYP) =  -1654.63226269     A.U. after   13 cycles
 SCF Done:  E(RB3LYP) =  -1654.63235582     A.U. after   13 cycles
 SCF Done:  E(RB3LYP) =  -1654.63255622     A.U. after   12 cycles
 SCF Done:  E(RB3LYP) =  -1654.63256735     A.U. after   12 cycles
 SCF Done:  E(RB3LYP) =  -1654.63257465     A.U. after   11 cycles
 SCF Done:  E(RB3LYP) =  -1654.63257708     A.U. after   10 cycles
 Optimization completed.
    -- Stationary point found.

                         Standard orientation:
 ---------------------------------------------------------------------
 Center     Atomic      Atomic             Coordinates (Angstroms)
 Number     Number       Type             X           Y           Z
 ---------------------------------------------------------------------
      1          6           0        3.929841    0.878038    0.090564
      2          6           0        2.533041    1.151768    0.140478
      3          6           0        1.734315    0.038416   -0.032131
      4          6           0        4.195898   -0.443177   -0.122010
      5          1           0        4.695624    1.635125    0.209121
      6         16           0        2.748461   -1.373260   -0.284064
      7          1           0        5.157072   -0.926001   -0.202705
      8          6           0        0.290218   -0.037915   -0.022107
      9         16           0       -0.525452   -1.587959    0.264235
     10          6           0       -2.089015   -0.831230    0.126401
     11          6           0       -1.953218    0.531688   -0.101287
     12          6           0       -0.612987    0.988207   -0.188282
     13          1           0       -0.309666    2.008407   -0.366266
     14         16           0       -3.519322    1.289108   -0.230237
     15          6           0       -4.312299   -0.249200    0.025737
     16          6           0       -3.436085   -1.282686    0.199162
     17          1           0       -5.390765   -0.289264    0.031232
     18          1           0       -3.743129   -2.305168    0.369841
     19          8           0        1.995106    2.394037    0.336459
     20          1           0        2.692745    3.014922    0.569033
 ---------------------------------------------------------------------

 The electronic state is 1-A.
 Alpha  occ. eigenvalues --  -88.88667 -88.87972 -88.87886 -19.17295 -10.24979
 Alpha  occ. eigenvalues --  -10.22154 -10.21615 -10.21468 -10.20683 -10.20626
 Alpha  occ. eigenvalues --  -10.20571 -10.19378 -10.18947 -10.18446  -7.97272
 Alpha  occ. eigenvalues --   -7.96546  -7.96473  -5.93580  -5.93203  -5.92857
 Alpha  occ. eigenvalues --   -5.92833  -5.92798  -5.92494  -5.92438  -5.92095
 Alpha  occ. eigenvalues --   -5.91986  -1.08256  -0.91252  -0.89426  -0.84637
 Alpha  occ. eigenvalues --   -0.77100  -0.76203  -0.74430  -0.70953  -0.70090
 Alpha  occ. eigenvalues --   -0.61997  -0.61186  -0.57030  -0.56165  -0.53795
 Alpha  occ. eigenvalues --   -0.51855  -0.49383  -0.48466  -0.45422  -0.43772
 Alpha  occ. eigenvalues --   -0.43625  -0.41201  -0.40828  -0.39867  -0.39104
 Alpha  occ. eigenvalues --   -0.37817  -0.36762  -0.36434  -0.35678  -0.34122
 Alpha  occ. eigenvalues --   -0.33655  -0.28869  -0.26855  -0.24907  -0.23336
 Alpha  occ. eigenvalues --   -0.19973
 Alpha virt. eigenvalues --   -0.05833  -0.02382  -0.01270  -0.00743   0.00369
 Alpha virt. eigenvalues --    0.00554   0.01262   0.01492   0.02151   0.02684
 Alpha virt. eigenvalues --    0.03402   0.03756   0.04107   0.04694   0.04826

 Mulliken charges:
               1
     1  C   -0.246155
     2  C    0.098317
     3  C    0.505064
     4  C   -0.111993
     5  H    0.119279
     6  S   -0.463133
     7  H    0.162530
     8  C    0.209526
     9  S   -0.570185
    10  C    0.375578
    11  C    0.246267
    12  C    0.010537
    13  H    0.147366
    14  S   -0.406737
    15  C   -0.143840
    16  C   -0.240617
    17  H    0.165967
    18  H    0.133295
    19  O   -0.249439
    20  H    0.258374
 Sum of Mulliken charges =  -0.00000

 Dipole moment (field-independent basis, Debye):
    X=              2.1087    Y=              1.0855    Z=              0.3520  Tot=              2.3977
 Quadrupole moment (field-independent basis, Debye-Ang):
   XX=            -79.7034   YY=            -93.8934   ZZ=           -108.3832
   XY=              9.5017   XZ=              0.8893   YZ=              0.8412

 Normal termination of Gaussian 16 at Sun Oct 17 01:37:49 2021.
