 Gaussian 16, Revision C.01,
 Gaussian 16:  ES64L-G16RevC.01  3-Jul-2019

 -------------------------------------
 # opt=modredundant b3lyp/6-311+g(d,p)
 -------------------------------------

 ------------
 pBTTT_60.pdb
 ------------
 Symbolic Z-matrix:
 Charge =  0 Multiplicity = 1

 SCF Done:  E(RB3LYP) =  -1654.53155974     A.U. after   17 cycles
 SCF Done:  E(RB3LYP) =  -1654.58445360     A.U. after   15 cycles
 SCF Done:  E(RB3LYP) =  -1654.61803308     A.U. after   15 cycles
 SCF Done:  E(RB3LYP) =  -1654.62729377     A.U. after   15 cycles
 SCF Done:  E(RB3LYP) =  -1654.62957763     A.U. after   14 cycles
 SCF Done:  E(RB3LYP) =  -1654.63020175     A.U. after   13 cycles
 SCF Done:  E(RB3LYP) =  -1654.63038394     A.U. after   14 cycles
 SCF Done:  E(RB3LYP) =  -1654.63053531     A.U. after   13 cycles
 SCF Done:  E(RB3LYP) =  -1654.63054659     A.U. after   12 cycles
 SCF Done:  E(RB3LYP) =  -1654.63055031     A.U. after   11 cycles
 SCF Done:  E(RB3LYP) =  -1654.63055108     A.U. after   10 cycles
 SCF Done:  E(RB3LYP) =  -1654.63055153     A.U. after    9 cycles
 Optimization completed.
    -- Stationary point found.

                         Standard orientation:
 ---------------------------------------------------------------------
 Center     Atomic      Atomic             Coordinates (Angstroms)
 Number     Number       Type             X           Y           Z
 ---------------------------------------------------------------------
      1          6           0        4.017993    0.328765    0.373131
      2          6           0        2.672240    0.782058    0.510188
      3          6           0        1.735678   -0.090122    0.002556
      4          6           0        4.097592   -0.892370   -0.232000
      5          1           0        4.879819    0.886511    0.719406
      6         16           0        2.540556   -1.502605   -0.659677
      7          1           0        4.984481   -1.465204   -0.454804
      8          6           0        0.284200    0.003687    0.019331
      9         16           0       -0.536458    1.369009   -0.755164
     10          6           0       -2.094650    0.683660   -0.391984
     11          6           0       -1.956094   -0.532828    0.264644
     12          6           0       -0.610777   -0.922522    0.496449
     13          1           0       -0.302180   -1.827307    1.001825
     14         16           0       -3.518217   -1.211428    0.640876
     15          6           0       -4.316688    0.160745   -0.093588
     16          6           0       -3.446219    1.085582   -0.593924
     17          1           0       -5.395416    0.192233   -0.110060
     18          1           0       -3.758451    1.998017   -1.082652
     19          8           0        2.304175    1.959845    1.094858
     20          1           0        3.084591    2.417433    1.422045
 ---------------------------------------------------------------------

 The electronic state is 1-A.
 Alpha  occ. eigenvalues --  -88.88540 -88.88042 -88.87712 -19.16800 -10.24876
 Alpha  occ. eigenvalues --  -10.21975 -10.21391 -10.21156 -10.20696 -10.20668
 Alpha  occ. eigenvalues --  -10.20639 -10.19229 -10.18956 -10.18886  -7.97131
 Alpha  occ. eigenvalues --   -7.96616  -7.96278  -5.93433  -5.93057  -5.92929
 Alpha  occ. eigenvalues --   -5.92707  -5.92598  -5.92565  -5.92233  -5.92165
 Alpha  occ. eigenvalues --   -5.91807  -1.07883  -0.91219  -0.89266  -0.84622
 Alpha  occ. eigenvalues --   -0.76988  -0.76074  -0.74229  -0.70969  -0.70151
 Alpha  occ. eigenvalues --   -0.61793  -0.60912  -0.57177  -0.55919  -0.53537
 Alpha  occ. eigenvalues --   -0.52001  -0.49323  -0.48464  -0.45252  -0.43714
 Alpha  occ. eigenvalues --   -0.43418  -0.41371  -0.40905  -0.39466  -0.38945
 Alpha  occ. eigenvalues --   -0.37770  -0.36922  -0.36097  -0.35735  -0.33782
 Alpha  occ. eigenvalues --   -0.33562  -0.28653  -0.26185  -0.24311  -0.23215
 Alpha  occ. eigenvalues --   -0.21017
 Alpha virt. eigenvalues --   -0.05069  -0.02492  -0.01696  -0.00230   0.00030
 Alpha virt. eigenvalues --    0.00233   0.00873   0.01662   0.02182   0.02803
 Alpha virt. eigenvalues --    0.03133   0.03717   0.03951   0.04308   0.04676

 Mulliken charges:
               1
     1  C   -0.059032
     2  C   -0.465239
     3  C    0.361159
     4  C   -0.226281
     5  H    0.119525
     6  S   -0.188121
     7  H    0.164467
     8  C    0.423192
     9  S   -0.438077
    10  C    0.200404
    11  C   -0.571012
    12  C    0.565634
    13  H    0.137960
    14  S   -0.391611
    15  C   -0.216200
    16  C    0.273689
    17  H    0.166018
    18  H    0.134469
    19  O   -0.242962
    20  H    0.252019
 Sum of Mulliken charges =  -0.00000

 Dipole moment (field-independent basis, Debye):
    X=              2.1066    Y=              0.6264    Z=              0.5209  Tot=              2.2587
 Quadrupole moment (field-independent basis, Debye-Ang):
   XX=            -78.3099   YY=            -97.9475   ZZ=           -105.3982
   XY=              1.1022   XZ=              5.0877   YZ=              0.1122

 Normal termination of Gaussian 16 at Sun Oct 17 02:18:15 2021.
