 Gaussian 16, Revision C.01,
 Gaussian 16:  ES64L-G16RevC.01  3-Jul-2019

 -------------------------------------
 # opt=modredundant b3lyp/6-311+g(d,p)
 -------------------------------------

 -------------
 pBTTT_125.pdb
 -------------
 Symbolic Z-matrix:
 Charge =  0 Multiplicity = 1

 SCF Done:  E(RB3LYP) =  -1654.53188186     A.U. after   16 cycles
 SCF Done:  E(RB3LYP) =  -1654.58499340     A.U. after   14 cycles
 SCF Done:  E(RB3LYP) =  -1654.61852880     A.U. after   15 cycles
 SCF Done:  E(RB3LYP) =  -1654.62778198     A.U. after   14 cycles
 SCF Done:  E(RB3LYP) =  -1654.63001877     A.U. after   15 cycles
 SCF Done:  E(RB3LYP) =  -1654.63061759     A.U. after   14 cycles
 SCF Done:  E(RB3LYP) =  -1654.63070589     A.U. after   14 cycles
 SCF Done:  E(RB3LYP) =  -1654.63085295     A.U. after   13 cycles
 SCF Done:  E(RB3LYP) =  -1654.63086084     A.U. after   12 cycles
 SCF Done:  E(RB3LYP) =  -1654.63086437     A.U. after   11 cycles
 SCF Done:  E(RB3LYP) =  -1654.63086634     A.U. after   11 cycles
 SCF Done:  E(RB3LYP) =  -1654.63086655     A.U. after   10 cycles
 SCF Done:  E(RB3LYP) =  -1654.63086657     A.U. after    9 cycles
 Optimization completed.
    -- Stationary point found.

                         Standard orientation:
 ---------------------------------------------------------------------
 Center     Atomic      Atomic             Coordinates (Angstroms)
 Number     Number       Type             X           Y           Z
 ---------------------------------------------------------------------
      1          6           0       -3.928065    0.813221    0.251593
      2          6           0       -2.528562    1.067279    0.362654
      3          6           0       -1.736810    0.045267   -0.112398
      4          6           0       -4.193839   -0.408322   -0.295854
      5          1           0       -4.694105    1.509621    0.570724
      6         16           0       -2.749657   -1.261297   -0.705834
      7          1           0       -5.157542   -0.852140   -0.491983
      8          6           0       -0.287693   -0.047441   -0.095958
      9         16           0        0.512147   -1.448328    0.643344
     10          6           0        2.080823   -0.759840    0.330716
     11          6           0        1.958110    0.484121   -0.275280
     12          6           0        0.619653    0.890114   -0.519945
     13          1           0        0.323286    1.819157   -0.985367
     14         16           0        3.529654    1.173421   -0.586523
     15          6           0        4.309315   -0.231251    0.105068
     16          6           0        3.425934   -1.173921    0.546740
     17          1           0        5.387357   -0.267628    0.142163
     18          1           0        3.725234   -2.107236    1.003019
     19          8           0       -1.986697    2.208664    0.882871
     20          1           0       -2.678161    2.732816    1.298666
 ---------------------------------------------------------------------

 The electronic state is 1-A.
 Alpha  occ. eigenvalues --  -88.88527 -88.88036 -88.87852 -19.16861 -10.24910
 Alpha  occ. eigenvalues --  -10.21909 -10.21420 -10.21227 -10.20723 -10.20664
 Alpha  occ. eigenvalues --  -10.20656 -10.19248 -10.18978 -10.18740  -7.97124
 Alpha  occ. eigenvalues --   -7.96611  -7.96426  -5.93425  -5.93051  -5.92923
 Alpha  occ. eigenvalues --   -5.92745  -5.92699  -5.92559  -5.92384  -5.92160
 Alpha  occ. eigenvalues --   -5.91954  -1.07902  -0.91231  -0.89283  -0.84628
 Alpha  occ. eigenvalues --   -0.77016  -0.76104  -0.74254  -0.70983  -0.70103
 Alpha  occ. eigenvalues --   -0.61826  -0.60905  -0.57087  -0.55909  -0.53880
 Alpha  occ. eigenvalues --   -0.51820  -0.49282  -0.48469  -0.45361  -0.43642
 Alpha  occ. eigenvalues --   -0.43411  -0.41279  -0.40867  -0.39645  -0.39003
 Alpha  occ. eigenvalues --   -0.37808  -0.36759  -0.35992  -0.35829  -0.33906
 Alpha  occ. eigenvalues --   -0.33623  -0.28698  -0.26258  -0.24506  -0.23286
 Alpha  occ. eigenvalues --   -0.20827
 Alpha virt. eigenvalues --   -0.05147  -0.02691  -0.01577  -0.00196   0.00189
 Alpha virt. eigenvalues --    0.00436   0.00962   0.01651   0.02083   0.02746
 Alpha virt. eigenvalues --    0.03099   0.03761   0.03804   0.04642   0.04694

 Mulliken charges:
               1
     1  C   -0.165068
     2  C   -0.290233
     3  C    0.411054
     4  C   -0.175126
     5  H    0.120492
     6  S   -0.267774
     7  H    0.164154
     8  C    0.152967
     9  S   -0.571831
    10  C    0.109626
    11  C   -0.256215
    12  C    0.632289
    13  H    0.135852
    14  S   -0.395669
    15  C   -0.206612
    16  C    0.287579
    17  H    0.166105
    18  H    0.133894
    19  O   -0.236325
    20  H    0.250844
 Sum of Mulliken charges =  -0.00000

 Dipole moment (field-independent basis, Debye):
    X=             -1.9672    Y=              0.9047    Z=              0.6827  Tot=              2.2703
 Quadrupole moment (field-independent basis, Debye-Ang):
   XX=            -79.8943   YY=            -96.8320   ZZ=           -105.4216
   XY=             -8.3262   XZ=             -1.4377   YZ=              0.7373

 Normal termination of Gaussian 16 at Sun Oct 17 02:22:02 2021.
