 Gaussian 16, Revision C.01,
 Gaussian 16:  ES64L-G16RevC.01  3-Jul-2019

 -------------------------------------
 # opt=modredundant b3lyp/6-311+g(d,p)
 -------------------------------------

 -------------
 pBTTT_-45.pdb
 -------------
 Symbolic Z-matrix:
 Charge =  0 Multiplicity = 1

 SCF Done:  E(RB3LYP) =  -1654.53402181     A.U. after   17 cycles
 SCF Done:  E(RB3LYP) =  -1654.58677046     A.U. after   14 cycles
 SCF Done:  E(RB3LYP) =  -1654.61962136     A.U. after   15 cycles
 SCF Done:  E(RB3LYP) =  -1654.62873776     A.U. after   15 cycles
 SCF Done:  E(RB3LYP) =  -1654.63076381     A.U. after   14 cycles
 SCF Done:  E(RB3LYP) =  -1654.63118226     A.U. after   13 cycles
 SCF Done:  E(RB3LYP) =  -1654.63130430     A.U. after   13 cycles
 SCF Done:  E(RB3LYP) =  -1654.63144741     A.U. after   13 cycles
 SCF Done:  E(RB3LYP) =  -1654.63145801     A.U. after   12 cycles
 SCF Done:  E(RB3LYP) =  -1654.63146425     A.U. after   11 cycles
 SCF Done:  E(RB3LYP) =  -1654.63146743     A.U. after   10 cycles
 SCF Done:  E(RB3LYP) =  -1654.63146753     A.U. after    9 cycles
 Optimization completed.
    -- Stationary point found.

                         Standard orientation:
 ---------------------------------------------------------------------
 Center     Atomic      Atomic             Coordinates (Angstroms)
 Number     Number       Type             X           Y           Z
 ---------------------------------------------------------------------
      1          6           0       -4.024701    0.337825    0.278481
      2          6           0       -2.685844    0.817653    0.377500
      3          6           0       -1.732178   -0.102577   -0.000941
      4          6           0       -4.085793   -0.949188   -0.172034
      5          1           0       -4.895949    0.926585    0.539202
      6         16           0       -2.516689   -1.591502   -0.500651
      7          1           0       -4.963646   -1.554381   -0.336917
      8          6           0       -0.285417   -0.000840    0.025553
      9         16           0        0.532464    1.459000   -0.556049
     10          6           0        2.092002    0.730226   -0.295247
     11          6           0        1.956836   -0.562885    0.193876
     12          6           0        0.613744   -0.980550    0.378120
     13          1           0        0.310083   -1.943595    0.764910
     14         16           0        3.521067   -1.281066    0.476662
     15          6           0        4.315717    0.179005   -0.069311
     16          6           0        3.441856    1.159554   -0.441857
     17          1           0        5.394315    0.214802   -0.083143
     18          1           0        3.751103    2.129715   -0.805290
     19          8           0       -2.337008    2.064693    0.812571
     20          1           0       -3.126639    2.557096    1.056450
 ---------------------------------------------------------------------

 The electronic state is 1-A.
 Alpha  occ. eigenvalues --  -88.88600 -88.87992 -88.87702 -19.16936 -10.24918
 Alpha  occ. eigenvalues --  -10.22082 -10.21435 -10.21338 -10.20660 -10.20603
 Alpha  occ. eigenvalues --  -10.20571 -10.19300 -10.18913 -10.18795  -7.97196
 Alpha  occ. eigenvalues --   -7.96566  -7.96263  -5.93501  -5.93125  -5.92879
 Alpha  occ. eigenvalues --   -5.92765  -5.92587  -5.92515  -5.92219  -5.92114
 Alpha  occ. eigenvalues --   -5.91787  -1.08005  -0.91210  -0.89338  -0.84613
 Alpha  occ. eigenvalues --   -0.77031  -0.76114  -0.74320  -0.70936  -0.70145
 Alpha  occ. eigenvalues --   -0.61869  -0.61038  -0.57199  -0.55999  -0.53376
 Alpha  occ. eigenvalues --   -0.52066  -0.49297  -0.48571  -0.45284  -0.43748
 Alpha  occ. eigenvalues --   -0.43547  -0.41303  -0.40902  -0.39466  -0.38925
 Alpha  occ. eigenvalues --   -0.37897  -0.36923  -0.36202  -0.35702  -0.33804
 Alpha  occ. eigenvalues --   -0.33628  -0.28701  -0.26489  -0.24641  -0.23180
 Alpha  occ. eigenvalues --   -0.20488
 Alpha virt. eigenvalues --   -0.05448  -0.02066  -0.01720  -0.00166   0.00020
 Alpha virt. eigenvalues --    0.00251   0.01036   0.01688   0.02258   0.02800
 Alpha virt. eigenvalues --    0.03145   0.03748   0.04104   0.04291   0.04697

 Mulliken charges:
               1
     1  C   -0.162701
     2  C   -0.391301
     3  C    0.635502
     4  C   -0.128075
     5  H    0.119268
     6  S   -0.344258
     7  H    0.164149
     8  C    0.641004
     9  S   -0.367368
    10  C    0.401272
    11  C    0.046792
    12  C   -0.262261
    13  H    0.139568
    14  S   -0.409247
    15  C   -0.140019
    16  C   -0.255972
    17  H    0.165726
    18  H    0.134414
    19  O   -0.239988
    20  H    0.253492
 Sum of Mulliken charges =  -0.00000

 Dipole moment (field-independent basis, Debye):
    X=             -2.2117    Y=              0.7396    Z=              0.4013  Tot=              2.3664
 Quadrupole moment (field-independent basis, Debye-Ang):
   XX=            -78.2110   YY=            -96.4934   ZZ=           -107.0047
   XY=             -1.2994   XZ=             -3.8555   YZ=              0.0980

 Normal termination of Gaussian 16 at Sun Oct 17 02:01:57 2021.
