 Gaussian 16, Revision C.01,
 Gaussian 16:  ES64L-G16RevC.01  3-Jul-2019

 -------------------------------------
 # opt=modredundant b3lyp/6-311+g(d,p)
 -------------------------------------

 -------------
 pBTTT_165.pdb
 -------------
 Symbolic Z-matrix:
 Charge =  0 Multiplicity = 1

 SCF Done:  E(RB3LYP) =  -1654.53481946     A.U. after   17 cycles
 SCF Done:  E(RB3LYP) =  -1654.58747022     A.U. after   14 cycles
 SCF Done:  E(RB3LYP) =  -1654.62061899     A.U. after   15 cycles
 SCF Done:  E(RB3LYP) =  -1654.62969243     A.U. after   15 cycles
 SCF Done:  E(RB3LYP) =  -1654.63177583     A.U. after   14 cycles
 SCF Done:  E(RB3LYP) =  -1654.63233533     A.U. after   13 cycles
 SCF Done:  E(RB3LYP) =  -1654.63244771     A.U. after   13 cycles
 SCF Done:  E(RB3LYP) =  -1654.63259291     A.U. after   12 cycles
 SCF Done:  E(RB3LYP) =  -1654.63259913     A.U. after   12 cycles
 SCF Done:  E(RB3LYP) =  -1654.63260459     A.U. after   11 cycles
 SCF Done:  E(RB3LYP) =  -1654.63260615     A.U. after   10 cycles
 SCF Done:  E(RB3LYP) =  -1654.63260623     A.U. after    8 cycles
 Optimization completed.
    -- Stationary point found.

                         Standard orientation:
 ---------------------------------------------------------------------
 Center     Atomic      Atomic             Coordinates (Angstroms)
 Number     Number       Type             X           Y           Z
 ---------------------------------------------------------------------
      1          6           0       -3.930397    0.882510    0.066276
      2          6           0       -2.533819    1.157779    0.106874
      3          6           0       -1.734163    0.038492   -0.021010
      4          6           0       -4.196641   -0.445677   -0.096193
      5          1           0       -4.696042    1.643891    0.154439
      6         16           0       -2.749065   -1.381664   -0.217824
      7          1           0       -5.157649   -0.931346   -0.159550
      8          6           0       -0.290242   -0.037158   -0.012737
      9         16           0        0.526634   -1.597989    0.204455
     10          6           0        2.089988   -0.835986    0.096448
     11          6           0        1.953517    0.534852   -0.075853
     12          6           0        0.613384    0.994985   -0.140156
     13          1           0        0.310058    2.021455   -0.275675
     14         16           0        3.519397    1.297073   -0.176548
     15          6           0        4.312947   -0.250163    0.015910
     16          6           0        3.437026   -1.289903    0.149261
     17          1           0        5.391415   -0.290305    0.018325
     18          1           0        3.744401   -2.318414    0.277882
     19          8           0       -1.996939    2.407243    0.255944
     20          1           0       -2.697721    3.039659    0.442772
 ---------------------------------------------------------------------

 The electronic state is 1-A.
 Alpha  occ. eigenvalues --  -88.88679 -88.87965 -88.87882 -19.17350 -10.24998
 Alpha  occ. eigenvalues --  -10.22182 -10.21658 -10.21478 -10.20678 -10.20618
 Alpha  occ. eigenvalues --  -10.20563 -10.19392 -10.18943 -10.18410  -7.97285
 Alpha  occ. eigenvalues --   -7.96539  -7.96471  -5.93594  -5.93217  -5.92850
 Alpha  occ. eigenvalues --   -5.92844  -5.92797  -5.92487  -5.92437  -5.92088
 Alpha  occ. eigenvalues --   -5.91983  -1.08305  -0.91251  -0.89441  -0.84635
 Alpha  occ. eigenvalues --   -0.77107  -0.76210  -0.74448  -0.70947  -0.70092
 Alpha  occ. eigenvalues --   -0.62015  -0.61221  -0.57024  -0.56194  -0.53785
 Alpha  occ. eigenvalues --   -0.51864  -0.49410  -0.48454  -0.45427  -0.43788
 Alpha  occ. eigenvalues --   -0.43643  -0.41184  -0.40844  -0.39879  -0.39118
 Alpha  occ. eigenvalues --   -0.37818  -0.36756  -0.36521  -0.35637  -0.34157
 Alpha  occ. eigenvalues --   -0.33635  -0.28888  -0.26903  -0.24935  -0.23329
 Alpha  occ. eigenvalues --   -0.19911
 Alpha virt. eigenvalues --   -0.05890  -0.02386  -0.01216  -0.00826   0.00378
 Alpha virt. eigenvalues --    0.00566   0.01298   0.01471   0.02152   0.02684
 Alpha virt. eigenvalues --    0.03410   0.03770   0.04154   0.04704   0.04839

 Mulliken charges:
               1
     1  C   -0.282176
     2  C    0.239641
     3  C    0.501603
     4  C   -0.098589
     5  H    0.118891
     6  S   -0.497253
     7  H    0.162237
     8  C    0.110527
     9  S   -0.584624
    10  C    0.348760
    11  C    0.273576
    12  C    0.015986
    13  H    0.149019
    14  S   -0.407114
    15  C   -0.148203
    16  C   -0.212367
    17  H    0.165973
    18  H    0.133119
    19  O   -0.248018
    20  H    0.259013
 Sum of Mulliken charges =  -0.00000

 Dipole moment (field-independent basis, Debye):
    X=             -2.1302    Y=              1.1082    Z=              0.2758  Tot=              2.4170
 Quadrupole moment (field-independent basis, Debye-Ang):
   XX=            -79.6405   YY=            -93.6070   ZZ=           -108.6670
   XY=             -9.6304   XZ=             -0.7193   YZ=              0.7230

 Normal termination of Gaussian 16 at Sun Oct 17 02:30:32 2021.
