 Gaussian 16, Revision C.01,
 Gaussian 16:  ES64L-G16RevC.01  3-Jul-2019

 -------------------------------------
 # opt=modredundant b3lyp/6-311+g(d,p)
 -------------------------------------

 ------------
 pBTTT_65.pdb
 ------------
 Symbolic Z-matrix:
 Charge =  0 Multiplicity = 1

 SCF Done:  E(RB3LYP) =  -1654.53105067     A.U. after   17 cycles
 SCF Done:  E(RB3LYP) =  -1654.58404062     A.U. after   14 cycles
 SCF Done:  E(RB3LYP) =  -1654.61775735     A.U. after   15 cycles
 SCF Done:  E(RB3LYP) =  -1654.62698432     A.U. after   15 cycles
 SCF Done:  E(RB3LYP) =  -1654.62925004     A.U. after   14 cycles
 SCF Done:  E(RB3LYP) =  -1654.62987021     A.U. after   14 cycles
 SCF Done:  E(RB3LYP) =  -1654.63004124     A.U. after   13 cycles
 SCF Done:  E(RB3LYP) =  -1654.63019456     A.U. after   13 cycles
 SCF Done:  E(RB3LYP) =  -1654.63020699     A.U. after   12 cycles
 SCF Done:  E(RB3LYP) =  -1654.63021115     A.U. after   11 cycles
 SCF Done:  E(RB3LYP) =  -1654.63021122     A.U. after   10 cycles
 SCF Done:  E(RB3LYP) =  -1654.63021174     A.U. after   10 cycles
 Optimization completed.
    -- Stationary point found.

                         Standard orientation:
 ---------------------------------------------------------------------
 Center     Atomic      Atomic             Coordinates (Angstroms)
 Number     Number       Type             X           Y           Z
 ---------------------------------------------------------------------
      1          6           0        4.014061    0.328753    0.407450
      2          6           0        2.664174    0.766779    0.556589
      3          6           0        1.736894   -0.088161    0.005830
      4          6           0        4.104899   -0.863822   -0.250718
      5          1           0        4.870321    0.876127    0.782860
      6         16           0        2.554553   -1.465699   -0.712236
      7          1           0        4.997029   -1.420444   -0.493038
      8          6           0        0.283699    0.001776    0.015434
      9         16           0       -0.536816    1.328311   -0.824175
     10          6           0       -2.095063    0.663033   -0.426463
     11          6           0       -1.956513   -0.519875    0.288974
     12          6           0       -0.610854   -0.899153    0.537396
     13          1           0       -0.301629   -1.779271    1.084251
     14         16           0       -3.518551   -1.179781    0.697389
     15          6           0       -4.317038    0.154490   -0.103578
     16          6           0       -3.446863    1.053928   -0.648553
     17          1           0       -5.395778    0.185252   -0.121282
     18          1           0       -3.759250    1.941256   -1.181400
     19          8           0        2.284669    1.914973    1.190196
     20          1           0        3.060606    2.365499    1.537228
 ---------------------------------------------------------------------

 The electronic state is 1-A.
 Alpha  occ. eigenvalues --  -88.88515 -88.88055 -88.87713 -19.16769 -10.24867
 Alpha  occ. eigenvalues --  -10.21937 -10.21383 -10.21097 -10.20707 -10.20687
 Alpha  occ. eigenvalues --  -10.20651 -10.19207 -10.18967 -10.18912  -7.97105
 Alpha  occ. eigenvalues --   -7.96630  -7.96280  -5.93405  -5.93030  -5.92942
 Alpha  occ. eigenvalues --   -5.92682  -5.92599  -5.92578  -5.92234  -5.92178
 Alpha  occ. eigenvalues --   -5.91811  -1.07857  -0.91218  -0.89242  -0.84622
 Alpha  occ. eigenvalues --   -0.76973  -0.76059  -0.74200  -0.70977  -0.70152
 Alpha  occ. eigenvalues --   -0.61768  -0.60879  -0.57170  -0.55892  -0.53589
 Alpha  occ. eigenvalues --   -0.51979  -0.49332  -0.48433  -0.45245  -0.43702
 Alpha  occ. eigenvalues --   -0.43380  -0.41384  -0.40908  -0.39466  -0.38953
 Alpha  occ. eigenvalues --   -0.37747  -0.36916  -0.36080  -0.35725  -0.33801
 Alpha  occ. eigenvalues --   -0.33509  -0.28643  -0.26082  -0.24151  -0.23228
 Alpha  occ. eigenvalues --   -0.21230
 Alpha virt. eigenvalues --   -0.04921  -0.02669  -0.01683  -0.00240   0.00046
 Alpha virt. eigenvalues --    0.00237   0.00831   0.01655   0.02159   0.02809
 Alpha virt. eigenvalues --    0.03128   0.03698   0.03908   0.04325   0.04676

 Mulliken charges:
               1
     1  C   -0.041941
     2  C   -0.481702
     3  C    0.331012
     4  C   -0.240143
     5  H    0.119568
     6  S   -0.168753
     7  H    0.164401
     8  C    0.464127
     9  S   -0.435107
    10  C    0.195927
    11  C   -0.539609
    12  C    0.515017
    13  H    0.137437
    14  S   -0.388983
    15  C   -0.217630
    16  C    0.277902
    17  H    0.166131
    18  H    0.134571
    19  O   -0.244805
    20  H    0.252582
 Sum of Mulliken charges =  -0.00000

 Dipole moment (field-independent basis, Debye):
    X=              2.0765    Y=              0.6024    Z=              0.5520  Tot=              2.2315
 Quadrupole moment (field-independent basis, Debye-Ang):
   XX=            -78.3600   YY=            -98.4766   ZZ=           -104.7923
   XY=              1.0935   XZ=              5.4480   YZ=              0.0974

 Normal termination of Gaussian 16 at Sun Oct 17 02:20:31 2021.
