 Gaussian 16, Revision C.01,
 Gaussian 16:  ES64L-G16RevC.01  3-Jul-2019

 -------------------------------------
 # opt=modredundant b3lyp/6-311+g(d,p)
 -------------------------------------

 -------------
 pBTTT_120.pdb
 -------------
 Symbolic Z-matrix:
 Charge =  0 Multiplicity = 1

 SCF Done:  E(RB3LYP) =  -1654.53136498     A.U. after   17 cycles
 SCF Done:  E(RB3LYP) =  -1654.58454832     A.U. after   14 cycles
 SCF Done:  E(RB3LYP) =  -1654.61819592     A.U. after   15 cycles
 SCF Done:  E(RB3LYP) =  -1654.62742734     A.U. after   14 cycles
 SCF Done:  E(RB3LYP) =  -1654.62964641     A.U. after   15 cycles
 SCF Done:  E(RB3LYP) =  -1654.63023749     A.U. after   14 cycles
 SCF Done:  E(RB3LYP) =  -1654.63033285     A.U. after   14 cycles
 SCF Done:  E(RB3LYP) =  -1654.63047861     A.U. after   13 cycles
 SCF Done:  E(RB3LYP) =  -1654.63048684     A.U. after   11 cycles
 SCF Done:  E(RB3LYP) =  -1654.63049037     A.U. after   11 cycles
 SCF Done:  E(RB3LYP) =  -1654.63049250     A.U. after   11 cycles
 SCF Done:  E(RB3LYP) =  -1654.63049270     A.U. after   10 cycles
 SCF Done:  E(RB3LYP) =  -1654.63049272     A.U. after   10 cycles
 Optimization completed.
    -- Stationary point found.

                         Standard orientation:
 ---------------------------------------------------------------------
 Center     Atomic      Atomic             Coordinates (Angstroms)
 Number     Number       Type             X           Y           Z
 ---------------------------------------------------------------------
      1          6           0       -3.930874    0.796433    0.266647
      2          6           0       -2.531712    1.045453    0.396532
      3          6           0       -1.737526    0.044729   -0.116676
      4          6           0       -4.192952   -0.401242   -0.332839
      5          1           0       -4.699001    1.478921    0.609917
      6         16           0       -2.746529   -1.237329   -0.767722
      7          1           0       -5.155648   -0.836029   -0.552948
      8          6           0       -0.286941   -0.047913   -0.097269
      9         16           0        0.512125   -1.414353    0.704440
     10          6           0        2.081004   -0.741431    0.361897
     11          6           0        1.959292    0.473139   -0.301308
     12          6           0        0.620697    0.867873   -0.564205
     13          1           0        0.324689    1.774503   -1.072414
     14         16           0        3.531159    1.146685   -0.643733
     15          6           0        4.309863   -0.224593    0.112677
     16          6           0        3.426143   -1.145460    0.597284
     17          1           0        5.387891   -0.259590    0.151817
     18          1           0        3.724983   -2.056663    1.096526
     19          8           0       -1.993027    2.162758    0.968814
     20          1           0       -2.688750    2.674830    1.392392
 ---------------------------------------------------------------------

 The electronic state is 1-A.
 Alpha  occ. eigenvalues --  -88.88499 -88.88048 -88.87836 -19.16816 -10.24903
 Alpha  occ. eigenvalues --  -10.21878 -10.21412 -10.21165 -10.20729 -10.20674
 Alpha  occ. eigenvalues --  -10.20668 -10.19225 -10.18984 -10.18783  -7.97096
 Alpha  occ. eigenvalues --   -7.96622  -7.96410  -5.93395  -5.93021  -5.92934
 Alpha  occ. eigenvalues --   -5.92727  -5.92672  -5.92570  -5.92367  -5.92172
 Alpha  occ. eigenvalues --   -5.91939  -1.07871  -0.91227  -0.89257  -0.84624
 Alpha  occ. eigenvalues --   -0.77000  -0.76085  -0.74223  -0.70986  -0.70109
 Alpha  occ. eigenvalues --   -0.61798  -0.60872  -0.57098  -0.55874  -0.53887
 Alpha  occ. eigenvalues --   -0.51823  -0.49292  -0.48449  -0.45347  -0.43632
 Alpha  occ. eigenvalues --   -0.43374  -0.41292  -0.40880  -0.39608  -0.39003
 Alpha  occ. eigenvalues --   -0.37800  -0.36764  -0.36003  -0.35785  -0.33900
 Alpha  occ. eigenvalues --   -0.33577  -0.28680  -0.26150  -0.24389  -0.23261
 Alpha  occ. eigenvalues --   -0.21021
 Alpha virt. eigenvalues --   -0.05009  -0.02804  -0.01599  -0.00143   0.00162
 Alpha virt. eigenvalues --    0.00418   0.00915   0.01666   0.02071   0.02768
 Alpha virt. eigenvalues --    0.03055   0.03726   0.03823   0.04588   0.04696

 Mulliken charges:
               1
     1  C   -0.161777
     2  C   -0.294868
     3  C    0.395791
     4  C   -0.177578
     5  H    0.120455
     6  S   -0.249452
     7  H    0.164141
     8  C    0.154790
     9  S   -0.558031
    10  C    0.088332
    11  C   -0.246575
    12  C    0.602589
    13  H    0.133735
    14  S   -0.393886
    15  C   -0.210664
    16  C    0.313696
    17  H    0.166145
    18  H    0.133978
    19  O   -0.232110
    20  H    0.251290
 Sum of Mulliken charges =  -0.00000

 Dipole moment (field-independent basis, Debye):
    X=             -1.9522    Y=              0.8828    Z=              0.6880  Tot=              2.2503
 Quadrupole moment (field-independent basis, Debye-Ang):
   XX=            -79.8300   YY=            -97.3710   ZZ=           -104.8986
   XY=             -8.1649   XZ=             -1.4127   YZ=              0.6418

 Normal termination of Gaussian 16 at Sun Oct 17 02:27:41 2021.
