 Gaussian 16, Revision C.01,
 Gaussian 16:  ES64L-G16RevC.01  3-Jul-2019

 -------------------------------------
 # opt=modredundant b3lyp/6-311+g(d,p)
 -------------------------------------

 -------------
 pBTTT_-90.pdb
 -------------
 Symbolic Z-matrix:
 Charge =  0 Multiplicity = 1

 SCF Done:  E(RB3LYP) =  -1654.52979769     A.U. after   16 cycles
 SCF Done:  E(RB3LYP) =  -1654.58305322     A.U. after   14 cycles
 SCF Done:  E(RB3LYP) =  -1654.61720188     A.U. after   15 cycles
 SCF Done:  E(RB3LYP) =  -1654.62627510     A.U. after   15 cycles
 SCF Done:  E(RB3LYP) =  -1654.62837546     A.U. after   14 cycles
 SCF Done:  E(RB3LYP) =  -1654.62885132     A.U. after   13 cycles
 SCF Done:  E(RB3LYP) =  -1654.62907373     A.U. after   14 cycles
 SCF Done:  E(RB3LYP) =  -1654.62919114     A.U. after   13 cycles
 SCF Done:  E(RB3LYP) =  -1654.62921157     A.U. after   12 cycles
 SCF Done:  E(RB3LYP) =  -1654.62922544     A.U. after   12 cycles
 SCF Done:  E(RB3LYP) =  -1654.62922877     A.U. after   11 cycles
 SCF Done:  E(RB3LYP) =  -1654.62922887     A.U. after   10 cycles
 SCF Done:  E(RB3LYP) =  -1654.62922849     A.U. after   10 cycles
 Optimization completed.
    -- Stationary point found.

                         Standard orientation:
 ---------------------------------------------------------------------
 Center     Atomic      Atomic             Coordinates (Angstroms)
 Number     Number       Type             X           Y           Z
 ---------------------------------------------------------------------
      1          6           0        3.972537    0.699943    0.049035
      2          6           0        2.590371    1.007915    0.234455
      3          6           0        1.740759   -0.017052   -0.108151
      4          6           0        4.162660   -0.564217   -0.429115
      5          1           0        4.778965    1.391382    0.261741
      6         16           0        2.671075   -1.398534   -0.665596
      7          1           0        5.097991   -1.050050   -0.661047
      8          6           0        0.282668   -0.044482   -0.036624
      9         16           0       -0.525740   -0.605950    1.437583
     10          6           0       -2.089796   -0.321404    0.730537
     11          6           0       -1.961635    0.175548   -0.560673
     12          6           0       -0.618706    0.330342   -0.997858
     13          1           0       -0.315186    0.703452   -1.966185
     14         16           0       -3.529287    0.463547   -1.268929
     15          6           0       -4.315898   -0.092685    0.190428
     16          6           0       -3.438612   -0.475560    1.163326
     17          1           0       -5.394335   -0.099277    0.234461
     18          1           0       -3.743477   -0.845980    2.132161
     19          8           0        2.115192    2.199069    0.700645
     20          1           0        2.851640    2.772841    0.932641
 ---------------------------------------------------------------------

 The electronic state is 1-A.
 Alpha  occ. eigenvalues --  -88.88406 -88.88092 -88.87743 -19.16707 -10.24854
 Alpha  occ. eigenvalues --  -10.21797 -10.21370 -10.20928 -10.20756 -10.20744
 Alpha  occ. eigenvalues --  -10.20673 -10.19141 -10.19005 -10.18961  -7.96997
 Alpha  occ. eigenvalues --   -7.96667  -7.96313  -5.93295  -5.92978  -5.92921
 Alpha  occ. eigenvalues --   -5.92628  -5.92615  -5.92579  -5.92265  -5.92216
 Alpha  occ. eigenvalues --   -5.91851  -1.07801  -0.91215  -0.89164  -0.84618
 Alpha  occ. eigenvalues --   -0.76937  -0.76016  -0.74113  -0.71003  -0.70144
 Alpha  occ. eigenvalues --   -0.61695  -0.60785  -0.57146  -0.55784  -0.53819
 Alpha  occ. eigenvalues --   -0.51882  -0.49354  -0.48353  -0.45255  -0.43636
 Alpha  occ. eigenvalues --   -0.43265  -0.41380  -0.40925  -0.39470  -0.39016
 Alpha  occ. eigenvalues --   -0.37740  -0.36849  -0.36036  -0.35654  -0.33874
 Alpha  occ. eigenvalues --   -0.33370  -0.28636  -0.25785  -0.23483  -0.23085
 Alpha  occ. eigenvalues --   -0.22220
 Alpha virt. eigenvalues --   -0.04245  -0.03488  -0.01644  -0.00199   0.00154
 Alpha virt. eigenvalues --    0.00310   0.00726   0.01655   0.02081   0.02811
 Alpha virt. eigenvalues --    0.03050   0.03630   0.03831   0.04297   0.04729

 Mulliken charges:
               1
     1  C   -0.078559
     2  C   -0.420172
     3  C    0.305860
     4  C   -0.196650
     5  H    0.120163
     6  S   -0.104974
     7  H    0.163795
     8  C    0.266431
     9  S   -0.473609
    10  C    0.175558
    11  C   -0.472672
    12  C    0.521853
    13  H    0.132124
    14  S   -0.382949
    15  C   -0.218518
    16  C    0.334493
    17  H    0.166433
    18  H    0.134730
    19  O   -0.232444
    20  H    0.259107
 Sum of Mulliken charges =  -0.00000

 Dipole moment (field-independent basis, Debye):
    X=              1.9361    Y=              0.9183    Z=              0.2812  Tot=              2.1612
 Quadrupole moment (field-independent basis, Debye-Ang):
   XX=            -79.0499   YY=           -101.1134   ZZ=           -101.5734
   XY=              6.8703   XZ=             -1.6921   YZ=              0.1599

 Normal termination of Gaussian 16 at Sun Oct 17 01:57:29 2021.
