 Gaussian 16, Revision C.01,
 Gaussian 16:  ES64L-G16RevC.01  3-Jul-2019

 -------------------------------------
 # opt=modredundant b3lyp/6-311+g(d,p)
 -------------------------------------

 --------------
 pBTTT_-170.pdb
 --------------
 Symbolic Z-matrix:
 Charge =  0 Multiplicity = 1

 SCF Done:  E(RB3LYP) =  -1654.53525177     A.U. after   17 cycles
 SCF Done:  E(RB3LYP) =  -1654.58772336     A.U. after   15 cycles
 SCF Done:  E(RB3LYP) =  -1654.62083027     A.U. after   16 cycles
 SCF Done:  E(RB3LYP) =  -1654.62968349     A.U. after   15 cycles
 SCF Done:  E(RB3LYP) =  -1654.63177636     A.U. after   15 cycles
 SCF Done:  E(RB3LYP) =  -1654.63230691     A.U. after   13 cycles
 SCF Done:  E(RB3LYP) =  -1654.63238850     A.U. after   13 cycles
 SCF Done:  E(RB3LYP) =  -1654.63258406     A.U. after   12 cycles
 SCF Done:  E(RB3LYP) =  -1654.63259200     A.U. after   12 cycles
 SCF Done:  E(RB3LYP) =  -1654.63259824     A.U. after   11 cycles
 SCF Done:  E(RB3LYP) =  -1654.63260024     A.U. after   10 cycles
 Optimization completed.
    -- Stationary point found.

                         Standard orientation:
 ---------------------------------------------------------------------
 Center     Atomic      Atomic             Coordinates (Angstroms)
 Number     Number       Type             X           Y           Z
 ---------------------------------------------------------------------
      1          6           0        3.930753    0.886033    0.042958
      2          6           0        2.534265    1.162333    0.072294
      3          6           0        1.734094    0.038824   -0.011988
      4          6           0        4.197528   -0.447297   -0.067101
      5          1           0        4.696104    1.650579    0.101441
      6         16           0        2.750051   -1.387804   -0.148573
      7          1           0        5.158461   -0.935179   -0.111169
      8          6           0        0.290187   -0.036666   -0.006061
      9         16           0       -0.527358   -1.605513    0.140638
     10          6           0       -2.090758   -0.839534    0.065374
     11          6           0       -1.953982    0.537031   -0.050544
     12          6           0       -0.614012    0.999942   -0.092427
     13          1           0       -0.310988    2.031142   -0.184069
     14         16           0       -3.519865    1.302846   -0.120472
     15          6           0       -4.313596   -0.250895    0.008640
     16          6           0       -3.437674   -1.295301    0.099383
     17          1           0       -5.392064   -0.291083    0.008587
     18          1           0       -3.745056   -2.328202    0.185967
     19          8           0        1.998152    2.416833    0.172765
     20          1           0        2.702234    3.058790    0.308459
 ---------------------------------------------------------------------

 The electronic state is 1-A.
 Alpha  occ. eigenvalues --  -88.88687 -88.87958 -88.87879 -19.17400 -10.25014
 Alpha  occ. eigenvalues --  -10.22205 -10.21689 -10.21487 -10.20674 -10.20611
 Alpha  occ. eigenvalues --  -10.20557 -10.19403 -10.18940 -10.18381  -7.97294
 Alpha  occ. eigenvalues --   -7.96532  -7.96469  -5.93604  -5.93226  -5.92852
 Alpha  occ. eigenvalues --   -5.92843  -5.92796  -5.92480  -5.92436  -5.92081
 Alpha  occ. eigenvalues --   -5.91979  -1.08354  -0.91249  -0.89451  -0.84631
 Alpha  occ. eigenvalues --   -0.77111  -0.76214  -0.74461  -0.70941  -0.70094
 Alpha  occ. eigenvalues --   -0.62028  -0.61252  -0.57019  -0.56217  -0.53776
 Alpha  occ. eigenvalues --   -0.51872  -0.49432  -0.48446  -0.45431  -0.43804
 Alpha  occ. eigenvalues --   -0.43657  -0.41164  -0.40866  -0.39885  -0.39127
 Alpha  occ. eigenvalues --   -0.37819  -0.36749  -0.36598  -0.35603  -0.34185
 Alpha  occ. eigenvalues --   -0.33616  -0.28901  -0.26938  -0.24953  -0.23320
 Alpha  occ. eigenvalues --   -0.19863
 Alpha virt. eigenvalues --   -0.05932  -0.02394  -0.01162  -0.00904   0.00383
 Alpha virt. eigenvalues --    0.00576   0.01328   0.01455   0.02151   0.02686
 Alpha virt. eigenvalues --    0.03408   0.03783   0.04199   0.04717   0.04847

 Mulliken charges:
               1
     1  C   -0.328031
     2  C    0.390357
     3  C    0.497632
     4  C   -0.089518
     5  H    0.118555
     6  S   -0.527920
     7  H    0.162080
     8  C    0.022889
     9  S   -0.600703
    10  C    0.312156
    11  C    0.284848
    12  C    0.030204
    13  H    0.150591
    14  S   -0.407508
    15  C   -0.152980
    16  C   -0.175108
    17  H    0.166018
    18  H    0.132949
    19  O   -0.245894
    20  H    0.259385
 Sum of Mulliken charges =  -0.00000

 Dipole moment (field-independent basis, Debye):
    X=              2.1504    Y=              1.1287    Z=              0.1964  Tot=              2.4365
 Quadrupole moment (field-independent basis, Debye-Ang):
   XX=            -79.5866   YY=            -93.3757   ZZ=           -108.8911
   XY=              9.7380   XZ=              0.5308   YZ=              0.5594

 Normal termination of Gaussian 16 at Sun Oct 17 01:35:31 2021.
