 Gaussian 16, Revision C.01,
 Gaussian 16:  ES64L-G16RevC.01  3-Jul-2019

 -------------------------------------
 # opt=modredundant b3lyp/6-311+g(d,p)
 -------------------------------------

 -----------
 pBTTT_0.pdb
 -----------
 Symbolic Z-matrix:
 Charge =  0 Multiplicity = 1

 SCF Done:  E(RB3LYP) =  -1654.53607229     A.U. after   17 cycles
 SCF Done:  E(RB3LYP) =  -1654.58852859     A.U. after   15 cycles
 SCF Done:  E(RB3LYP) =  -1654.62080788     A.U. after   16 cycles
 SCF Done:  E(RB3LYP) =  -1654.62968336     A.U. after   14 cycles
 SCF Done:  E(RB3LYP) =  -1654.63176477     A.U. after   13 cycles
 SCF Done:  E(RB3LYP) =  -1654.63230399     A.U. after   13 cycles
 SCF Done:  E(RB3LYP) =  -1654.63235751     A.U. after   13 cycles
 SCF Done:  E(RB3LYP) =  -1654.63254818     A.U. after   12 cycles
 SCF Done:  E(RB3LYP) =  -1654.63256114     A.U. after   11 cycles
 SCF Done:  E(RB3LYP) =  -1654.63256368     A.U. after   10 cycles
 SCF Done:  E(RB3LYP) =  -1654.63256569     A.U. after   10 cycles
 Optimization completed.
    -- Stationary point found.

                         Standard orientation:
 ---------------------------------------------------------------------
 Center     Atomic      Atomic             Coordinates (Angstroms)
 Number     Number       Type             X           Y           Z
 ---------------------------------------------------------------------
      1          6           0       -4.027888    0.381777   -0.005223
      2          6           0       -2.685768    0.861058    0.003413
      3          6           0       -1.728011   -0.132540    0.005631
      4          6           0       -4.093447   -0.979697   -0.009828
      5          1           0       -4.897211    1.028003   -0.004778
      6         16           0       -2.521441   -1.701753    0.000336
      7          1           0       -4.971650   -1.606096   -0.014624
      8          6           0       -0.286497   -0.026310    0.004792
      9         16           0        0.524445    1.553219    0.000125
     10          6           0        2.087696    0.784724   -0.002015
     11          6           0        1.962319   -0.598070    0.001144
     12          6           0        0.624398   -1.061641    0.005484
     13          1           0        0.336406   -2.104062    0.009340
     14         16           0        3.532072   -1.359670    0.000177
     15          6           0        4.316245    0.205611   -0.004469
     16          6           0        3.433844    1.247734   -0.005472
     17          1           0        5.394491    0.251690   -0.006869
     18          1           0        3.735727    2.285992   -0.008127
     19          8           0       -2.332870    2.180849    0.018063
     20          1           0       -3.113370    2.733079   -0.090398
 ---------------------------------------------------------------------

 The electronic state is 1-A.
 Alpha  occ. eigenvalues --  -88.88681 -88.87842 -88.87669 -19.17343 -10.25055
 Alpha  occ. eigenvalues --  -10.22248 -10.21710 -10.21598 -10.20558 -10.20429
 Alpha  occ. eigenvalues --  -10.20294 -10.19457 -10.18779 -10.18610  -7.97288
 Alpha  occ. eigenvalues --   -7.96417  -7.96207  -5.93602  -5.93223  -5.92839
 Alpha  occ. eigenvalues --   -5.92730  -5.92537  -5.92367  -5.92163  -5.91962
 Alpha  occ. eigenvalues --   -5.91724  -1.08383  -0.91126  -0.89442  -0.84532
 Alpha  occ. eigenvalues --   -0.77084  -0.76156  -0.74487  -0.70833  -0.70117
 Alpha  occ. eigenvalues --   -0.62001  -0.61332  -0.57247  -0.56148  -0.53052
 Alpha  occ. eigenvalues --   -0.52196  -0.49348  -0.48735  -0.45377  -0.43869
 Alpha  occ. eigenvalues --   -0.43769  -0.41079  -0.40980  -0.39438  -0.38904
 Alpha  occ. eigenvalues --   -0.38283  -0.36727  -0.36566  -0.35430  -0.34186
 Alpha  occ. eigenvalues --   -0.33218  -0.28856  -0.26873  -0.24997  -0.23139
 Alpha  occ. eigenvalues --   -0.19790
 Alpha virt. eigenvalues --   -0.05925  -0.02001  -0.01417  -0.00079   0.00115
 Alpha virt. eigenvalues --    0.00313   0.01688   0.01709   0.02151   0.02819
 Alpha virt. eigenvalues --    0.03114   0.03558   0.04243   0.04669   0.04953

 Mulliken charges:
               1
     1  C   -0.409360
     2  C    0.515145
     3  C    0.563078
     4  C   -0.156306
     5  H    0.119180
     6  S   -0.572645
     7  H    0.163792
     8  C   -0.046665
     9  S   -0.402936
    10  C   -0.012542
    11  C    0.463366
    12  C    0.024276
    13  H    0.132966
    14  S   -0.435675
    15  C   -0.174813
    16  C   -0.101898
    17  H    0.165292
    18  H    0.131682
    19  O   -0.229976
    20  H    0.264037
 Sum of Mulliken charges =  -0.00000

 Dipole moment (field-independent basis, Debye):
    X=             -2.4918    Y=              0.9727    Z=             -0.1763  Tot=              2.6807
 Quadrupole moment (field-independent basis, Debye-Ang):
   XX=            -78.2676   YY=            -94.4044   ZZ=           -109.0854
   XY=             -1.8303   XZ=              0.5848   YZ=             -0.5888

 Normal termination of Gaussian 16 at Sun Oct 17 02:02:14 2021.
