 Gaussian 16, Revision C.01,
 Gaussian 16:  ES64L-G16RevC.01  3-Jul-2019

 -------------------------------------
 # opt=modredundant b3lyp/6-311+g(d,p)
 -------------------------------------

 -------------
 pBTTT_160.pdb
 -------------
 Symbolic Z-matrix:
 Charge =  0 Multiplicity = 1

 SCF Done:  E(RB3LYP) =  -1654.53454674     A.U. after   17 cycles
 SCF Done:  E(RB3LYP) =  -1654.58726180     A.U. after   14 cycles
 SCF Done:  E(RB3LYP) =  -1654.62048257     A.U. after   15 cycles
 SCF Done:  E(RB3LYP) =  -1654.62962044     A.U. after   15 cycles
 SCF Done:  E(RB3LYP) =  -1654.63173793     A.U. after   14 cycles
 SCF Done:  E(RB3LYP) =  -1654.63230533     A.U. after   13 cycles
 SCF Done:  E(RB3LYP) =  -1654.63241654     A.U. after   13 cycles
 SCF Done:  E(RB3LYP) =  -1654.63256333     A.U. after   12 cycles
 SCF Done:  E(RB3LYP) =  -1654.63256941     A.U. after   12 cycles
 SCF Done:  E(RB3LYP) =  -1654.63257575     A.U. after   11 cycles
 SCF Done:  E(RB3LYP) =  -1654.63257729     A.U. after   10 cycles
 SCF Done:  E(RB3LYP) =  -1654.63257737     A.U. after    9 cycles
 Optimization completed.
    -- Stationary point found.

                         Standard orientation:
 ---------------------------------------------------------------------
 Center     Atomic      Atomic             Coordinates (Angstroms)
 Number     Number       Type             X           Y           Z
 ---------------------------------------------------------------------
      1          6           0       -3.929787    0.878082    0.090804
      2          6           0       -2.532972    1.151836    0.140269
      3          6           0       -1.734290    0.038407   -0.032133
      4          6           0       -4.195887   -0.443150   -0.121728
      5          1           0       -4.695537    1.635225    0.209207
      6         16           0       -2.748535   -1.373314   -0.283786
      7          1           0       -5.157132   -0.925881   -0.202190
      8          6           0       -0.290241   -0.037999   -0.022234
      9         16           0        0.525477   -1.588088    0.263870
     10          6           0        2.088999   -0.831284    0.126391
     11          6           0        1.953183    0.531697   -0.101103
     12          6           0        0.612951    0.988128   -0.188338
     13          1           0        0.309555    2.008334   -0.366184
     14         16           0        3.519250    1.289166   -0.229865
     15          6           0        4.312255   -0.249196    0.025564
     16          6           0        3.436088   -1.282693    0.199069
     17          1           0        5.390719   -0.289210    0.031414
     18          1           0        3.743195   -2.305227    0.369285
     19          8           0       -1.994923    2.394282    0.335910
     20          1           0       -2.692279    3.015296    0.568300
 ---------------------------------------------------------------------

 The electronic state is 1-A.
 Alpha  occ. eigenvalues --  -88.88668 -88.87972 -88.87886 -19.17293 -10.24980
 Alpha  occ. eigenvalues --  -10.22154 -10.21617 -10.21468 -10.20684 -10.20626
 Alpha  occ. eigenvalues --  -10.20570 -10.19379 -10.18947 -10.18445  -7.97273
 Alpha  occ. eigenvalues --   -7.96546  -7.96473  -5.93581  -5.93204  -5.92857
 Alpha  occ. eigenvalues --   -5.92833  -5.92798  -5.92494  -5.92438  -5.92095
 Alpha  occ. eigenvalues --   -5.91986  -1.08252  -0.91252  -0.89427  -0.84637
 Alpha  occ. eigenvalues --   -0.77101  -0.76203  -0.74431  -0.70953  -0.70090
 Alpha  occ. eigenvalues --   -0.61998  -0.61185  -0.57029  -0.56165  -0.53796
 Alpha  occ. eigenvalues --   -0.51855  -0.49383  -0.48465  -0.45421  -0.43770
 Alpha  occ. eigenvalues --   -0.43625  -0.41201  -0.40827  -0.39867  -0.39104
 Alpha  occ. eigenvalues --   -0.37817  -0.36762  -0.36434  -0.35679  -0.34123
 Alpha  occ. eigenvalues --   -0.33655  -0.28869  -0.26855  -0.24909  -0.23336
 Alpha  occ. eigenvalues --   -0.19973
 Alpha virt. eigenvalues --   -0.05833  -0.02382  -0.01269  -0.00743   0.00370
 Alpha virt. eigenvalues --    0.00554   0.01262   0.01492   0.02151   0.02684
 Alpha virt. eigenvalues --    0.03402   0.03756   0.04107   0.04694   0.04826

 Mulliken charges:
               1
     1  C   -0.246539
     2  C    0.099349
     3  C    0.505129
     4  C   -0.111800
     5  H    0.119287
     6  S   -0.463388
     7  H    0.162527
     8  C    0.209048
     9  S   -0.570130
    10  C    0.375377
    11  C    0.246632
    12  C    0.010453
    13  H    0.147381
    14  S   -0.406703
    15  C   -0.143848
    16  C   -0.240868
    17  H    0.165965
    18  H    0.133294
    19  O   -0.249553
    20  H    0.258387
 Sum of Mulliken charges =  -0.00000

 Dipole moment (field-independent basis, Debye):
    X=             -2.1083    Y=              1.0852    Z=              0.3518  Tot=              2.3972
 Quadrupole moment (field-independent basis, Debye-Ang):
   XX=            -79.7040   YY=            -93.8917   ZZ=           -108.3847
   XY=             -9.5002   XZ=             -0.8874   YZ=              0.8413

 Normal termination of Gaussian 16 at Sun Oct 17 02:29:00 2021.
