 Gaussian 16, Revision C.01,
 Gaussian 16:  ES64L-G16RevC.01  3-Jul-2019

 -------------------------------------
 # opt=modredundant b3lyp/6-311+g(d,p)
 -------------------------------------

 -------------
 pBTTT_-80.pdb
 -------------
 Symbolic Z-matrix:
 Charge =  0 Multiplicity = 1

 SCF Done:  E(RB3LYP) =  -1654.53029146     A.U. after   17 cycles
 SCF Done:  E(RB3LYP) =  -1654.58350812     A.U. after   14 cycles
 SCF Done:  E(RB3LYP) =  -1654.61745547     A.U. after   15 cycles
 SCF Done:  E(RB3LYP) =  -1654.62651423     A.U. after   15 cycles
 SCF Done:  E(RB3LYP) =  -1654.62858320     A.U. after   14 cycles
 SCF Done:  E(RB3LYP) =  -1654.62904229     A.U. after   13 cycles
 SCF Done:  E(RB3LYP) =  -1654.62923206     A.U. after   14 cycles
 SCF Done:  E(RB3LYP) =  -1654.62937350     A.U. after   14 cycles
 SCF Done:  E(RB3LYP) =  -1654.62938554     A.U. after   12 cycles
 SCF Done:  E(RB3LYP) =  -1654.62939692     A.U. after   12 cycles
 SCF Done:  E(RB3LYP) =  -1654.62940111     A.U. after   11 cycles
 SCF Done:  E(RB3LYP) =  -1654.62940127     A.U. after   10 cycles
 SCF Done:  E(RB3LYP) =  -1654.62940130     A.U. after   10 cycles
 Optimization completed.
    -- Stationary point found.

                         Standard orientation:
 ---------------------------------------------------------------------
 Center     Atomic      Atomic             Coordinates (Angstroms)
 Number     Number       Type             X           Y           Z
 ---------------------------------------------------------------------
      1          6           0        3.993928    0.347685   -0.517163
      2          6           0        2.625817    0.716084   -0.694541
      3          6           0        1.739765   -0.093990   -0.024287
      4          6           0        4.137377   -0.743862    0.289777
      5          1           0        4.824178    0.871213   -0.975731
      6         16           0        2.617490   -1.339566    0.848470
      7          1           0        5.053072   -1.233153    0.584290
      8          6           0        0.282287   -0.022740    0.003166
      9         16           0       -0.531613    1.148149    1.055108
     10          6           0       -2.093050    0.574182    0.545379
     11          6           0       -1.960156   -0.463741   -0.368789
     12          6           0       -0.615655   -0.806237   -0.674046
     13          1           0       -0.309010   -1.581238   -1.362885
     14         16           0       -3.525215   -1.036021   -0.883869
     15          6           0       -4.317252    0.136633    0.143628
     16          6           0       -3.443444    0.921797    0.838439
     17          1           0       -5.395865    0.168894    0.167077
     18          1           0       -3.751901    1.701039    1.521406
     19          8           0        2.194951    1.761555   -1.458598
     20          1           0        2.951623    2.224930   -1.830084
 ---------------------------------------------------------------------

 The electronic state is 1-A.
 Alpha  occ. eigenvalues --  -88.88434 -88.88085 -88.87725 -19.16715 -10.24854
 Alpha  occ. eigenvalues --  -10.21836 -10.21369 -10.20961 -10.20742 -10.20733
 Alpha  occ. eigenvalues --  -10.20670 -10.19154 -10.18996 -10.18965  -7.97024
 Alpha  occ. eigenvalues --   -7.96660  -7.96295  -5.93323  -5.92972  -5.92948
 Alpha  occ. eigenvalues --   -5.92611  -5.92609  -5.92605  -5.92247  -5.92209
 Alpha  occ. eigenvalues --   -5.91831  -1.07809  -0.91216  -0.89181  -0.84620
 Alpha  occ. eigenvalues --   -0.76940  -0.76025  -0.74131  -0.70999  -0.70152
 Alpha  occ. eigenvalues --   -0.61709  -0.60805  -0.57156  -0.55817  -0.53741
 Alpha  occ. eigenvalues --   -0.51918  -0.49354  -0.48367  -0.45242  -0.43663
 Alpha  occ. eigenvalues --   -0.43288  -0.41392  -0.40922  -0.39468  -0.38993
 Alpha  occ. eigenvalues --   -0.37732  -0.36877  -0.36058  -0.35665  -0.33852
 Alpha  occ. eigenvalues --   -0.33390  -0.28635  -0.25842  -0.23542  -0.23262
 Alpha  occ. eigenvalues --   -0.21946
 Alpha virt. eigenvalues --   -0.04439  -0.03246  -0.01655  -0.00235   0.00116
 Alpha virt. eigenvalues --    0.00275   0.00739   0.01644   0.02103   0.02829
 Alpha virt. eigenvalues --    0.03092   0.03635   0.03832   0.04318   0.04702

 Mulliken charges:
               1
     1  C   -0.041996
     2  C   -0.499232
     3  C    0.328294
     4  C   -0.221044
     5  H    0.119900
     6  S   -0.120831
     7  H    0.163978
     8  C    0.416601
     9  S   -0.461524
    10  C    0.205017
    11  C   -0.492739
    12  C    0.448116
    13  H    0.134574
    14  S   -0.383641
    15  C   -0.217171
    16  C    0.308422
    17  H    0.166415
    18  H    0.134770
    19  O   -0.244453
    20  H    0.256543
 Sum of Mulliken charges =  -0.00000

 Dipole moment (field-independent basis, Debye):
    X=              1.9867    Y=              0.6244    Z=             -0.6087  Tot=              2.1696
 Quadrupole moment (field-independent basis, Debye-Ang):
   XX=            -78.6655   YY=           -100.1109   ZZ=           -102.8533
   XY=              1.4243   XZ=             -6.3123   YZ=             -0.0608

 Normal termination of Gaussian 16 at Sun Oct 17 01:55:13 2021.
