 Gaussian 16, Revision C.01,
 Gaussian 16:  ES64L-G16RevC.01  3-Jul-2019

 -------------------------------------
 # opt=modredundant b3lyp/6-311+g(d,p)
 -------------------------------------

 -------------
 pBTTT_-60.pdb
 -------------
 Symbolic Z-matrix:
 Charge =  0 Multiplicity = 1

 SCF Done:  E(RB3LYP) =  -1654.53220480     A.U. after   17 cycles
 SCF Done:  E(RB3LYP) =  -1654.58521107     A.U. after   14 cycles
 SCF Done:  E(RB3LYP) =  -1654.61858121     A.U. after   15 cycles
 SCF Done:  E(RB3LYP) =  -1654.62768979     A.U. after   14 cycles
 SCF Done:  E(RB3LYP) =  -1654.62975670     A.U. after   14 cycles
 SCF Done:  E(RB3LYP) =  -1654.63022637     A.U. after   13 cycles
 SCF Done:  E(RB3LYP) =  -1654.63042360     A.U. after   14 cycles
 SCF Done:  E(RB3LYP) =  -1654.63053387     A.U. after   13 cycles
 SCF Done:  E(RB3LYP) =  -1654.63054143     A.U. after   12 cycles
 SCF Done:  E(RB3LYP) =  -1654.63055115     A.U. after   12 cycles
 SCF Done:  E(RB3LYP) =  -1654.63055405     A.U. after   10 cycles
 SCF Done:  E(RB3LYP) =  -1654.63055419     A.U. after    9 cycles
 Optimization completed.
    -- Stationary point found.

                         Standard orientation:
 ---------------------------------------------------------------------
 Center     Atomic      Atomic             Coordinates (Angstroms)
 Number     Number       Type             X           Y           Z
 ---------------------------------------------------------------------
      1          6           0       -4.018163    0.328091    0.372728
      2          6           0       -2.672652    0.782137    0.509418
      3          6           0       -1.735643   -0.089976    0.002470
      4          6           0       -4.097218   -0.893298   -0.231985
      5          1           0       -4.880288    0.885834    0.718264
      6         16           0       -2.539856   -1.503223   -0.658899
      7          1           0       -4.983835   -1.466554   -0.454778
      8          6           0       -0.284228    0.004123    0.019863
      9         16           0        0.536508    1.369896   -0.753766
     10          6           0        2.094667    0.684013   -0.391427
     11          6           0        1.956040   -0.532964    0.264294
     12          6           0        0.610728   -0.922424    0.496424
     13          1           0        0.302095   -1.827661    1.000963
     14         16           0        3.518142   -1.212097    0.639689
     15          6           0        4.316670    0.160780   -0.093404
     16          6           0        3.446245    1.086077   -0.592967
     17          1           0        5.395401    0.192195   -0.109875
     18          1           0        3.758518    1.998940   -1.080864
     19          8           0       -2.305182    1.960772    1.092781
     20          1           0       -3.085827    2.418480    1.419191
 ---------------------------------------------------------------------

 The electronic state is 1-A.
 Alpha  occ. eigenvalues --  -88.88541 -88.88042 -88.87711 -19.16800 -10.24877
 Alpha  occ. eigenvalues --  -10.21976 -10.21392 -10.21157 -10.20696 -10.20668
 Alpha  occ. eigenvalues --  -10.20638 -10.19229 -10.18956 -10.18885  -7.97132
 Alpha  occ. eigenvalues --   -7.96616  -7.96277  -5.93433  -5.93058  -5.92929
 Alpha  occ. eigenvalues --   -5.92707  -5.92598  -5.92565  -5.92232  -5.92164
 Alpha  occ. eigenvalues --   -5.91806  -1.07884  -0.91219  -0.89267  -0.84622
 Alpha  occ. eigenvalues --   -0.76988  -0.76074  -0.74230  -0.70969  -0.70151
 Alpha  occ. eigenvalues --   -0.61793  -0.60913  -0.57177  -0.55919  -0.53536
 Alpha  occ. eigenvalues --   -0.52001  -0.49323  -0.48465  -0.45252  -0.43714
 Alpha  occ. eigenvalues --   -0.43420  -0.41370  -0.40905  -0.39466  -0.38944
 Alpha  occ. eigenvalues --   -0.37771  -0.36922  -0.36099  -0.35734  -0.33782
 Alpha  occ. eigenvalues --   -0.33563  -0.28653  -0.26187  -0.24313  -0.23215
 Alpha  occ. eigenvalues --   -0.21014
 Alpha virt. eigenvalues --   -0.05071  -0.02491  -0.01695  -0.00230   0.00029
 Alpha virt. eigenvalues --    0.00233   0.00873   0.01662   0.02183   0.02804
 Alpha virt. eigenvalues --    0.03134   0.03718   0.03951   0.04308   0.04676

 Mulliken charges:
               1
     1  C   -0.059108
     2  C   -0.465822
     3  C    0.361558
     4  C   -0.226092
     5  H    0.119526
     6  S   -0.188496
     7  H    0.164476
     8  C    0.423388
     9  S   -0.437857
    10  C    0.200123
    11  C   -0.570552
    12  C    0.565701
    13  H    0.137961
    14  S   -0.391685
    15  C   -0.216179
    16  C    0.273522
    17  H    0.166017
    18  H    0.134468
    19  O   -0.242969
    20  H    0.252019
 Sum of Mulliken charges =  -0.00000

 Dipole moment (field-independent basis, Debye):
    X=             -2.1077    Y=              0.6263    Z=              0.5192  Tot=              2.2592
 Quadrupole moment (field-independent basis, Debye-Ang):
   XX=            -78.3043   YY=            -97.9390   ZZ=           -105.4106
   XY=             -1.1029   XZ=             -5.0773   YZ=              0.1112

 Normal termination of Gaussian 16 at Sun Oct 17 01:57:36 2021.
