 Gaussian 16, Revision C.01,
 Gaussian 16:  ES64L-G16RevC.01  3-Jul-2019

 -------------------------------------
 # opt=modredundant b3lyp/6-311+g(d,p)
 -------------------------------------

 ------------
 pBTTT_15.pdb
 ------------
 Symbolic Z-matrix:
 Charge =  0 Multiplicity = 1

 SCF Done:  E(RB3LYP) =  -1654.53561602     A.U. after   17 cycles
 SCF Done:  E(RB3LYP) =  -1654.58800695     A.U. after   15 cycles
 SCF Done:  E(RB3LYP) =  -1654.62032777     A.U. after   16 cycles
 SCF Done:  E(RB3LYP) =  -1654.62942309     A.U. after   14 cycles
 SCF Done:  E(RB3LYP) =  -1654.63158980     A.U. after   14 cycles
 SCF Done:  E(RB3LYP) =  -1654.63219355     A.U. after   13 cycles
 SCF Done:  E(RB3LYP) =  -1654.63231251     A.U. after   13 cycles
 SCF Done:  E(RB3LYP) =  -1654.63247700     A.U. after   12 cycles
 SCF Done:  E(RB3LYP) =  -1654.63248725     A.U. after   12 cycles
 SCF Done:  E(RB3LYP) =  -1654.63249459     A.U. after   11 cycles
 SCF Done:  E(RB3LYP) =  -1654.63249748     A.U. after   11 cycles
 SCF Done:  E(RB3LYP) =  -1654.63249778     A.U. after   10 cycles
 SCF Done:  E(RB3LYP) =  -1654.63249782     A.U. after    9 cycles
 Optimization completed.
    -- Stationary point found.

                         Standard orientation:
 ---------------------------------------------------------------------
 Center     Atomic      Atomic             Coordinates (Angstroms)
 Number     Number       Type             X           Y           Z
 ---------------------------------------------------------------------
      1          6           0       -4.027703    0.374314   -0.092789
      2          6           0       -2.686897    0.855713   -0.127850
      3          6           0       -1.728261   -0.129098   -0.004904
      4          6           0       -4.090588   -0.979043    0.061022
      5          1           0       -4.898492    1.012411   -0.182055
      6         16           0       -2.517886   -1.689426    0.172969
      7          1           0       -4.968076   -1.603862    0.118543
      8          6           0       -0.286411   -0.022559   -0.019340
      9         16           0        0.524637    1.543597    0.178659
     10          6           0        2.087580    0.778339    0.105349
     11          6           0        1.961513   -0.594304   -0.062433
     12          6           0        0.623116   -1.051741   -0.137438
     13          1           0        0.332986   -2.083926   -0.278702
     14         16           0        3.530822   -1.350403   -0.158769
     15          6           0        4.315720    0.202960    0.029287
     16          6           0        3.434033    1.237980    0.155311
     17          1           0        5.393990    0.247852    0.037718
     18          1           0        3.736421    2.268552    0.280022
     19          8           0       -2.335957    2.167771   -0.277001
     20          1           0       -3.122943    2.721149   -0.282550
 ---------------------------------------------------------------------

 The electronic state is 1-A.
 Alpha  occ. eigenvalues --  -88.88670 -88.87870 -88.87671 -19.17280 -10.25032
 Alpha  occ. eigenvalues --  -10.22226 -10.21649 -10.21566 -10.20577 -10.20459
 Alpha  occ. eigenvalues --  -10.20346 -10.19434 -10.18803 -10.18637  -7.97275
 Alpha  occ. eigenvalues --   -7.96444  -7.96214  -5.93588  -5.93209  -5.92829
 Alpha  occ. eigenvalues --   -5.92758  -5.92543  -5.92394  -5.92170  -5.91990
 Alpha  occ. eigenvalues --   -5.91732  -1.08323  -0.91145  -0.89430  -0.84550
 Alpha  occ. eigenvalues --   -0.77079  -0.76155  -0.74466  -0.70851  -0.70122
 Alpha  occ. eigenvalues --   -0.61983  -0.61292  -0.57238  -0.56127  -0.53099
 Alpha  occ. eigenvalues --   -0.52176  -0.49322  -0.48722  -0.45360  -0.43833
 Alpha  occ. eigenvalues --   -0.43755  -0.41084  -0.40982  -0.39455  -0.38898
 Alpha  occ. eigenvalues --   -0.38222  -0.36822  -0.36496  -0.35477  -0.34127
 Alpha  occ. eigenvalues --   -0.33296  -0.28830  -0.26836  -0.24951  -0.23140
 Alpha  occ. eigenvalues --   -0.19872
 Alpha virt. eigenvalues --   -0.05874  -0.01962  -0.01483  -0.00084   0.00102
 Alpha virt. eigenvalues --    0.00304   0.01520   0.01717   0.02235   0.02826
 Alpha virt. eigenvalues --    0.03119   0.03599   0.04204   0.04625   0.04795

 Mulliken charges:
               1
     1  C   -0.313754
     2  C    0.285474
     3  C    0.570134
     4  C   -0.124352
     5  H    0.118980
     6  S   -0.529744
     7  H    0.163478
     8  C   -0.048025
     9  S   -0.418288
    10  C    0.177339
    11  C    0.377061
    12  C    0.042067
    13  H    0.134074
    14  S   -0.429922
    15  C   -0.145036
    16  C   -0.183802
    17  H    0.165260
    18  H    0.132283
    19  O   -0.235161
    20  H    0.261935
 Sum of Mulliken charges =  -0.00000

 Dipole moment (field-independent basis, Debye):
    X=             -2.4465    Y=              0.9530    Z=             -0.0281  Tot=              2.6258
 Quadrupole moment (field-independent basis, Debye-Ang):
   XX=            -78.2143   YY=            -94.5766   ZZ=           -108.9447
   XY=             -1.8152   XZ=              0.9025   YZ=              0.3390

 Normal termination of Gaussian 16 at Sun Oct 17 02:12:09 2021.
