 Gaussian 16, Revision C.01,
 Gaussian 16:  ES64L-G16RevC.01  3-Jul-2019

 -------------------------------------
 # opt=modredundant b3lyp/6-311+g(d,p)
 -------------------------------------

 ------------
 pBTTT_35.pdb
 ------------
 Symbolic Z-matrix:
 Charge =  0 Multiplicity = 1

 SCF Done:  E(RB3LYP) =  -1654.53409313     A.U. after   17 cycles
 SCF Done:  E(RB3LYP) =  -1654.58661987     A.U. after   15 cycles
 SCF Done:  E(RB3LYP) =  -1654.61948368     A.U. after   16 cycles
 SCF Done:  E(RB3LYP) =  -1654.62874849     A.U. after   15 cycles
 SCF Done:  E(RB3LYP) =  -1654.63104309     A.U. after   15 cycles
 SCF Done:  E(RB3LYP) =  -1654.63160866     A.U. after   13 cycles
 SCF Done:  E(RB3LYP) =  -1654.63180529     A.U. after   13 cycles
 SCF Done:  E(RB3LYP) =  -1654.63194399     A.U. after   12 cycles
 SCF Done:  E(RB3LYP) =  -1654.63195264     A.U. after   11 cycles
 SCF Done:  E(RB3LYP) =  -1654.63195626     A.U. after   11 cycles
 SCF Done:  E(RB3LYP) =  -1654.63195649     A.U. after   10 cycles
 SCF Done:  E(RB3LYP) =  -1654.63195674     A.U. after    9 cycles
 Optimization completed.
    -- Stationary point found.

                         Standard orientation:
 ---------------------------------------------------------------------
 Center     Atomic      Atomic             Coordinates (Angstroms)
 Number     Number       Type             X           Y           Z
 ---------------------------------------------------------------------
      1          6           0       -4.026738    0.349191   -0.217396
      2          6           0       -2.688749    0.834525   -0.292823
      3          6           0       -1.730312   -0.112668   -0.000055
      4          6           0       -4.084621   -0.968384    0.132817
      5          1           0       -4.899767    0.957261   -0.421571
      6         16           0       -2.512109   -1.635154    0.393705
      7          1           0       -4.960595   -1.585017    0.260651
      8          6           0       -0.285899   -0.007899   -0.026542
      9         16           0        0.529133    1.499089    0.427084
     10          6           0        2.090027    0.751802    0.233355
     11          6           0        1.958329   -0.577075   -0.148668
     12          6           0        0.617077   -1.010814   -0.300137
     13          1           0        0.318102   -2.003231   -0.608447
     14         16           0        3.524533   -1.312478   -0.370069
     15          6           0        4.315422    0.189286    0.056118
     16          6           0        3.438492    1.194668    0.346652
     17          1           0        5.393896    0.228488    0.068697
     18          1           0        3.745044    2.191891    0.630477
     19          8           0       -2.343113    2.112805   -0.629117
     20          1           0       -3.134870    2.629063   -0.808317
 ---------------------------------------------------------------------

 The electronic state is 1-A.
 Alpha  occ. eigenvalues --  -88.88630 -88.87950 -88.87692 -19.17056 -10.24955
 Alpha  occ. eigenvalues --  -10.22142 -10.21477 -10.21455 -10.20632 -10.20552
 Alpha  occ. eigenvalues --  -10.20501 -10.19350 -10.18875 -10.18733  -7.97229
 Alpha  occ. eigenvalues --   -7.96525  -7.96248  -5.93536  -5.93160  -5.92838
 Alpha  occ. eigenvalues --   -5.92792  -5.92574  -5.92474  -5.92204  -5.92071
 Alpha  occ. eigenvalues --   -5.91769  -1.08115  -0.91192  -0.89376  -0.84595
 Alpha  occ. eigenvalues --   -0.77053  -0.76134  -0.74377  -0.70907  -0.70138
 Alpha  occ. eigenvalues --   -0.61915  -0.61133  -0.57212  -0.56049  -0.53270
 Alpha  occ. eigenvalues --   -0.52106  -0.49290  -0.48641  -0.45310  -0.43768
 Alpha  occ. eigenvalues --   -0.43637  -0.41243  -0.40909  -0.39461  -0.38914
 Alpha  occ. eigenvalues --   -0.38014  -0.36900  -0.36301  -0.35636  -0.33920
 Alpha  occ. eigenvalues --   -0.33537  -0.28744  -0.26650  -0.24780  -0.23160
 Alpha  occ. eigenvalues --   -0.20218
 Alpha virt. eigenvalues --   -0.05640  -0.01937  -0.01680  -0.00122   0.00040
 Alpha virt. eigenvalues --    0.00267   0.01182   0.01704   0.02286   0.02807
 Alpha virt. eigenvalues --    0.03133   0.03711   0.04158   0.04377   0.04710

 Mulliken charges:
               1
     1  C   -0.199185
     2  C   -0.191734
     3  C    0.619693
     4  C   -0.107741
     5  H    0.119093
     6  S   -0.410431
     7  H    0.163929
     8  C    0.368961
     9  S   -0.391484
    10  C    0.371913
    11  C    0.146878
    12  C   -0.150623
    13  H    0.138449
    14  S   -0.416368
    15  C   -0.135862
    16  C   -0.242333
    17  H    0.165556
    18  H    0.133810
    19  O   -0.238512
    20  H    0.255992
 Sum of Mulliken charges =  -0.00000

 Dipole moment (field-independent basis, Debye):
    X=             -2.2944    Y=              0.8221    Z=             -0.3073  Tot=              2.4565
 Quadrupole moment (field-independent basis, Debye-Ang):
   XX=            -78.1843   YY=            -95.6915   ZZ=           -107.8427
   XY=             -1.4879   XZ=              2.9707   YZ=             -0.0484

 Normal termination of Gaussian 16 at Sun Oct 17 02:12:52 2021.
