 Gaussian 16, Revision C.01,
 Gaussian 16:  ES64L-G16RevC.01  3-Jul-2019

 -------------------------------------
 # opt=modredundant b3lyp/6-311+g(d,p)
 -------------------------------------

 -------------
 pBTTT_-75.pdb
 -------------
 Symbolic Z-matrix:
 Charge =  0 Multiplicity = 1

 SCF Done:  E(RB3LYP) =  -1654.53054534     A.U. after   17 cycles
 SCF Done:  E(RB3LYP) =  -1654.58376358     A.U. after   14 cycles
 SCF Done:  E(RB3LYP) =  -1654.61764910     A.U. after   15 cycles
 SCF Done:  E(RB3LYP) =  -1654.62672151     A.U. after   14 cycles
 SCF Done:  E(RB3LYP) =  -1654.62879924     A.U. after   14 cycles
 SCF Done:  E(RB3LYP) =  -1654.62925910     A.U. after   13 cycles
 SCF Done:  E(RB3LYP) =  -1654.62945565     A.U. after   14 cycles
 SCF Done:  E(RB3LYP) =  -1654.62959237     A.U. after   13 cycles
 SCF Done:  E(RB3LYP) =  -1654.62960137     A.U. after   12 cycles
 SCF Done:  E(RB3LYP) =  -1654.62961185     A.U. after   12 cycles
 SCF Done:  E(RB3LYP) =  -1654.62961594     A.U. after   10 cycles
 SCF Done:  E(RB3LYP) =  -1654.62961609     A.U. after    9 cycles
 SCF Done:  E(RB3LYP) =  -1654.62961611     A.U. after   10 cycles
 Optimization completed.
    -- Stationary point found.

                         Standard orientation:
 ---------------------------------------------------------------------
 Center     Atomic      Atomic             Coordinates (Angstroms)
 Number     Number       Type             X           Y           Z
 ---------------------------------------------------------------------
      1          6           0        4.002406    0.336379   -0.479892
      2          6           0        2.641281    0.731604   -0.651089
      3          6           0        1.738956   -0.090208   -0.017114
      4          6           0        4.124887   -0.788902    0.283096
      5          1           0        4.843096    0.865207   -0.912651
      6         16           0        2.592746   -1.382009    0.810614
      7          1           0        5.031360   -1.303028    0.563398
      8          6           0        0.282617   -0.010946   -0.004668
      9         16           0       -0.534278    1.221911    0.970951
     10          6           0       -2.094262    0.610395    0.501648
     11          6           0       -1.958746   -0.486627   -0.340241
     12          6           0       -0.613551   -0.843197   -0.624853
     13          1           0       -0.305361   -1.661105   -1.261453
     14         16           0       -3.522382   -1.095430   -0.816298
     15          6           0       -4.317401    0.142823    0.128794
     16          6           0       -3.445411    0.975168    0.768883
     17          1           0       -5.396085    0.173893    0.150197
     18          1           0       -3.755767    1.798425    1.397172
     19          8           0        2.230658    1.811360   -1.377970
     20          1           0        2.995453    2.265240   -1.744557
 ---------------------------------------------------------------------

 The electronic state is 1-A.
 Alpha  occ. eigenvalues --  -88.88459 -88.88077 -88.87719 -19.16727 -10.24857
 Alpha  occ. eigenvalues --  -10.21865 -10.21372 -10.20997 -10.20731 -10.20720
 Alpha  occ. eigenvalues --  -10.20666 -10.19169 -10.18988 -10.18953  -7.97049
 Alpha  occ. eigenvalues --   -7.96652  -7.96288  -5.93348  -5.92973  -5.92964
 Alpha  occ. eigenvalues --   -5.92629  -5.92605  -5.92600  -5.92241  -5.92201
 Alpha  occ. eigenvalues --   -5.91823  -1.07820  -0.91217  -0.89199  -0.84621
 Alpha  occ. eigenvalues --   -0.76948  -0.76034  -0.74150  -0.70993  -0.70153
 Alpha  occ. eigenvalues --   -0.61725  -0.60825  -0.57160  -0.55841  -0.53693
 Alpha  occ. eigenvalues --   -0.51937  -0.49349  -0.48384  -0.45240  -0.43677
 Alpha  occ. eigenvalues --   -0.43313  -0.41393  -0.40918  -0.39468  -0.38978
 Alpha  occ. eigenvalues --   -0.37730  -0.36893  -0.36067  -0.35684  -0.33836
 Alpha  occ. eigenvalues --   -0.33419  -0.28635  -0.25905  -0.23751  -0.23257
 Alpha  occ. eigenvalues --   -0.21705
 Alpha virt. eigenvalues --   -0.04599  -0.03055  -0.01663  -0.00242   0.00092
 Alpha virt. eigenvalues --    0.00259   0.00762   0.01645   0.02118   0.02827
 Alpha virt. eigenvalues --    0.03109   0.03650   0.03849   0.04331   0.04687

 Mulliken charges:
               1
     1  C   -0.032152
     2  C   -0.507151
     3  C    0.324155
     4  C   -0.234961
     5  H    0.119763
     6  S   -0.136436
     7  H    0.164139
     8  C    0.456804
     9  S   -0.449267
    10  C    0.204606
    11  C   -0.503202
    12  C    0.456110
    13  H    0.135794
    14  S   -0.385043
    15  C   -0.217420
    16  C    0.295304
    17  H    0.166344
    18  H    0.134729
    19  O   -0.246896
    20  H    0.254781
 Sum of Mulliken charges =  -0.00000

 Dipole moment (field-independent basis, Debye):
    X=              2.0173    Y=              0.6007    Z=             -0.5902  Tot=              2.1860
 Quadrupole moment (field-independent basis, Debye-Ang):
   XX=            -78.5217   YY=            -99.5459   ZZ=           -103.5368
   XY=              1.2498   XZ=             -6.0460   YZ=             -0.0534

 Normal termination of Gaussian 16 at Sun Oct 17 01:54:11 2021.
