 Gaussian 16, Revision C.01,
 Gaussian 16:  ES64L-G16RevC.01  3-Jul-2019

 -------------------------------------
 # opt=modredundant b3lyp/6-311+g(d,p)
 -------------------------------------

 --------------
 pBTTT_-115.pdb
 --------------
 Symbolic Z-matrix:
 Charge =  0 Multiplicity = 1

 SCF Done:  E(RB3LYP) =  -1654.53090956     A.U. after   16 cycles
 SCF Done:  E(RB3LYP) =  -1654.58391484     A.U. after   14 cycles
 SCF Done:  E(RB3LYP) =  -1654.61781828     A.U. after   15 cycles
 SCF Done:  E(RB3LYP) =  -1654.62700016     A.U. after   14 cycles
 SCF Done:  E(RB3LYP) =  -1654.62921313     A.U. after   14 cycles
 SCF Done:  E(RB3LYP) =  -1654.62978776     A.U. after   14 cycles
 SCF Done:  E(RB3LYP) =  -1654.62994036     A.U. after   14 cycles
 SCF Done:  E(RB3LYP) =  -1654.63010988     A.U. after   13 cycles
 SCF Done:  E(RB3LYP) =  -1654.63012811     A.U. after   12 cycles
 SCF Done:  E(RB3LYP) =  -1654.63013827     A.U. after   11 cycles
 SCF Done:  E(RB3LYP) =  -1654.63014117     A.U. after   11 cycles
 SCF Done:  E(RB3LYP) =  -1654.63014132     A.U. after   11 cycles
 Optimization completed.
    -- Stationary point found.

                         Standard orientation:
 ---------------------------------------------------------------------
 Center     Atomic      Atomic             Coordinates (Angstroms)
 Number     Number       Type             X           Y           Z
 ---------------------------------------------------------------------
      1          6           0        3.934796    0.777442    0.278896
      2          6           0        2.536420    1.019903    0.431428
      3          6           0        1.738399    0.042538   -0.118194
      4          6           0        4.191490   -0.392945   -0.374398
      5          1           0        4.705910    1.444491    0.645064
      6         16           0        2.741667   -1.210795   -0.831170
      7          1           0        5.152427   -0.817194   -0.621342
      8          6           0        0.286164   -0.048160   -0.094899
      9         16           0       -0.513320   -1.375249    0.769433
     10          6           0       -2.081880   -0.719996    0.394183
     11          6           0       -1.960166    0.460396   -0.328213
     12          6           0       -0.621065    0.842377   -0.607874
     13          1           0       -0.324499    1.723114   -1.159695
     14         16           0       -3.531833    1.116250   -0.704203
     15          6           0       -4.310715   -0.215884    0.118835
     16          6           0       -3.427372   -1.111603    0.648926
     17          1           0       -5.388773   -0.248861    0.159211
     18          1           0       -3.726509   -1.996868    1.192674
     19          8           0        2.002184    2.109457    1.057880
     20          1           0        2.703318    2.611947    1.483970
 ---------------------------------------------------------------------

 The electronic state is 1-A.
 Alpha  occ. eigenvalues --  -88.88472 -88.88059 -88.87819 -19.16780 -10.24893
 Alpha  occ. eigenvalues --  -10.21850 -10.21404 -10.21102 -10.20737 -10.20691
 Alpha  occ. eigenvalues --  -10.20670 -10.19203 -10.18990 -10.18824  -7.97067
 Alpha  occ. eigenvalues --   -7.96633  -7.96392  -5.93366  -5.92992  -5.92945
 Alpha  occ. eigenvalues --   -5.92709  -5.92645  -5.92581  -5.92348  -5.92183
 Alpha  occ. eigenvalues --   -5.91924  -1.07847  -0.91222  -0.89231  -0.84622
 Alpha  occ. eigenvalues --   -0.76984  -0.76066  -0.74193  -0.70990  -0.70114
 Alpha  occ. eigenvalues --   -0.61770  -0.60845  -0.57108  -0.55841  -0.53890
 Alpha  occ. eigenvalues --   -0.51828  -0.49304  -0.48427  -0.45330  -0.43625
 Alpha  occ. eigenvalues --   -0.43339  -0.41307  -0.40892  -0.39572  -0.39006
 Alpha  occ. eigenvalues --   -0.37790  -0.36774  -0.36013  -0.35744  -0.33896
 Alpha  occ. eigenvalues --   -0.33527  -0.28664  -0.26046  -0.24246  -0.23232
 Alpha  occ. eigenvalues --   -0.21238
 Alpha virt. eigenvalues --   -0.04861  -0.02932  -0.01615  -0.00110   0.00145
 Alpha virt. eigenvalues --    0.00399   0.00869   0.01675   0.02061   0.02791
 Alpha virt. eigenvalues --    0.03019   0.03697   0.03840   0.04519   0.04701

 Mulliken charges:
               1
     1  C   -0.155929
     2  C   -0.289820
     3  C    0.360839
     4  C   -0.176470
     5  H    0.120407
     6  S   -0.226592
     7  H    0.164078
     8  C    0.139864
     9  S   -0.547079
    10  C    0.088384
    11  C   -0.272557
    12  C    0.606836
    13  H    0.131903
    14  S   -0.391577
    15  C   -0.214372
    16  C    0.337984
    17  H    0.166194
    18  H    0.134084
    19  O   -0.228473
    20  H    0.252297
 Sum of Mulliken charges =  -0.00000

 Dipole moment (field-independent basis, Debye):
    X=              1.9389    Y=              0.8660    Z=              0.6809  Tot=              2.2300
 Quadrupole moment (field-independent basis, Debye-Ang):
   XX=            -79.7428   YY=            -97.9358   ZZ=           -104.3584
   XY=              8.0118   XZ=              1.3535   YZ=              0.5398

 Normal termination of Gaussian 16 at Sun Oct 17 01:48:38 2021.
