 Gaussian 16, Revision C.01,
 Gaussian 16:  ES64L-G16RevC.01  3-Jul-2019

 -------------------------------------
 # opt=modredundant b3lyp/6-311+g(d,p)
 -------------------------------------

 -------------
 pBTTT_-25.pdb
 -------------
 Symbolic Z-matrix:
 Charge =  0 Multiplicity = 1

 SCF Done:  E(RB3LYP) =  -1654.53566032     A.U. after   17 cycles
 SCF Done:  E(RB3LYP) =  -1654.58819548     A.U. after   15 cycles
 SCF Done:  E(RB3LYP) =  -1654.62065611     A.U. after   15 cycles
 SCF Done:  E(RB3LYP) =  -1654.62967168     A.U. after   17 cycles
 SCF Done:  E(RB3LYP) =  -1654.63163622     A.U. after   14 cycles
 SCF Done:  E(RB3LYP) =  -1654.63204484     A.U. after   13 cycles
 SCF Done:  E(RB3LYP) =  -1654.63211771     A.U. after   13 cycles
 SCF Done:  E(RB3LYP) =  -1654.63228173     A.U. after   12 cycles
 SCF Done:  E(RB3LYP) =  -1654.63229490     A.U. after   12 cycles
 SCF Done:  E(RB3LYP) =  -1654.63229805     A.U. after   11 cycles
 SCF Done:  E(RB3LYP) =  -1654.63230038     A.U. after   10 cycles
 Optimization completed.
    -- Stationary point found.

                         Standard orientation:
 ---------------------------------------------------------------------
 Center     Atomic      Atomic             Coordinates (Angstroms)
 Number     Number       Type             X           Y           Z
 ---------------------------------------------------------------------
      1          6           0       -4.027509    0.362464    0.156499
      2          6           0       -2.688457    0.847140    0.209715
      3          6           0       -1.729018   -0.122115    0.002198
      4          6           0       -4.087064   -0.976813   -0.095184
      5          1           0       -4.899895    0.987634    0.303531
      6         16           0       -2.513791   -1.667623   -0.284699
      7          1           0       -4.963243   -1.599417   -0.187105
      8          6           0       -0.286256   -0.015812    0.024604
      9         16           0        0.526349    1.526645   -0.301018
     10          6           0        2.088460    0.767602   -0.170550
     11          6           0        1.960053   -0.587592    0.104370
     12          6           0        0.620472   -1.034906    0.219771
     13          1           0        0.326382   -2.050577    0.446437
     14         16           0        3.528106   -1.335287    0.264165
     15          6           0        4.315476    0.197484   -0.042814
     16          6           0        3.435712    1.220728   -0.251302
     17          1           0        5.393834    0.239775   -0.054223
     18          1           0        3.739778    2.238054   -0.455360
     19          8           0       -2.340842    2.146334    0.449852
     20          1           0       -3.131966    2.685011    0.548882
 ---------------------------------------------------------------------

 The electronic state is 1-A.
 Alpha  occ. eigenvalues --  -88.88652 -88.87906 -88.87680 -19.17183 -10.24996
 Alpha  occ. eigenvalues --  -10.22191 -10.21561 -10.21524 -10.20602 -10.20502
 Alpha  occ. eigenvalues --  -10.20419 -10.19398 -10.18836 -10.18677  -7.97254
 Alpha  occ. eigenvalues --   -7.96481  -7.96229  -5.93565  -5.93187  -5.92813
 Alpha  occ. eigenvalues --   -5.92794  -5.92557  -5.92430  -5.92185  -5.92027
 Alpha  occ. eigenvalues --   -5.91748  -1.08234  -0.91167  -0.89407  -0.84570
 Alpha  occ. eigenvalues --   -0.77068  -0.76147  -0.74427  -0.70875  -0.70129
 Alpha  occ. eigenvalues --   -0.61953  -0.61226  -0.57225  -0.56092  -0.53172
 Alpha  occ. eigenvalues --   -0.52144  -0.49299  -0.48695  -0.45337  -0.43793
 Alpha  occ. eigenvalues --   -0.43715  -0.41167  -0.40934  -0.39457  -0.38903
 Alpha  occ. eigenvalues --   -0.38132  -0.36864  -0.36410  -0.35552  -0.34034
 Alpha  occ. eigenvalues --   -0.33414  -0.28789  -0.26766  -0.24879  -0.23146
 Alpha  occ. eigenvalues --   -0.20010
 Alpha virt. eigenvalues --   -0.05782  -0.01934  -0.01575  -0.00095   0.00074
 Alpha virt. eigenvalues --    0.00287   0.01351   0.01714   0.02280   0.02820
 Alpha virt. eigenvalues --    0.03124   0.03655   0.04181   0.04514   0.04733

 Mulliken charges:
               1
     1  C   -0.246052
     2  C    0.049221
     3  C    0.592832
     4  C   -0.107076
     5  H    0.118950
     6  S   -0.475477
     7  H    0.163654
     8  C    0.105716
     9  S   -0.410317
    10  C    0.297950
    11  C    0.266155
    12  C   -0.031833
    13  H    0.136104
    14  S   -0.423371
    15  C   -0.136723
    16  C   -0.220155
    17  H    0.165397
    18  H    0.133054
    19  O   -0.237150
    20  H    0.259120
 Sum of Mulliken charges =  -0.00000

 Dipole moment (field-independent basis, Debye):
    X=             -2.3794    Y=              0.8999    Z=              0.1827  Tot=              2.5505
 Quadrupole moment (field-independent basis, Debye-Ang):
   XX=            -78.1833   YY=            -95.0270   ZZ=           -108.5083
   XY=             -1.6853   XZ=             -1.9827   YZ=             -0.0945

 Normal termination of Gaussian 16 at Sun Oct 17 02:02:18 2021.
