 Gaussian 16, Revision C.01,
 Gaussian 16:  ES64L-G16RevC.01  3-Jul-2019

 -------------------------------------
 # opt=modredundant b3lyp/6-311+g(d,p)
 -------------------------------------

 ------------
 pBTTT_85.pdb
 ------------
 Symbolic Z-matrix:
 Charge =  0 Multiplicity = 1

 SCF Done:  E(RB3LYP) =  -1654.52989786     A.U. after   17 cycles
 SCF Done:  E(RB3LYP) =  -1654.58310237     A.U. after   14 cycles
 SCF Done:  E(RB3LYP) =  -1654.61704787     A.U. after   15 cycles
 SCF Done:  E(RB3LYP) =  -1654.62619358     A.U. after   15 cycles
 SCF Done:  E(RB3LYP) =  -1654.62838595     A.U. after   15 cycles
 SCF Done:  E(RB3LYP) =  -1654.62896317     A.U. after   14 cycles
 SCF Done:  E(RB3LYP) =  -1654.62910287     A.U. after   14 cycles
 SCF Done:  E(RB3LYP) =  -1654.62924858     A.U. after   13 cycles
 SCF Done:  E(RB3LYP) =  -1654.62926069     A.U. after   12 cycles
 SCF Done:  E(RB3LYP) =  -1654.62926479     A.U. after   12 cycles
 SCF Done:  E(RB3LYP) =  -1654.62926828     A.U. after   11 cycles
 SCF Done:  E(RB3LYP) =  -1654.62926850     A.U. after   10 cycles
 SCF Done:  E(RB3LYP) =  -1654.62926864     A.U. after   10 cycles
 Optimization completed.
    -- Stationary point found.

                         Standard orientation:
 ---------------------------------------------------------------------
 Center     Atomic      Atomic             Coordinates (Angstroms)
 Number     Number       Type             X           Y           Z
 ---------------------------------------------------------------------
      1          6           0        3.983563    0.378717    0.544066
      2          6           0        2.608067    0.722594    0.714826
      3          6           0        1.740387   -0.098048    0.033904
      4          6           0        4.150611   -0.703183   -0.271160
      5          1           0        4.801880    0.912791    1.011813
      6         16           0        2.644876   -1.321355   -0.843378
      7          1           0        5.076398   -1.174384   -0.563664
      8          6           0        0.282313   -0.038202   -0.011338
      9         16           0       -0.528502    1.030266   -1.169859
     10          6           0       -2.091431    0.515387   -0.604789
     11          6           0       -1.961255   -0.425678    0.409136
     12          6           0       -0.617585   -0.743106    0.744219
     13          1           0       -0.312754   -1.446795    1.506449
     14         16           0       -3.527781   -0.939590    0.978401
     15          6           0       -4.316735    0.125829   -0.161965
     16          6           0       -3.440978    0.833824   -0.933025
     17          1           0       -5.395259    0.158906   -0.188402
     18          1           0       -3.747415    1.540893   -1.691280
     19          8           0        2.154578    1.756367    1.481431
     20          1           0        2.901292    2.239711    1.847756
 ---------------------------------------------------------------------

 The electronic state is 1-A.
 Alpha  occ. eigenvalues --  -88.88416 -88.88090 -88.87732 -19.16710 -10.24853
 Alpha  occ. eigenvalues --  -10.21813 -10.21368 -10.20936 -10.20751 -10.20741
 Alpha  occ. eigenvalues --  -10.20672 -10.19144 -10.19002 -10.18968  -7.97007
 Alpha  occ. eigenvalues --   -7.96665  -7.96303  -5.93305  -5.92977  -5.92930
 Alpha  occ. eigenvalues --   -5.92618  -5.92613  -5.92588  -5.92255  -5.92214
 Alpha  occ. eigenvalues --   -5.91840  -1.07804  -0.91215  -0.89169  -0.84619
 Alpha  occ. eigenvalues --   -0.76936  -0.76018  -0.74118  -0.71002  -0.70148
 Alpha  occ. eigenvalues --   -0.61699  -0.60791  -0.57152  -0.55797  -0.53784
 Alpha  occ. eigenvalues --   -0.51899  -0.49356  -0.48356  -0.45247  -0.43649
 Alpha  occ. eigenvalues --   -0.43272  -0.41388  -0.40925  -0.39468  -0.39006
 Alpha  occ. eigenvalues --   -0.37736  -0.36862  -0.36047  -0.35655  -0.33864
 Alpha  occ. eigenvalues --   -0.33372  -0.28635  -0.25801  -0.23440  -0.23193
 Alpha  occ. eigenvalues --   -0.22141
 Alpha virt. eigenvalues --   -0.04307  -0.03406  -0.01649  -0.00220   0.00138
 Alpha virt. eigenvalues --    0.00293   0.00727   0.01648   0.02091   0.02821
 Alpha virt. eigenvalues --    0.03071   0.03629   0.03825   0.04304   0.04718

 Mulliken charges:
               1
     1  C   -0.058204
     2  C   -0.468548
     3  C    0.323448
     4  C   -0.207974
     5  H    0.120042
     6  S   -0.107750
     7  H    0.163852
     8  C    0.348427
     9  S   -0.469511
    10  C    0.194617
    11  C   -0.483824
    12  C    0.470041
    13  H    0.133252
    14  S   -0.382846
    15  C   -0.217601
    16  C    0.321817
    17  H    0.166442
    18  H    0.134772
    19  O   -0.238792
    20  H    0.258340
 Sum of Mulliken charges =  -0.00000

 Dipole moment (field-independent basis, Debye):
    X=              1.9585    Y=              0.6742    Z=              0.6176  Tot=              2.1614
 Quadrupole moment (field-independent basis, Debye-Ang):
   XX=            -78.8532   YY=           -100.7028   ZZ=           -102.1231
   XY=              1.8079   XZ=              6.5311   YZ=              0.0963

 Normal termination of Gaussian 16 at Sun Oct 17 02:28:54 2021.
