 Gaussian 16, Revision C.01,
 Gaussian 16:  ES64L-G16RevC.01  3-Jul-2019

 -------------------------------------
 # opt=modredundant b3lyp/6-311+g(d,p)
 -------------------------------------

 -------------
 pBTTT_100.pdb
 -------------
 Symbolic Z-matrix:
 Charge =  0 Multiplicity = 1

 SCF Done:  E(RB3LYP) =  -1654.53002047     A.U. after   17 cycles
 SCF Done:  E(RB3LYP) =  -1654.58328673     A.U. after   14 cycles
 SCF Done:  E(RB3LYP) =  -1654.61722081     A.U. after   15 cycles
 SCF Done:  E(RB3LYP) =  -1654.62637401     A.U. after   14 cycles
 SCF Done:  E(RB3LYP) =  -1654.62855521     A.U. after   14 cycles
 SCF Done:  E(RB3LYP) =  -1654.62911096     A.U. after   14 cycles
 SCF Done:  E(RB3LYP) =  -1654.62923627     A.U. after   14 cycles
 SCF Done:  E(RB3LYP) =  -1654.62937617     A.U. after   13 cycles
 SCF Done:  E(RB3LYP) =  -1654.62938641     A.U. after   12 cycles
 SCF Done:  E(RB3LYP) =  -1654.62939159     A.U. after   11 cycles
 SCF Done:  E(RB3LYP) =  -1654.62939479     A.U. after   11 cycles
 SCF Done:  E(RB3LYP) =  -1654.62939494     A.U. after   10 cycles
 SCF Done:  E(RB3LYP) =  -1654.62939501     A.U. after   10 cycles
 Optimization completed.
    -- Stationary point found.

                         Standard orientation:
 ---------------------------------------------------------------------
 Center     Atomic      Atomic             Coordinates (Angstroms)
 Number     Number       Type             X           Y           Z
 ---------------------------------------------------------------------
      1          6           0       -3.952835    0.705443    0.298331
      2          6           0       -2.560859    0.930241    0.524496
      3          6           0       -1.740534    0.030637   -0.114589
      4          6           0       -4.180228   -0.373928   -0.505390
      5          1           0       -4.739693    1.320401    0.718251
      6         16           0       -2.712071   -1.128516   -1.007826
      7          1           0       -5.130427   -0.764521   -0.835779
      8          6           0       -0.283997   -0.043909   -0.074584
      9         16           0        0.520310   -1.220775    0.980043
     10          6           0        2.086317   -0.636039    0.496677
     11          6           0        1.961351    0.409259   -0.410076
     12          6           0        0.619948    0.744822   -0.736166
     13          1           0        0.319103    1.526337   -1.419888
     14         16           0        3.530852    0.995966   -0.894134
     15          6           0        4.313719   -0.181039    0.135270
     16          6           0        3.433774   -0.977558    0.809215
     17          1           0        5.391992   -0.206792    0.175982
     18          1           0        3.736017   -1.760394    1.490847
     19          8           0       -2.051463    1.934242    1.295922
     20          1           0       -2.770661    2.416658    1.714789
 ---------------------------------------------------------------------

 The electronic state is 1-A.
 Alpha  occ. eigenvalues --  -88.88412 -88.88085 -88.87768 -19.16718 -10.24865
 Alpha  occ. eigenvalues --  -10.21793 -10.21379 -10.20957 -10.20755 -10.20733
 Alpha  occ. eigenvalues --  -10.20672 -10.19153 -10.19004 -10.18923  -7.97004
 Alpha  occ. eigenvalues --   -7.96659  -7.96338  -5.93302  -5.92971  -5.92929
 Alpha  occ. eigenvalues --   -5.92654  -5.92607  -5.92586  -5.92291  -5.92209
 Alpha  occ. eigenvalues --   -5.91875  -1.07808  -0.91215  -0.89175  -0.84617
 Alpha  occ. eigenvalues --   -0.76948  -0.76023  -0.74128  -0.71000  -0.70132
 Alpha  occ. eigenvalues --   -0.61708  -0.60795  -0.57132  -0.55782  -0.53867
 Alpha  occ. eigenvalues --   -0.51854  -0.49340  -0.48367  -0.45280  -0.43621
 Alpha  occ. eigenvalues --   -0.43274  -0.41350  -0.40918  -0.39492  -0.39019
 Alpha  occ. eigenvalues --   -0.37758  -0.36823  -0.36027  -0.35670  -0.33885
 Alpha  occ. eigenvalues --   -0.33403  -0.28640  -0.25827  -0.23738  -0.23107
 Alpha  occ. eigenvalues --   -0.21939
 Alpha virt. eigenvalues --   -0.04406  -0.03350  -0.01636  -0.00145   0.00163
 Alpha virt. eigenvalues --    0.00344   0.00757   0.01673   0.02061   0.02810
 Alpha virt. eigenvalues --    0.03011   0.03643   0.03855   0.04331   0.04726

 Mulliken charges:
               1
     1  C   -0.118463
     2  C   -0.327312
     3  C    0.276868
     4  C   -0.176880
     5  H    0.120294
     6  S   -0.140666
     7  H    0.163851
     8  C    0.148184
     9  S   -0.499275
    10  C    0.138004
    11  C   -0.419106
    12  C    0.618915
    13  H    0.130645
    14  S   -0.385282
    15  C   -0.219904
    16  C    0.358152
    17  H    0.166337
    18  H    0.134506
    19  O   -0.225730
    20  H    0.256863
 Sum of Mulliken charges =  -0.00000

 Dipole moment (field-independent basis, Debye):
    X=             -1.9174    Y=              0.8263    Z=              0.6244  Tot=              2.1792
 Quadrupole moment (field-independent basis, Debye-Ang):
   XX=            -79.3945   YY=            -99.7697   ZZ=           -102.6850
   XY=             -7.5257   XZ=             -1.0478   YZ=              0.2951

 Normal termination of Gaussian 16 at Sun Oct 17 02:22:19 2021.
