 Gaussian 16, Revision C.01,
 Gaussian 16:  ES64L-G16RevC.01  3-Jul-2019

 -------------------------------------
 # opt=modredundant b3lyp/6-311+g(d,p)
 -------------------------------------

 ------------
 pBTTT_25.pdb
 ------------
 Symbolic Z-matrix:
 Charge =  0 Multiplicity = 1

 SCF Done:  E(RB3LYP) =  -1654.53491405     A.U. after   17 cycles
 SCF Done:  E(RB3LYP) =  -1654.58735434     A.U. after   15 cycles
 SCF Done:  E(RB3LYP) =  -1654.61992996     A.U. after   16 cycles
 SCF Done:  E(RB3LYP) =  -1654.62913918     A.U. after   15 cycles
 SCF Done:  E(RB3LYP) =  -1654.63136304     A.U. after   14 cycles
 SCF Done:  E(RB3LYP) =  -1654.63197696     A.U. after   13 cycles
 SCF Done:  E(RB3LYP) =  -1654.63213953     A.U. after   13 cycles
 SCF Done:  E(RB3LYP) =  -1654.63228682     A.U. after   12 cycles
 SCF Done:  E(RB3LYP) =  -1654.63229354     A.U. after   11 cycles
 SCF Done:  E(RB3LYP) =  -1654.63229788     A.U. after   11 cycles
 SCF Done:  E(RB3LYP) =  -1654.63230022     A.U. after   10 cycles
 Optimization completed.
    -- Stationary point found.

                         Standard orientation:
 ---------------------------------------------------------------------
 Center     Atomic      Atomic             Coordinates (Angstroms)
 Number     Number       Type             X           Y           Z
 ---------------------------------------------------------------------
      1          6           0       -4.027586    0.362371   -0.156454
      2          6           0       -2.688507    0.847062   -0.210132
      3          6           0       -1.729010   -0.122072   -0.002375
      4          6           0       -4.087069   -0.976909    0.095137
      5          1           0       -4.899966    0.987538   -0.303565
      6         16           0       -2.513754   -1.667621    0.284982
      7          1           0       -4.963301   -1.599382    0.187449
      8          6           0       -0.286184   -0.015845   -0.024622
      9         16           0        0.526302    1.526532    0.300992
     10          6           0        2.088457    0.767631    0.170504
     11          6           0        1.960121   -0.587533   -0.104731
     12          6           0        0.620558   -1.034873   -0.220228
     13          1           0        0.326411   -2.050541   -0.446818
     14         16           0        3.528185   -1.335195   -0.264238
     15          6           0        4.315505    0.197428    0.043483
     16          6           0        3.435682    1.220752    0.251443
     17          1           0        5.393865    0.240011    0.053579
     18          1           0        3.739728    2.238036    0.455756
     19          8           0       -2.341014    2.146477   -0.449678
     20          1           0       -3.132138    2.685003   -0.548908
 ---------------------------------------------------------------------

 The electronic state is 1-A.
 Alpha  occ. eigenvalues --  -88.88652 -88.87907 -88.87680 -19.17182 -10.24997
 Alpha  occ. eigenvalues --  -10.22191 -10.21563 -10.21524 -10.20602 -10.20502
 Alpha  occ. eigenvalues --  -10.20420 -10.19398 -10.18837 -10.18678  -7.97254
 Alpha  occ. eigenvalues --   -7.96481  -7.96229  -5.93565  -5.93187  -5.92813
 Alpha  occ. eigenvalues --   -5.92794  -5.92557  -5.92431  -5.92186  -5.92027
 Alpha  occ. eigenvalues --   -5.91749  -1.08232  -0.91167  -0.89406  -0.84571
 Alpha  occ. eigenvalues --   -0.77067  -0.76147  -0.74426  -0.70876  -0.70129
 Alpha  occ. eigenvalues --   -0.61953  -0.61225  -0.57225  -0.56092  -0.53174
 Alpha  occ. eigenvalues --   -0.52144  -0.49299  -0.48694  -0.45337  -0.43792
 Alpha  occ. eigenvalues --   -0.43715  -0.41168  -0.40933  -0.39458  -0.38904
 Alpha  occ. eigenvalues --   -0.38132  -0.36864  -0.36409  -0.35553  -0.34034
 Alpha  occ. eigenvalues --   -0.33414  -0.28789  -0.26765  -0.24879  -0.23147
 Alpha  occ. eigenvalues --   -0.20011
 Alpha virt. eigenvalues --   -0.05781  -0.01934  -0.01576  -0.00095   0.00075
 Alpha virt. eigenvalues --    0.00287   0.01350   0.01715   0.02280   0.02819
 Alpha virt. eigenvalues --    0.03123   0.03656   0.04181   0.04512   0.04732

 Mulliken charges:
               1
     1  C   -0.245236
     2  C    0.048419
     3  C    0.592840
     4  C   -0.107071
     5  H    0.118955
     6  S   -0.475264
     7  H    0.163652
     8  C    0.106882
     9  S   -0.410081
    10  C    0.297806
    11  C    0.265523
    12  C   -0.032707
    13  H    0.136106
    14  S   -0.423343
    15  C   -0.136781
    16  C   -0.220093
    17  H    0.165399
    18  H    0.133057
    19  O   -0.237174
    20  H    0.259111
 Sum of Mulliken charges =  -0.00000

 Dipole moment (field-independent basis, Debye):
    X=             -2.3790    Y=              0.8999    Z=             -0.1837  Tot=              2.5501
 Quadrupole moment (field-independent basis, Debye-Ang):
   XX=            -78.1821   YY=            -95.0297   ZZ=           -108.5071
   XY=             -1.6835   XZ=              1.9755   YZ=              0.0929

 Normal termination of Gaussian 16 at Sun Oct 17 02:09:40 2021.
