 Gaussian 16, Revision C.01,
 Gaussian 16:  ES64L-G16RevC.01  3-Jul-2019

 -------------------------------------
 # opt=modredundant b3lyp/6-311+g(d,p)
 -------------------------------------

 -------------
 pBTTT_180.pdb
 -------------
 Symbolic Z-matrix:
 Charge =  0 Multiplicity = 1

 SCF Done:  E(RB3LYP) =  -1654.53520664     A.U. after   17 cycles
 SCF Done:  E(RB3LYP) =  -1654.58771276     A.U. after   15 cycles
 SCF Done:  E(RB3LYP) =  -1654.62078274     A.U. after   15 cycles
 SCF Done:  E(RB3LYP) =  -1654.62966707     A.U. after   15 cycles
 SCF Done:  E(RB3LYP) =  -1654.63175768     A.U. after   15 cycles
 SCF Done:  E(RB3LYP) =  -1654.63229877     A.U. after   12 cycles
 SCF Done:  E(RB3LYP) =  -1654.63237174     A.U. after   14 cycles
 SCF Done:  E(RB3LYP) =  -1654.63255814     A.U. after   12 cycles
 SCF Done:  E(RB3LYP) =  -1654.63256556     A.U. after   11 cycles
 SCF Done:  E(RB3LYP) =  -1654.63256926     A.U. after   11 cycles
 SCF Done:  E(RB3LYP) =  -1654.63257131     A.U. after   10 cycles
 Optimization completed.
    -- Stationary point found.

                         Standard orientation:
 ---------------------------------------------------------------------
 Center     Atomic      Atomic             Coordinates (Angstroms)
 Number     Number       Type             X           Y           Z
 ---------------------------------------------------------------------
      1          6           0        3.930805    0.889408   -0.000278
      2          6           0        2.534262    1.166297    0.000070
      3          6           0        1.734014    0.039253    0.000148
      4          6           0        4.198610   -0.448148   -0.000105
      5          1           0        4.695613    1.656754   -0.000232
      6         16           0        2.751664   -1.392937    0.000088
      7          1           0        5.159744   -0.937572   -0.000094
      8          6           0        0.290134   -0.036624    0.000205
      9         16           0       -0.527969   -1.612221    0.000028
     10          6           0       -2.091461   -0.842634   -0.000149
     11          6           0       -1.954480    0.538651    0.000057
     12          6           0       -0.614677    1.003671    0.000414
     13          1           0       -0.311986    2.038849    0.000644
     14         16           0       -3.520394    1.307696    0.000011
     15          6           0       -4.314217   -0.251360    0.000052
     16          6           0       -3.438264   -1.299737   -0.000401
     17          1           0       -5.392686   -0.291410   -0.000301
     18          1           0       -3.745649   -2.336260   -0.000362
     19          8           0        1.998433    2.424929   -0.000027
     20          1           0        2.706326    3.076933   -0.001541
 ---------------------------------------------------------------------

 The electronic state is 1-A.
 Alpha  occ. eigenvalues --  -88.88696 -88.87951 -88.87876 -19.17446 -10.25034
 Alpha  occ. eigenvalues --  -10.22225 -10.21718 -10.21497 -10.20669 -10.20602
 Alpha  occ. eigenvalues --  -10.20550 -10.19415 -10.18937 -10.18354  -7.97304
 Alpha  occ. eigenvalues --   -7.96525  -7.96468  -5.93615  -5.93237  -5.92861
 Alpha  occ. eigenvalues --   -5.92837  -5.92795  -5.92474  -5.92435  -5.92074
 Alpha  occ. eigenvalues --   -5.91976  -1.08399  -0.91246  -0.89462  -0.84628
 Alpha  occ. eigenvalues --   -0.77114  -0.76217  -0.74474  -0.70934  -0.70096
 Alpha  occ. eigenvalues --   -0.62040  -0.61284  -0.57013  -0.56236  -0.53768
 Alpha  occ. eigenvalues --   -0.51880  -0.49451  -0.48439  -0.45435  -0.43818
 Alpha  occ. eigenvalues --   -0.43669  -0.41134  -0.40897  -0.39891  -0.39134
 Alpha  occ. eigenvalues --   -0.37820  -0.36740  -0.36678  -0.35574  -0.34211
 Alpha  occ. eigenvalues --   -0.33598  -0.28912  -0.26968  -0.24968  -0.23311
 Alpha  occ. eigenvalues --   -0.19820
 Alpha virt. eigenvalues --   -0.05968  -0.02403  -0.01075  -0.01015   0.00388
 Alpha virt. eigenvalues --    0.00582   0.01351   0.01448   0.02148   0.02689
 Alpha virt. eigenvalues --    0.03399   0.03795   0.04246   0.04730   0.04854

 Mulliken charges:
               1
     1  C   -0.400009
     2  C    0.576025
     3  C    0.486209
     4  C   -0.089583
     5  H    0.118302
     6  S   -0.553377
     7  H    0.162242
     8  C   -0.032441
     9  S   -0.625238
    10  C    0.249165
    11  C    0.266251
    12  C    0.068335
    13  H    0.152384
    14  S   -0.407153
    15  C   -0.158014
    16  C   -0.128377
    17  H    0.166110
    18  H    0.132733
    19  O   -0.242868
    20  H    0.259304
 Sum of Mulliken charges =  -0.00000

 Dipole moment (field-independent basis, Debye):
    X=              2.1723    Y=              1.1498    Z=             -0.0025  Tot=              2.4578
 Quadrupole moment (field-independent basis, Debye-Ang):
   XX=            -79.5347   YY=            -93.1478   ZZ=           -109.1037
   XY=              9.8455   XZ=             -0.0051   YZ=             -0.0082

 Normal termination of Gaussian 16 at Sun Oct 17 02:30:36 2021.
