 Gaussian 16, Revision C.01,
 Gaussian 16:  ES64L-G16RevC.01  3-Jul-2019

 -------------------------------------
 # opt=modredundant b3lyp/6-311+g(d,p)
 -------------------------------------

 -------------
 pBTTT_150.pdb
 -------------
 Symbolic Z-matrix:
 Charge =  0 Multiplicity = 1

 SCF Done:  E(RB3LYP) =  -1654.53402823     A.U. after   16 cycles
 SCF Done:  E(RB3LYP) =  -1654.58683240     A.U. after   14 cycles
 SCF Done:  E(RB3LYP) =  -1654.62009060     A.U. after   15 cycles
 SCF Done:  E(RB3LYP) =  -1654.62934042     A.U. after   15 cycles
 SCF Done:  E(RB3LYP) =  -1654.63156719     A.U. after   14 cycles
 SCF Done:  E(RB3LYP) =  -1654.63209293     A.U. after   13 cycles
 SCF Done:  E(RB3LYP) =  -1654.63218926     A.U. after   13 cycles
 SCF Done:  E(RB3LYP) =  -1654.63233907     A.U. after   13 cycles
 SCF Done:  E(RB3LYP) =  -1654.63234526     A.U. after   12 cycles
 SCF Done:  E(RB3LYP) =  -1654.63235231     A.U. after   11 cycles
 SCF Done:  E(RB3LYP) =  -1654.63235396     A.U. after   10 cycles
 SCF Done:  E(RB3LYP) =  -1654.63235407     A.U. after    9 cycles
 Optimization completed.
    -- Stationary point found.

                         Standard orientation:
 ---------------------------------------------------------------------
 Center     Atomic      Atomic             Coordinates (Angstroms)
 Number     Number       Type             X           Y           Z
 ---------------------------------------------------------------------
      1          6           0       -3.927721    0.866792    0.142183
      2          6           0       -2.529985    1.136342    0.203815
      3          6           0       -1.734691    0.039414   -0.058387
      4          6           0       -4.195060   -0.435537   -0.165352
      5          1           0       -4.692828    1.612535    0.321356
      6         16           0       -2.749493   -1.350630   -0.407571
      7          1           0       -5.157436   -0.910295   -0.275329
      8          6           0       -0.290050   -0.040868   -0.047213
      9         16           0        0.521866   -1.561957    0.372491
     10          6           0        2.086404   -0.818668    0.184085
     11          6           0        1.953218    0.522521   -0.150853
     12          6           0        0.613177    0.968875   -0.285394
     13          1           0        0.310684    1.972251   -0.544724
     14         16           0        3.520307    1.267239   -0.330088
     15          6           0        4.310775   -0.246609    0.049289
     16          6           0        3.433248   -1.263174    0.298207
     17          1           0        5.389178   -0.286058    0.064742
     18          1           0        3.738910   -2.269251    0.549699
     19          8           0       -1.988540    2.359698    0.488353
     20          1           0       -2.678953    2.954276    0.797847
 ---------------------------------------------------------------------

 The electronic state is 1-A.
 Alpha  occ. eigenvalues --  -88.88640 -88.87988 -88.87888 -19.17163 -10.24949
 Alpha  occ. eigenvalues --  -10.22086 -10.21519 -10.21451 -10.20695 -10.20639
 Alpha  occ. eigenvalues --  -10.20588 -10.19348 -10.18954 -10.18525  -7.97242
 Alpha  occ. eigenvalues --   -7.96562  -7.96471  -5.93548  -5.93172  -5.92874
 Alpha  occ. eigenvalues --   -5.92807  -5.92794  -5.92510  -5.92435  -5.92111
 Alpha  occ. eigenvalues --   -5.91988  -1.08139  -0.91251  -0.89394  -0.84640
 Alpha  occ. eigenvalues --   -0.77084  -0.76183  -0.74390  -0.70965  -0.70088
 Alpha  occ. eigenvalues --   -0.61957  -0.61104  -0.57042  -0.56097  -0.53820
 Alpha  occ. eigenvalues --   -0.51838  -0.49329  -0.48485  -0.45408  -0.43729
 Alpha  occ. eigenvalues --   -0.43579  -0.41227  -0.40815  -0.39826  -0.39068
 Alpha  occ. eigenvalues --   -0.37817  -0.36765  -0.36252  -0.35768  -0.34046
 Alpha  occ. eigenvalues --   -0.33690  -0.28823  -0.26730  -0.24840  -0.23343
 Alpha  occ. eigenvalues --   -0.20138
 Alpha virt. eigenvalues --   -0.05686  -0.02396  -0.01371  -0.00576   0.00343
 Alpha virt. eigenvalues --    0.00522   0.01183   0.01538   0.02141   0.02686
 Alpha virt. eigenvalues --    0.03348   0.03743   0.04013   0.04682   0.04790

 Mulliken charges:
               1
     1  C   -0.202331
     2  C   -0.115670
     3  C    0.519483
     4  C   -0.138754
     5  H    0.120025
     6  S   -0.400960
     7  H    0.163178
     8  C    0.375512
     9  S   -0.542347
    10  C    0.399178
    11  C    0.187043
    12  C    0.001283
    13  H    0.144212
    14  S   -0.406074
    15  C   -0.137232
    16  C   -0.271850
    17  H    0.165994
    18  H    0.133645
    19  O   -0.251032
    20  H    0.256696
 Sum of Mulliken charges =  -0.00000

 Dipole moment (field-independent basis, Debye):
    X=             -2.0630    Y=              1.0347    Z=              0.4916  Tot=              2.3597
 Quadrupole moment (field-independent basis, Debye-Ang):
   XX=            -79.8369   YY=            -94.5814   ZZ=           -107.6858
   XY=             -9.1863   XZ=             -1.1661   YZ=              0.9660

 Normal termination of Gaussian 16 at Sun Oct 17 02:28:22 2021.
