 Gaussian 16, Revision C.01,
 Gaussian 16:  ES64L-G16RevC.01  3-Jul-2019

 -------------------------------------
 # opt=modredundant b3lyp/6-311+g(d,p)
 -------------------------------------

 ------------
 pBTTT_50.pdb
 ------------
 Symbolic Z-matrix:
 Charge =  0 Multiplicity = 1

 SCF Done:  E(RB3LYP) =  -1654.53270542     A.U. after   17 cycles
 SCF Done:  E(RB3LYP) =  -1654.58539763     A.U. after   15 cycles
 SCF Done:  E(RB3LYP) =  -1654.61863922     A.U. after   15 cycles
 SCF Done:  E(RB3LYP) =  -1654.62794124     A.U. after   15 cycles
 SCF Done:  E(RB3LYP) =  -1654.63024283     A.U. after   15 cycles
 SCF Done:  E(RB3LYP) =  -1654.63082066     A.U. after   12 cycles
 SCF Done:  E(RB3LYP) =  -1654.63101358     A.U. after   13 cycles
 SCF Done:  E(RB3LYP) =  -1654.63115742     A.U. after   12 cycles
 SCF Done:  E(RB3LYP) =  -1654.63116676     A.U. after   11 cycles
 SCF Done:  E(RB3LYP) =  -1654.63117024     A.U. after   10 cycles
 SCF Done:  E(RB3LYP) =  -1654.63117197     A.U. after   10 cycles
 SCF Done:  E(RB3LYP) =  -1654.63117221     A.U. after    9 cycles
 Optimization completed.
    -- Stationary point found.

                         Standard orientation:
 ---------------------------------------------------------------------
 Center     Atomic      Atomic             Coordinates (Angstroms)
 Number     Number       Type             X           Y           Z
 ---------------------------------------------------------------------
      1          6           0       -4.023057    0.333742   -0.309108
      2          6           0       -2.682680    0.807443   -0.420637
      3          6           0       -1.733296   -0.097690    0.000889
      4          6           0       -4.088281   -0.934385    0.191886
      5          1           0       -4.892105    0.912356   -0.598366
      6         16           0       -2.522169   -1.565232    0.553655
      7          1           0       -4.968227   -1.531163    0.375498
      8          6           0       -0.285059    0.001757   -0.023749
      9         16           0        0.534125    1.433484    0.621570
     10          6           0        2.093025    0.716910    0.326538
     11          6           0        1.956315   -0.554176   -0.217090
     12          6           0        0.612323   -0.963152   -0.416660
     13          1           0        0.306515   -1.908927   -0.842406
     14         16           0        3.519614   -1.261344   -0.530787
     15          6           0        4.315990    0.173175    0.076461
     16          6           0        3.443559    1.137972    0.490935
     17          1           0        5.394642    0.207298    0.090962
     18          1           0        3.754085    2.091383    0.895278
     19          8           0       -2.329528    2.034345   -0.906025
     20          1           0       -3.116845    2.514186   -1.180559
 ---------------------------------------------------------------------

 The electronic state is 1-A.
 Alpha  occ. eigenvalues --  -88.88582 -88.88011 -88.87706 -19.16884 -10.24902
 Alpha  occ. eigenvalues --  -10.22048 -10.21417 -10.21277 -10.20673 -10.20626
 Alpha  occ. eigenvalues --  -10.20599 -10.19276 -10.18929 -10.18827  -7.97176
 Alpha  occ. eigenvalues --   -7.96585  -7.96269  -5.93480  -5.93104  -5.92898
 Alpha  occ. eigenvalues --   -5.92748  -5.92592  -5.92534  -5.92225  -5.92133
 Alpha  occ. eigenvalues --   -5.91795  -1.07958  -0.91216  -0.89315  -0.84619
 Alpha  occ. eigenvalues --   -0.77018  -0.76102  -0.74289  -0.70949  -0.70148
 Alpha  occ. eigenvalues --   -0.61844  -0.60992  -0.57192  -0.55973  -0.53430
 Alpha  occ. eigenvalues --   -0.52044  -0.49305  -0.48535  -0.45272  -0.43738
 Alpha  occ. eigenvalues --   -0.43502  -0.41331  -0.40902  -0.39467  -0.38932
 Alpha  occ. eigenvalues --   -0.37846  -0.36927  -0.36159  -0.35724  -0.33768
 Alpha  occ. eigenvalues --   -0.33642  -0.28682  -0.26393  -0.24551  -0.23192
 Alpha  occ. eigenvalues --   -0.20646
 Alpha virt. eigenvalues --   -0.05333  -0.02184  -0.01713  -0.00189   0.00019
 Alpha virt. eigenvalues --    0.00246   0.00976   0.01680   0.02235   0.02799
 Alpha virt. eigenvalues --    0.03149   0.03755   0.04056   0.04283   0.04692

 Mulliken charges:
               1
     1  C   -0.144984
     2  C   -0.457491
     3  C    0.632876
     4  C   -0.144480
     5  H    0.119343
     6  S   -0.314620
     7  H    0.164215
     8  C    0.747137
     9  S   -0.354360
    10  C    0.404568
    11  C    0.011233
    12  C   -0.303443
    13  H    0.139388
    14  S   -0.405825
    15  C   -0.143346
    16  C   -0.262306
    17  H    0.165819
    18  H    0.134659
    19  O   -0.241077
    20  H    0.252695
 Sum of Mulliken charges =  -0.00000

 Dipole moment (field-independent basis, Debye):
    X=             -2.1735    Y=              0.6985    Z=             -0.4453  Tot=              2.3260
 Quadrupole moment (field-independent basis, Debye-Ang):
   XX=            -78.2368   YY=            -96.9496   ZZ=           -106.5118
   XY=             -1.2143   XZ=              4.2878   YZ=             -0.1109

 Normal termination of Gaussian 16 at Sun Oct 17 02:14:22 2021.
