 Gaussian 16, Revision C.01,
 Gaussian 16:  ES64L-G16RevC.01  3-Jul-2019

 -------------------------------------
 # opt=modredundant b3lyp/6-311+g(d,p)
 -------------------------------------

 --------------
 pBTTT_-135.pdb
 --------------
 Symbolic Z-matrix:
 Charge =  0 Multiplicity = 1

 SCF Done:  E(RB3LYP) =  -1654.53310180     A.U. after   16 cycles
 SCF Done:  E(RB3LYP) =  -1654.58588483     A.U. after   14 cycles
 SCF Done:  E(RB3LYP) =  -1654.61943313     A.U. after   15 cycles
 SCF Done:  E(RB3LYP) =  -1654.62850065     A.U. after   15 cycles
 SCF Done:  E(RB3LYP) =  -1654.63070622     A.U. after   14 cycles
 SCF Done:  E(RB3LYP) =  -1654.63125081     A.U. after   12 cycles
 SCF Done:  E(RB3LYP) =  -1654.63134971     A.U. after   13 cycles
 SCF Done:  E(RB3LYP) =  -1654.63153185     A.U. after   13 cycles
 SCF Done:  E(RB3LYP) =  -1654.63154643     A.U. after   11 cycles
 SCF Done:  E(RB3LYP) =  -1654.63155431     A.U. after   11 cycles
 SCF Done:  E(RB3LYP) =  -1654.63155666     A.U. after   10 cycles
 SCF Done:  E(RB3LYP) =  -1654.63155675     A.U. after    9 cycles
 Optimization completed.
    -- Stationary point found.

                         Standard orientation:
 ---------------------------------------------------------------------
 Center     Atomic      Atomic             Coordinates (Angstroms)
 Number     Number       Type             X           Y           Z
 ---------------------------------------------------------------------
      1          6           0        3.925689    0.840405    0.213585
      2          6           0        2.526422    1.101641    0.297705
      3          6           0        1.735759    0.043335   -0.095860
      4          6           0        4.194660   -0.420162   -0.234857
      5          1           0        4.689883    1.560511    0.480178
      6         16           0        2.751859   -1.302656   -0.585579
      7          1           0        5.158724   -0.878534   -0.391135
      8          6           0        0.288984   -0.045686   -0.083058
      9         16           0       -0.515047   -1.503725    0.530318
     10          6           0       -2.082235   -0.789249    0.270482
     11          6           0       -1.955543    0.502145   -0.225230
     12          6           0       -0.616578    0.927085   -0.428717
     13          1           0       -0.317818    1.892494   -0.810295
     14         16           0       -3.525400    1.218191   -0.479745
     15          6           0       -4.309184   -0.239836    0.085743
     16          6           0       -3.427945   -1.218314    0.447184
     17          1           0       -5.387354   -0.277762    0.116140
     18          1           0       -3.729610   -2.187059    0.820540
     19          8           0        1.981850    2.282413    0.719481
     20          1           0        2.668611    2.833884    1.106949
 ---------------------------------------------------------------------

 The electronic state is 1-A.
 Alpha  occ. eigenvalues --  -88.88579 -88.88016 -88.87873 -19.16969 -10.24921
 Alpha  occ. eigenvalues --  -10.21976 -10.21433 -10.21348 -10.20711 -10.20655
 Alpha  occ. eigenvalues --  -10.20625 -10.19292 -10.18967 -10.18654  -7.97178
 Alpha  occ. eigenvalues --   -7.96590  -7.96451  -5.93481  -5.93106  -5.92902
 Alpha  occ. eigenvalues --   -5.92771  -5.92749  -5.92538  -5.92411  -5.92139
 Alpha  occ. eigenvalues --   -5.91974  -1.07983  -0.91241  -0.89332  -0.84635
 Alpha  occ. eigenvalues --   -0.77047  -0.76140  -0.74313  -0.70977  -0.70094
 Alpha  occ. eigenvalues --   -0.61881  -0.60980  -0.57068  -0.55984  -0.53859
 Alpha  occ. eigenvalues --   -0.51822  -0.49281  -0.48493  -0.45383  -0.43672
 Alpha  occ. eigenvalues --   -0.43484  -0.41258  -0.40840  -0.39723  -0.39018
 Alpha  occ. eigenvalues --   -0.37817  -0.36760  -0.36022  -0.35874  -0.33941
 Alpha  occ. eigenvalues --   -0.33688  -0.28744  -0.26469  -0.24678  -0.23322
 Alpha  occ. eigenvalues --   -0.20499
 Alpha virt. eigenvalues --   -0.05391  -0.02519  -0.01505  -0.00331   0.00269
 Alpha virt. eigenvalues --    0.00471   0.01053   0.01611   0.02110   0.02712
 Alpha virt. eigenvalues --    0.03206   0.03771   0.03874   0.04680   0.04724

 Mulliken charges:
               1
     1  C   -0.171409
     2  C   -0.294108
     3  C    0.548541
     4  C   -0.169494
     5  H    0.120523
     6  S   -0.325945
     7  H    0.163910
     8  C    0.522348
     9  S   -0.493795
    10  C    0.371939
    11  C    0.154336
    12  C   -0.041556
    13  H    0.139208
    14  S   -0.403450
    15  C   -0.131871
    16  C   -0.294673
    17  H    0.166033
    18  H    0.134184
    19  O   -0.248347
    20  H    0.253626
 Sum of Mulliken charges =  -0.00000

 Dipole moment (field-independent basis, Debye):
    X=              2.0010    Y=              0.9554    Z=              0.6390  Tot=              2.3076
 Quadrupole moment (field-independent basis, Debye-Ang):
   XX=            -79.9413   YY=            -95.8487   ZZ=           -106.3984
   XY=              8.6644   XZ=              1.4043   YZ=              0.8961

 Normal termination of Gaussian 16 at Sun Oct 17 01:43:56 2021.
