 Gaussian 16, Revision C.01,
 Gaussian 16:  ES64L-G16RevC.01  3-Jul-2019

 -------------------------------------
 # opt=modredundant b3lyp/6-311+g(d,p)
 -------------------------------------

 -------------
 pBTTT_175.pdb
 -------------
 Symbolic Z-matrix:
 Charge =  0 Multiplicity = 1

 SCF Done:  E(RB3LYP) =  -1654.53497889     A.U. after   17 cycles
 SCF Done:  E(RB3LYP) =  -1654.58757484     A.U. after   15 cycles
 SCF Done:  E(RB3LYP) =  -1654.62073048     A.U. after   15 cycles
 SCF Done:  E(RB3LYP) =  -1654.62965801     A.U. after   14 cycles
 SCF Done:  E(RB3LYP) =  -1654.63176444     A.U. after   15 cycles
 SCF Done:  E(RB3LYP) =  -1654.63231323     A.U. after   13 cycles
 SCF Done:  E(RB3LYP) =  -1654.63238404     A.U. after   14 cycles
 SCF Done:  E(RB3LYP) =  -1654.63256837     A.U. after   13 cycles
 SCF Done:  E(RB3LYP) =  -1654.63257612     A.U. after   12 cycles
 SCF Done:  E(RB3LYP) =  -1654.63257930     A.U. after   11 cycles
 SCF Done:  E(RB3LYP) =  -1654.63258142     A.U. after   10 cycles
 Optimization completed.
    -- Stationary point found.

                         Standard orientation:
 ---------------------------------------------------------------------
 Center     Atomic      Atomic             Coordinates (Angstroms)
 Number     Number       Type             X           Y           Z
 ---------------------------------------------------------------------
      1          6           0        3.930802    0.888520   -0.021617
      2          6           0        2.534278    1.165297   -0.036205
      3          6           0        1.734030    0.039137    0.005437
      4          6           0        4.198299   -0.447958    0.034204
      5          1           0        4.695753    1.655163   -0.050645
      6         16           0        2.751196   -1.391614    0.075703
      7          1           0        5.159368   -0.937009    0.056706
      8          6           0        0.290156   -0.036618    0.002554
      9         16           0       -0.527797   -1.610484   -0.071854
     10          6           0       -2.091260   -0.841834   -0.033305
     11          6           0       -1.954333    0.538250    0.025282
     12          6           0       -0.614490    1.002731    0.046423
     13          1           0       -0.311692    2.036877    0.093042
     14         16           0       -3.520239    1.306452    0.061135
     15          6           0       -4.314034   -0.251278   -0.003435
     16          6           0       -3.438095   -1.298604   -0.050213
     17          1           0       -5.392502   -0.291369   -0.003395
     18          1           0       -3.745482   -2.334218   -0.093605
     19          8           0        1.998376    2.422902   -0.086569
     20          1           0        2.704871    3.071828   -0.164046
 ---------------------------------------------------------------------

 The electronic state is 1-A.
 Alpha  occ. eigenvalues --  -88.88693 -88.87953 -88.87877 -19.17433 -10.25028
 Alpha  occ. eigenvalues --  -10.22220 -10.21711 -10.21494 -10.20671 -10.20605
 Alpha  occ. eigenvalues --  -10.20552 -10.19411 -10.18938 -10.18361  -7.97301
 Alpha  occ. eigenvalues --   -7.96527  -7.96468  -5.93612  -5.93234  -5.92858
 Alpha  occ. eigenvalues --   -5.92839  -5.92795  -5.92476  -5.92435  -5.92076
 Alpha  occ. eigenvalues --   -5.91977  -1.08386  -0.91247  -0.89459  -0.84629
 Alpha  occ. eigenvalues --   -0.77113  -0.76216  -0.74470  -0.70936  -0.70095
 Alpha  occ. eigenvalues --   -0.62037  -0.61274  -0.57015  -0.56231  -0.53770
 Alpha  occ. eigenvalues --   -0.51878  -0.49446  -0.48441  -0.45434  -0.43814
 Alpha  occ. eigenvalues --   -0.43666  -0.41145  -0.40886  -0.39889  -0.39133
 Alpha  occ. eigenvalues --   -0.37820  -0.36741  -0.36656  -0.35581  -0.34204
 Alpha  occ. eigenvalues --   -0.33602  -0.28909  -0.26960  -0.24965  -0.23313
 Alpha  occ. eigenvalues --   -0.19832
 Alpha virt. eigenvalues --   -0.05959  -0.02401  -0.01108  -0.00975   0.00387
 Alpha virt. eigenvalues --    0.00580   0.01347   0.01448   0.02149   0.02688
 Alpha virt. eigenvalues --    0.03402   0.03792   0.04233   0.04726   0.04853

 Mulliken charges:
               1
     1  C   -0.376656
     2  C    0.521002
     3  C    0.491114
     4  C   -0.087812
     5  H    0.118372
     6  S   -0.547880
     7  H    0.162141
     8  C   -0.024572
     9  S   -0.616834
    10  C    0.270833
    11  C    0.275986
    12  C    0.054036
    13  H    0.151863
    14  S   -0.407402
    15  C   -0.156712
    16  C   -0.141917
    17  H    0.166082
    18  H    0.132799
    19  O   -0.243884
    20  H    0.259439
 Sum of Mulliken charges =  -0.00000

 Dipole moment (field-independent basis, Debye):
    X=              2.1655    Y=              1.1435    Z=             -0.1118  Tot=              2.4514
 Quadrupole moment (field-independent basis, Debye-Ang):
   XX=            -79.5508   YY=            -93.2143   ZZ=           -109.0430
   XY=              9.8125   XZ=             -0.3071   YZ=             -0.3405

 Normal termination of Gaussian 16 at Sun Oct 17 02:30:34 2021.
