 Gaussian 16, Revision C.01,
 Gaussian 16:  ES64L-G16RevC.01  3-Jul-2019

 -------------------------------------
 # opt=modredundant b3lyp/6-311+g(d,p)
 -------------------------------------

 -------------
 pBTTT_-15.pdb
 -------------
 Symbolic Z-matrix:
 Charge =  0 Multiplicity = 1

 SCF Done:  E(RB3LYP) =  -1654.53608108     A.U. after   17 cycles
 SCF Done:  E(RB3LYP) =  -1654.58856627     A.U. after   15 cycles
 SCF Done:  E(RB3LYP) =  -1654.62092157     A.U. after   16 cycles
 SCF Done:  E(RB3LYP) =  -1654.62983376     A.U. after   17 cycles
 SCF Done:  E(RB3LYP) =  -1654.63181192     A.U. after   14 cycles
 SCF Done:  E(RB3LYP) =  -1654.63223428     A.U. after   13 cycles
 SCF Done:  E(RB3LYP) =  -1654.63230641     A.U. after   13 cycles
 SCF Done:  E(RB3LYP) =  -1654.63247968     A.U. after   12 cycles
 SCF Done:  E(RB3LYP) =  -1654.63249290     A.U. after   12 cycles
 SCF Done:  E(RB3LYP) =  -1654.63249562     A.U. after   11 cycles
 SCF Done:  E(RB3LYP) =  -1654.63249743     A.U. after   10 cycles
 Optimization completed.
    -- Stationary point found.

                         Standard orientation:
 ---------------------------------------------------------------------
 Center     Atomic      Atomic             Coordinates (Angstroms)
 Number     Number       Type             X           Y           Z
 ---------------------------------------------------------------------
      1          6           0       -4.027753    0.374292    0.093166
      2          6           0       -2.686923    0.855710    0.127987
      3          6           0       -1.728292   -0.129083    0.004837
      4          6           0       -4.090681   -0.978981   -0.061059
      5          1           0       -4.898479    1.012441    0.182686
      6         16           0       -2.517896   -1.689356   -0.173231
      7          1           0       -4.968003   -1.604032   -0.118524
      8          6           0       -0.286411   -0.022432    0.019244
      9         16           0        0.524674    1.543619   -0.179131
     10          6           0        2.087629    0.778280   -0.105611
     11          6           0        1.961520   -0.594326    0.062353
     12          6           0        0.623098   -1.051690    0.137365
     13          1           0        0.332879   -2.083829    0.278818
     14         16           0        3.530838   -1.350409    0.159084
     15          6           0        4.315772    0.202971   -0.028876
     16          6           0        3.434064    1.237936   -0.155528
     17          1           0        5.394047    0.247738   -0.037473
     18          1           0        3.736457    2.268500   -0.280369
     19          8           0       -2.335973    2.167563    0.277630
     20          1           0       -3.123109    2.720943    0.283002
 ---------------------------------------------------------------------

 The electronic state is 1-A.
 Alpha  occ. eigenvalues --  -88.88669 -88.87870 -88.87672 -19.17282 -10.25031
 Alpha  occ. eigenvalues --  -10.22226 -10.21648 -10.21566 -10.20577 -10.20460
 Alpha  occ. eigenvalues --  -10.20347 -10.19434 -10.18803 -10.18637  -7.97274
 Alpha  occ. eigenvalues --   -7.96444  -7.96215  -5.93586  -5.93208  -5.92828
 Alpha  occ. eigenvalues --   -5.92758  -5.92543  -5.92394  -5.92171  -5.91990
 Alpha  occ. eigenvalues --   -5.91732  -1.08327  -0.91144  -0.89429  -0.84549
 Alpha  occ. eigenvalues --   -0.77078  -0.76154  -0.74464  -0.70851  -0.70123
 Alpha  occ. eigenvalues --   -0.61982  -0.61294  -0.57238  -0.56127  -0.53099
 Alpha  occ. eigenvalues --   -0.52175  -0.49323  -0.48723  -0.45360  -0.43834
 Alpha  occ. eigenvalues --   -0.43755  -0.41083  -0.40983  -0.39454  -0.38898
 Alpha  occ. eigenvalues --   -0.38222  -0.36822  -0.36496  -0.35476  -0.34127
 Alpha  occ. eigenvalues --   -0.33296  -0.28829  -0.26836  -0.24949  -0.23140
 Alpha  occ. eigenvalues --   -0.19872
 Alpha virt. eigenvalues --   -0.05874  -0.01964  -0.01483  -0.00083   0.00102
 Alpha virt. eigenvalues --    0.00303   0.01520   0.01716   0.02235   0.02826
 Alpha virt. eigenvalues --    0.03119   0.03599   0.04204   0.04626   0.04795

 Mulliken charges:
               1
     1  C   -0.313909
     2  C    0.285068
     3  C    0.570212
     4  C   -0.124319
     5  H    0.118975
     6  S   -0.529714
     7  H    0.163492
     8  C   -0.047876
     9  S   -0.418399
    10  C    0.177663
    11  C    0.377035
    12  C    0.042138
    13  H    0.134079
    14  S   -0.429912
    15  C   -0.144931
    16  C   -0.183989
    17  H    0.165268
    18  H    0.132286
    19  O   -0.235094
    20  H    0.261925
 Sum of Mulliken charges =  -0.00000

 Dipole moment (field-independent basis, Debye):
    X=             -2.4467    Y=              0.9537    Z=              0.0279  Tot=              2.6261
 Quadrupole moment (field-independent basis, Debye-Ang):
   XX=            -78.2140   YY=            -94.5765   ZZ=           -108.9450
   XY=             -1.8170   XZ=             -0.9054   YZ=             -0.3403

 Normal termination of Gaussian 16 at Sun Oct 17 02:06:58 2021.
