 Gaussian 16, Revision C.01,
 Gaussian 16:  ES64L-G16RevC.01  3-Jul-2019

 -------------------------------------
 # opt=modredundant b3lyp/6-311+g(d,p)
 -------------------------------------

 -------------
 pBTTT_145.pdb
 -------------
 Symbolic Z-matrix:
 Charge =  0 Multiplicity = 1

 SCF Done:  E(RB3LYP) =  -1654.53364213     A.U. after   17 cycles
 SCF Done:  E(RB3LYP) =  -1654.58652405     A.U. after   14 cycles
 SCF Done:  E(RB3LYP) =  -1654.61984271     A.U. after   15 cycles
 SCF Done:  E(RB3LYP) =  -1654.62911590     A.U. after   15 cycles
 SCF Done:  E(RB3LYP) =  -1654.63135665     A.U. after   14 cycles
 SCF Done:  E(RB3LYP) =  -1654.63188918     A.U. after   13 cycles
 SCF Done:  E(RB3LYP) =  -1654.63198078     A.U. after   13 cycles
 SCF Done:  E(RB3LYP) =  -1654.63213080     A.U. after   13 cycles
 SCF Done:  E(RB3LYP) =  -1654.63213700     A.U. after   12 cycles
 SCF Done:  E(RB3LYP) =  -1654.63214369     A.U. after   11 cycles
 SCF Done:  E(RB3LYP) =  -1654.63214546     A.U. after   10 cycles
 SCF Done:  E(RB3LYP) =  -1654.63214559     A.U. after    9 cycles
 Optimization completed.
    -- Stationary point found.

                         Standard orientation:
 ---------------------------------------------------------------------
 Center     Atomic      Atomic             Coordinates (Angstroms)
 Number     Number       Type             X           Y           Z
 ---------------------------------------------------------------------
      1          6           0       -3.926600    0.859516    0.167670
      2          6           0       -2.528293    1.126536    0.235060
      3          6           0       -1.734979    0.040532   -0.071945
      4          6           0       -4.194906   -0.430753   -0.186593
      5          1           0       -4.691170    1.597942    0.376897
      6         16           0       -2.750577   -1.336398   -0.467403
      7          1           0       -5.157997   -0.900591   -0.310921
      8          6           0       -0.289818   -0.042624   -0.060560
      9         16           0        0.519576   -1.545365    0.424698
     10          6           0        2.084922   -0.810464    0.212715
     11          6           0        1.953693    0.516555   -0.175655
     12          6           0        0.613958    0.956556   -0.334032
     13          1           0        0.312498    1.949146   -0.633860
     14         16           0        3.521603    1.253098   -0.379288
     15          6           0        4.310085   -0.244878    0.062005
     16          6           0        3.431453   -1.250566    0.347936
     17          1           0        5.388422   -0.283905    0.082795
     18          1           0        3.735933   -2.246012    0.639906
     19          8           0       -1.985170    2.337692    0.564106
     20          1           0       -2.673060    2.918060    0.904605
 ---------------------------------------------------------------------

 The electronic state is 1-A.
 Alpha  occ. eigenvalues --  -88.88622 -88.87996 -88.87886 -19.17096 -10.24937
 Alpha  occ. eigenvalues --  -10.22049 -10.21464 -10.21445 -10.20701 -10.20644
 Alpha  occ. eigenvalues --  -10.20599 -10.19330 -10.18958 -10.18567  -7.97223
 Alpha  occ. eigenvalues --   -7.96571  -7.96467  -5.93528  -5.93153  -5.92882
 Alpha  occ. eigenvalues --   -5.92790  -5.92789  -5.92519  -5.92430  -5.92120
 Alpha  occ. eigenvalues --   -5.91986  -1.08083  -0.91249  -0.89375  -0.84639
 Alpha  occ. eigenvalues --   -0.77073  -0.76170  -0.74367  -0.70969  -0.70089
 Alpha  occ. eigenvalues --   -0.61933  -0.61063  -0.57050  -0.56060  -0.53833
 Alpha  occ. eigenvalues --   -0.51831  -0.49307  -0.48493  -0.45400  -0.43709
 Alpha  occ. eigenvalues --   -0.43551  -0.41237  -0.40819  -0.39796  -0.39049
 Alpha  occ. eigenvalues --   -0.37818  -0.36764  -0.36164  -0.35812  -0.34007
 Alpha  occ. eigenvalues --   -0.33699  -0.28796  -0.26652  -0.24795  -0.23340
 Alpha  occ. eigenvalues --   -0.20243
 Alpha virt. eigenvalues --   -0.05597  -0.02421  -0.01419  -0.00492   0.00322
 Alpha virt. eigenvalues --    0.00504   0.01141   0.01562   0.02132   0.02692
 Alpha virt. eigenvalues --    0.03306   0.03747   0.03965   0.04680   0.04769

 Mulliken charges:
               1
     1  C   -0.188524
     2  C   -0.192948
     3  C    0.530395
     4  C   -0.150635
     5  H    0.120283
     6  S   -0.373518
     7  H    0.163471
     8  C    0.437997
     9  S   -0.527273
    10  C    0.397695
    11  C    0.166463
    12  C   -0.009256
    13  H    0.142630
    14  S   -0.405553
    15  C   -0.134693
    16  C   -0.281133
    17  H    0.166009
    18  H    0.133827
    19  O   -0.250921
    20  H    0.255682
 Sum of Mulliken charges =  -0.00000

 Dipole moment (field-independent basis, Debye):
    X=             -2.0411    Y=              1.0084    Z=              0.5508  Tot=              2.3423
 Quadrupole moment (field-independent basis, Debye-Ang):
   XX=            -79.8913   YY=            -94.9756   ZZ=           -107.2831
   XY=             -9.0143   XZ=             -1.2704   YZ=              0.9732

 Normal termination of Gaussian 16 at Sun Oct 17 02:30:57 2021.
