 Gaussian 16, Revision C.01,
 Gaussian 16:  ES64L-G16RevC.01  3-Jul-2019

 -------------------------------------
 # opt=modredundant b3lyp/6-311+g(d,p)
 -------------------------------------

 ------------
 pBTTT_70.pdb
 ------------
 Symbolic Z-matrix:
 Charge =  0 Multiplicity = 1

 SCF Done:  E(RB3LYP) =  -1654.53072977     A.U. after   17 cycles
 SCF Done:  E(RB3LYP) =  -1654.58376129     A.U. after   14 cycles
 SCF Done:  E(RB3LYP) =  -1654.61750867     A.U. after   15 cycles
 SCF Done:  E(RB3LYP) =  -1654.62670765     A.U. after   15 cycles
 SCF Done:  E(RB3LYP) =  -1654.62894952     A.U. after   14 cycles
 SCF Done:  E(RB3LYP) =  -1654.62955953     A.U. after   13 cycles
 SCF Done:  E(RB3LYP) =  -1654.62972256     A.U. after   13 cycles
 SCF Done:  E(RB3LYP) =  -1654.62987329     A.U. after   13 cycles
 SCF Done:  E(RB3LYP) =  -1654.62988661     A.U. after   12 cycles
 SCF Done:  E(RB3LYP) =  -1654.62989103     A.U. after   11 cycles
 SCF Done:  E(RB3LYP) =  -1654.62989123     A.U. after   11 cycles
 SCF Done:  E(RB3LYP) =  -1654.62989177     A.U. after   10 cycles
 SCF Done:  E(RB3LYP) =  -1654.62989180     A.U. after   10 cycles
 Optimization completed.
    -- Stationary point found.

                         Standard orientation:
 ---------------------------------------------------------------------
 Center     Atomic      Atomic             Coordinates (Angstroms)
 Number     Number       Type             X           Y           Z
 ---------------------------------------------------------------------
      1          6           0        4.009113    0.330410    0.442844
      2          6           0        2.654259    0.749642    0.603681
      3          6           0        1.737983   -0.087990    0.010802
      4          6           0        4.113730   -0.829923   -0.268683
      5          1           0        4.858610    0.867674    0.847099
      6         16           0        2.571381   -1.425288   -0.763379
      7          1           0        5.012211   -1.367192   -0.530592
      8          6           0        0.283155   -0.002543    0.011063
      9         16           0       -0.536173    1.280357   -0.895262
     10          6           0       -2.094980    0.639043   -0.462716
     11          6           0       -1.957395   -0.504521    0.314310
     12          6           0       -0.611762   -0.872500    0.580728
     13          1           0       -0.302652   -1.724062    1.171105
     14         16           0       -3.519909   -1.141991    0.755226
     15          6           0       -4.317291    0.148592   -0.115133
     16          6           0       -3.446675    1.017420   -0.706861
     17          1           0       -5.396019    0.179020   -0.134722
     18          1           0       -3.758480    1.875382   -1.286098
     19          8           0        2.261071    1.865031    1.285337
     20          1           0        3.032157    2.313913    1.644942
 ---------------------------------------------------------------------

 The electronic state is 1-A.
 Alpha  occ. eigenvalues --  -88.88487 -88.88067 -88.87715 -19.16745 -10.24861
 Alpha  occ. eigenvalues --  -10.21900 -10.21376 -10.21043 -10.20719 -10.20705
 Alpha  occ. eigenvalues --  -10.20659 -10.19187 -10.18978 -10.18934  -7.97077
 Alpha  occ. eigenvalues --   -7.96642  -7.96283  -5.93377  -5.93002  -5.92954
 Alpha  occ. eigenvalues --   -5.92656  -5.92601  -5.92590  -5.92236  -5.92190
 Alpha  occ. eigenvalues --   -5.91816  -1.07835  -0.91217  -0.89220  -0.84621
 Alpha  occ. eigenvalues --   -0.76960  -0.76046  -0.74174  -0.70985  -0.70153
 Alpha  occ. eigenvalues --   -0.61745  -0.60850  -0.57165  -0.55866  -0.53642
 Alpha  occ. eigenvalues --   -0.51958  -0.49341  -0.48406  -0.45241  -0.43689
 Alpha  occ. eigenvalues --   -0.43345  -0.41390  -0.40913  -0.39466  -0.38964
 Alpha  occ. eigenvalues --   -0.37734  -0.36906  -0.36072  -0.35706  -0.33819
 Alpha  occ. eigenvalues --   -0.33459  -0.28638  -0.25987  -0.23963  -0.23241
 Alpha  occ. eigenvalues --   -0.21462
 Alpha virt. eigenvalues --   -0.04763  -0.02859  -0.01672  -0.00243   0.00068
 Alpha virt. eigenvalues --    0.00245   0.00793   0.01649   0.02137   0.02817
 Alpha virt. eigenvalues --    0.03121   0.03674   0.03875   0.04333   0.04679

 Mulliken charges:
               1
     1  C   -0.031810
     2  C   -0.497859
     3  C    0.321317
     4  C   -0.242965
     5  H    0.119647
     6  S   -0.152247
     7  H    0.164283
     8  C    0.472332
     9  S   -0.438852
    10  C    0.198450
    11  C   -0.517342
    12  C    0.480202
    13  H    0.136743
    14  S   -0.386831
    15  C   -0.217940
    16  C    0.285012
    17  H    0.166240
    18  H    0.134660
    19  O   -0.246527
    20  H    0.253488
 Sum of Mulliken charges =  -0.00000

 Dipole moment (field-independent basis, Debye):
    X=              2.0473    Y=              0.5917    Z=              0.5731  Tot=              2.2068
 Quadrupole moment (field-independent basis, Debye-Ang):
   XX=            -78.4210   YY=            -99.0115   ZZ=           -104.1733
   XY=              1.1402   XZ=              5.7666   YZ=              0.0712

 Normal termination of Gaussian 16 at Sun Oct 17 02:23:00 2021.
