 Gaussian 16, Revision C.01,
 Gaussian 16:  ES64L-G16RevC.01  3-Jul-2019

 -------------------------------------
 # opt=modredundant b3lyp/6-311+g(d,p)
 -------------------------------------

 -------------
 pBTTT_-70.pdb
 -------------
 Symbolic Z-matrix:
 Charge =  0 Multiplicity = 1

 SCF Done:  E(RB3LYP) =  -1654.53116510     A.U. after   17 cycles
 SCF Done:  E(RB3LYP) =  -1654.58427612     A.U. after   14 cycles
 SCF Done:  E(RB3LYP) =  -1654.61793845     A.U. after   15 cycles
 SCF Done:  E(RB3LYP) =  -1654.62701418     A.U. after   14 cycles
 SCF Done:  E(RB3LYP) =  -1654.62908420     A.U. after   14 cycles
 SCF Done:  E(RB3LYP) =  -1654.62954923     A.U. after   13 cycles
 SCF Done:  E(RB3LYP) =  -1654.62973166     A.U. after   14 cycles
 SCF Done:  E(RB3LYP) =  -1654.62987012     A.U. after   13 cycles
 SCF Done:  E(RB3LYP) =  -1654.62987849     A.U. after   12 cycles
 SCF Done:  E(RB3LYP) =  -1654.62988783     A.U. after   12 cycles
 SCF Done:  E(RB3LYP) =  -1654.62989187     A.U. after   10 cycles
 SCF Done:  E(RB3LYP) =  -1654.62989200     A.U. after    9 cycles
 SCF Done:  E(RB3LYP) =  -1654.62989201     A.U. after    9 cycles
 Optimization completed.
    -- Stationary point found.

                         Standard orientation:
 ---------------------------------------------------------------------
 Center     Atomic      Atomic             Coordinates (Angstroms)
 Number     Number       Type             X           Y           Z
 ---------------------------------------------------------------------
      1          6           0       -4.009036    0.330681    0.442977
      2          6           0       -2.654091    0.749629    0.603847
      3          6           0       -1.737990   -0.088021    0.010725
      4          6           0       -4.113896   -0.829542   -0.268689
      5          1           0       -4.858404    0.868113    0.847274
      6         16           0       -2.571613   -1.425345   -0.763149
      7          1           0       -5.012439   -1.366660   -0.530685
      8          6           0       -0.283136   -0.002716    0.010793
      9         16           0        0.536148    1.280233   -0.895393
     10          6           0        2.094979    0.639051   -0.462700
     11          6           0        1.957401   -0.504694    0.314102
     12          6           0        0.611778   -0.872923    0.580142
     13          1           0        0.302608   -1.724659    1.170236
     14         16           0        3.519939   -1.141849    0.755398
     15          6           0        4.317293    0.148452   -0.115387
     16          6           0        3.446640    1.017675   -0.706514
     17          1           0        5.396023    0.178920   -0.134817
     18          1           0        3.758428    1.875748   -1.285597
     19          8           0       -2.260721    1.865037    1.285389
     20          1           0       -3.031696    2.314070    1.645013
 ---------------------------------------------------------------------

 The electronic state is 1-A.
 Alpha  occ. eigenvalues --  -88.88487 -88.88067 -88.87715 -19.16745 -10.24861
 Alpha  occ. eigenvalues --  -10.21900 -10.21377 -10.21044 -10.20719 -10.20704
 Alpha  occ. eigenvalues --  -10.20660 -10.19187 -10.18978 -10.18934  -7.97077
 Alpha  occ. eigenvalues --   -7.96642  -7.96283  -5.93377  -5.93002  -5.92954
 Alpha  occ. eigenvalues --   -5.92656  -5.92601  -5.92590  -5.92236  -5.92190
 Alpha  occ. eigenvalues --   -5.91816  -1.07835  -0.91217  -0.89220  -0.84621
 Alpha  occ. eigenvalues --   -0.76960  -0.76046  -0.74174  -0.70986  -0.70153
 Alpha  occ. eigenvalues --   -0.61745  -0.60850  -0.57165  -0.55866  -0.53642
 Alpha  occ. eigenvalues --   -0.51958  -0.49341  -0.48406  -0.45241  -0.43689
 Alpha  occ. eigenvalues --   -0.43344  -0.41391  -0.40913  -0.39467  -0.38964
 Alpha  occ. eigenvalues --   -0.37734  -0.36906  -0.36073  -0.35706  -0.33819
 Alpha  occ. eigenvalues --   -0.33460  -0.28638  -0.25987  -0.23964  -0.23242
 Alpha  occ. eigenvalues --   -0.21460
 Alpha virt. eigenvalues --   -0.04763  -0.02859  -0.01672  -0.00244   0.00068
 Alpha virt. eigenvalues --    0.00246   0.00793   0.01650   0.02137   0.02819
 Alpha virt. eigenvalues --    0.03121   0.03674   0.03875   0.04334   0.04679

 Mulliken charges:
               1
     1  C   -0.031931
     2  C   -0.497496
     3  C    0.320812
     4  C   -0.243055
     5  H    0.119648
     6  S   -0.152216
     7  H    0.164288
     8  C    0.472652
     9  S   -0.438726
    10  C    0.198573
    11  C   -0.517757
    12  C    0.480531
    13  H    0.136747
    14  S   -0.386798
    15  C   -0.217882
    16  C    0.284754
    17  H    0.166246
    18  H    0.134660
    19  O   -0.246543
    20  H    0.253495
 Sum of Mulliken charges =  -0.00000

 Dipole moment (field-independent basis, Debye):
    X=             -2.0473    Y=              0.5925    Z=              0.5735  Tot=              2.2071
 Quadrupole moment (field-independent basis, Debye-Ang):
   XX=            -78.4232   YY=            -99.0092   ZZ=           -104.1742
   XY=             -1.1403   XZ=             -5.7642   YZ=              0.0721

 Normal termination of Gaussian 16 at Sun Oct 17 01:58:58 2021.
