 Gaussian 16, Revision C.01,
 Gaussian 16:  ES64L-G16RevC.01  3-Jul-2019

 -------------------------------------
 # opt=modredundant b3lyp/6-311+g(d,p)
 -------------------------------------

 ------------
 pBTTT_20.pdb
 ------------
 Symbolic Z-matrix:
 Charge =  0 Multiplicity = 1

 SCF Done:  E(RB3LYP) =  -1654.53538336     A.U. after   17 cycles
 SCF Done:  E(RB3LYP) =  -1654.58776252     A.U. after   15 cycles
 SCF Done:  E(RB3LYP) =  -1654.62014444     A.U. after   16 cycles
 SCF Done:  E(RB3LYP) =  -1654.62930043     A.U. after   15 cycles
 SCF Done:  E(RB3LYP) =  -1654.63149599     A.U. after   14 cycles
 SCF Done:  E(RB3LYP) =  -1654.63210765     A.U. after   13 cycles
 SCF Done:  E(RB3LYP) =  -1654.63224719     A.U. after   13 cycles
 SCF Done:  E(RB3LYP) =  -1654.63240138     A.U. after   12 cycles
 SCF Done:  E(RB3LYP) =  -1654.63240843     A.U. after   12 cycles
 SCF Done:  E(RB3LYP) =  -1654.63241426     A.U. after   11 cycles
 SCF Done:  E(RB3LYP) =  -1654.63241663     A.U. after   10 cycles
 SCF Done:  E(RB3LYP) =  -1654.63241673     A.U. after    9 cycles
 SCF Done:  E(RB3LYP) =  -1654.63241675     A.U. after    9 cycles
 Optimization completed.
    -- Stationary point found.

                         Standard orientation:
 ---------------------------------------------------------------------
 Center     Atomic      Atomic             Coordinates (Angstroms)
 Number     Number       Type             X           Y           Z
 ---------------------------------------------------------------------
      1          6           0       -4.027628    0.368771   -0.124829
      2          6           0       -2.687705    0.851893   -0.168735
      3          6           0       -1.728550   -0.126007   -0.003661
      4          6           0       -4.088772   -0.978468    0.077864
      5          1           0       -4.899269    1.001006   -0.243073
      6         16           0       -2.515700   -1.679885    0.229229
      7          1           0       -4.965626   -1.602391    0.152537
      8          6           0       -0.286326   -0.019525   -0.022507
      9         16           0        0.525299    1.536258    0.239266
     10          6           0        2.087896    0.773624    0.138258
     11          6           0        1.960848   -0.591369   -0.083299
     12          6           0        0.621952   -1.044273   -0.179221
     13          1           0        0.330028   -2.069067   -0.363793
     14         16           0        3.529623   -1.343700   -0.211409
     15          6           0        4.315546    0.200582    0.036492
     16          6           0        3.434683    1.230448    0.203594
     17          1           0        5.393853    0.244334    0.046535
     18          1           0        3.737776    2.255188    0.368195
     19          8           0       -2.338509    2.158533   -0.362686
     20          1           0       -3.127923    2.705846   -0.416013
 ---------------------------------------------------------------------

 The electronic state is 1-A.
 Alpha  occ. eigenvalues --  -88.88662 -88.87886 -88.87675 -19.17235 -10.25016
 Alpha  occ. eigenvalues --  -10.22210 -10.21609 -10.21546 -10.20589 -10.20478
 Alpha  occ. eigenvalues --  -10.20381 -10.19418 -10.18818 -10.18655  -7.97266
 Alpha  occ. eigenvalues --   -7.96461  -7.96221  -5.93577  -5.93199  -5.92822
 Alpha  occ. eigenvalues --   -5.92774  -5.92549  -5.92411  -5.92177  -5.92007
 Alpha  occ. eigenvalues --   -5.91739  -1.08281  -0.91156  -0.89421  -0.84560
 Alpha  occ. eigenvalues --   -0.77074  -0.76152  -0.74449  -0.70863  -0.70126
 Alpha  occ. eigenvalues --   -0.61970  -0.61263  -0.57232  -0.56112  -0.53133
 Alpha  occ. eigenvalues --   -0.52161  -0.49310  -0.48710  -0.45350  -0.43811
 Alpha  occ. eigenvalues --   -0.43740  -0.41126  -0.40955  -0.39457  -0.38900
 Alpha  occ. eigenvalues --   -0.38180  -0.36844  -0.36457  -0.35513  -0.34085
 Alpha  occ. eigenvalues --   -0.33351  -0.28811  -0.26806  -0.24918  -0.23142
 Alpha  occ. eigenvalues --   -0.19933
 Alpha virt. eigenvalues --   -0.05834  -0.01946  -0.01525  -0.00088   0.00090
 Alpha virt. eigenvalues --    0.00296   0.01437   0.01717   0.02262   0.02824
 Alpha virt. eigenvalues --    0.03121   0.03626   0.04192   0.04578   0.04754

 Mulliken charges:
               1
     1  C   -0.276540
     2  C    0.169410
     3  C    0.580958
     4  C   -0.113773
     5  H    0.118939
     6  S   -0.504333
     7  H    0.163524
     8  C    0.010397
     9  S   -0.416048
    10  C    0.243149
    11  C    0.323885
    12  C    0.014115
    13  H    0.134976
    14  S   -0.426690
    15  C   -0.139649
    16  C   -0.204607
    17  H    0.165319
    18  H    0.132655
    19  O   -0.236294
    20  H    0.260607
 Sum of Mulliken charges =  -0.00000

 Dipole moment (field-independent basis, Debye):
    X=             -2.4160    Y=              0.9299    Z=             -0.1081  Tot=              2.5911
 Quadrupole moment (field-independent basis, Debye-Ang):
   XX=            -78.1942   YY=            -94.7718   ZZ=           -108.7583
   XY=             -1.7611   XZ=              1.4494   YZ=              0.2082

 Normal termination of Gaussian 16 at Sun Oct 17 02:15:57 2021.
