 Gaussian 16, Revision C.01,
 Gaussian 16:  ES64L-G16RevC.01  3-Jul-2019

 -------------------------------------
 # opt=modredundant b3lyp/6-311+g(d,p)
 -------------------------------------

 -------------
 pBTTT_130.pdb
 -------------
 Symbolic Z-matrix:
 Charge =  0 Multiplicity = 1

 SCF Done:  E(RB3LYP) =  -1654.53239591     A.U. after   16 cycles
 SCF Done:  E(RB3LYP) =  -1654.58542896     A.U. after   14 cycles
 SCF Done:  E(RB3LYP) =  -1654.61886561     A.U. after   15 cycles
 SCF Done:  E(RB3LYP) =  -1654.62814186     A.U. after   14 cycles
 SCF Done:  E(RB3LYP) =  -1654.63039616     A.U. after   14 cycles
 SCF Done:  E(RB3LYP) =  -1654.63099880     A.U. after   14 cycles
 SCF Done:  E(RB3LYP) =  -1654.63103752     A.U. after   13 cycles
 SCF Done:  E(RB3LYP) =  -1654.63118452     A.U. after   12 cycles
 SCF Done:  E(RB3LYP) =  -1654.63119219     A.U. after   11 cycles
 SCF Done:  E(RB3LYP) =  -1654.63119615     A.U. after   11 cycles
 SCF Done:  E(RB3LYP) =  -1654.63119809     A.U. after   10 cycles
 SCF Done:  E(RB3LYP) =  -1654.63119831     A.U. after    9 cycles
 Optimization completed.
    -- Stationary point found.

                         Standard orientation:
 ---------------------------------------------------------------------
 Center     Atomic      Atomic             Coordinates (Angstroms)
 Number     Number       Type             X           Y           Z
 ---------------------------------------------------------------------
      1          6           0       -3.926229    0.827999    0.234412
      2          6           0       -2.526679    1.085838    0.330091
      3          6           0       -1.736253    0.044505   -0.105122
      4          6           0       -4.194467   -0.414201   -0.263074
      5          1           0       -4.690858    1.537086    0.527951
      6         16           0       -2.751630   -1.282814   -0.645310
      7          1           0       -5.158670   -0.865593   -0.438050
      8          6           0       -0.288424   -0.047051   -0.091255
      9         16           0        0.513330   -1.478186    0.585301
     10          6           0        2.081313   -0.775787    0.300124
     11          6           0        1.956759    0.493470   -0.250393
     12          6           0        0.618123    0.909191   -0.475524
     13          1           0        0.320660    1.857687   -0.898760
     14         16           0        3.527514    1.197281   -0.531863
     15          6           0        4.309084   -0.235973    0.096303
     16          6           0        3.426674   -1.197807    0.497042
     17          1           0        5.387172   -0.273072    0.130771
     18          1           0        3.727033   -2.150060    0.911596
     19          8           0       -1.982624    2.248228    0.799818
     20          1           0       -2.671177    2.786521    1.202266
 ---------------------------------------------------------------------

 The electronic state is 1-A.
 Alpha  occ. eigenvalues --  -88.88553 -88.88026 -88.87862 -19.16912 -10.24916
 Alpha  occ. eigenvalues --  -10.21941 -10.21427 -10.21287 -10.20716 -10.20660
 Alpha  occ. eigenvalues --  -10.20641 -10.19271 -10.18973 -10.18697  -7.97151
 Alpha  occ. eigenvalues --   -7.96600  -7.96438  -5.93453  -5.93079  -5.92912
 Alpha  occ. eigenvalues --   -5.92758  -5.92725  -5.92548  -5.92398  -5.92150
 Alpha  occ. eigenvalues --   -5.91964  -1.07942  -0.91236  -0.89309  -0.84632
 Alpha  occ. eigenvalues --   -0.77032  -0.76122  -0.74284  -0.70980  -0.70098
 Alpha  occ. eigenvalues --   -0.61854  -0.60943  -0.57078  -0.55945  -0.53870
 Alpha  occ. eigenvalues --   -0.51821  -0.49278  -0.48484  -0.45372  -0.43656
 Alpha  occ. eigenvalues --   -0.43448  -0.41266  -0.40854  -0.39684  -0.39008
 Alpha  occ. eigenvalues --   -0.37815  -0.36759  -0.35993  -0.35866  -0.33920
 Alpha  occ. eigenvalues --   -0.33661  -0.28719  -0.26366  -0.24600  -0.23305
 Alpha  occ. eigenvalues --   -0.20654
 Alpha virt. eigenvalues --   -0.05273  -0.02595  -0.01541  -0.00257   0.00237
 Alpha virt. eigenvalues --    0.00454   0.01008   0.01634   0.02097   0.02728
 Alpha virt. eigenvalues --    0.03155   0.03788   0.03830   0.04673   0.04701

 Mulliken charges:
               1
     1  C   -0.166572
     2  C   -0.319244
     3  C    0.548051
     4  C   -0.176359
     5  H    0.120518
     6  S   -0.305044
     7  H    0.164031
     8  C    0.544784
     9  S   -0.475882
    10  C    0.352542
    11  C    0.160559
    12  C   -0.059437
    13  H    0.137236
    14  S   -0.401978
    15  C   -0.132177
    16  C   -0.298804
    17  H    0.166048
    18  H    0.134345
    19  O   -0.245450
    20  H    0.252832
 Sum of Mulliken charges =  -0.00000

 Dipole moment (field-independent basis, Debye):
    X=             -1.9836    Y=              0.9317    Z=              0.6646  Tot=              2.2901
 Quadrupole moment (field-independent basis, Debye-Ang):
   XX=            -79.9285   YY=            -96.3174   ZZ=           -105.9278
   XY=             -8.4993   XZ=             -1.4251   YZ=              0.8183

 Normal termination of Gaussian 16 at Sun Oct 17 02:28:34 2021.
