 Gaussian 16, Revision C.01,
 Gaussian 16:  ES64L-G16RevC.01  3-Jul-2019

 -------------------------------------
 # opt=modredundant b3lyp/6-311+g(d,p)
 -------------------------------------

 -------------
 pBTTT_110.pdb
 -------------
 Symbolic Z-matrix:
 Charge =  0 Multiplicity = 1

 SCF Done:  E(RB3LYP) =  -1654.53071304     A.U. after   17 cycles
 SCF Done:  E(RB3LYP) =  -1654.58390853     A.U. after   14 cycles
 SCF Done:  E(RB3LYP) =  -1654.61764955     A.U. after   15 cycles
 SCF Done:  E(RB3LYP) =  -1654.62682134     A.U. after   14 cycles
 SCF Done:  E(RB3LYP) =  -1654.62900353     A.U. after   15 cycles
 SCF Done:  E(RB3LYP) =  -1654.62957087     A.U. after   14 cycles
 SCF Done:  E(RB3LYP) =  -1654.62968084     A.U. after   14 cycles
 SCF Done:  E(RB3LYP) =  -1654.62981891     A.U. after   13 cycles
 SCF Done:  E(RB3LYP) =  -1654.62982824     A.U. after   12 cycles
 SCF Done:  E(RB3LYP) =  -1654.62983259     A.U. after   12 cycles
 SCF Done:  E(RB3LYP) =  -1654.62983531     A.U. after   11 cycles
 SCF Done:  E(RB3LYP) =  -1654.62983546     A.U. after   10 cycles
 SCF Done:  E(RB3LYP) =  -1654.62983550     A.U. after   10 cycles
 Optimization completed.
    -- Stationary point found.

                         Standard orientation:
 ---------------------------------------------------------------------
 Center     Atomic      Atomic             Coordinates (Angstroms)
 Number     Number       Type             X           Y           Z
 ---------------------------------------------------------------------
      1          6           0       -3.939588    0.755913    0.289385
      2          6           0       -2.542572    0.991655    0.465482
      3          6           0       -1.739204    0.039405   -0.118095
      4          6           0       -4.189080   -0.384685   -0.417263
      5          1           0       -4.714640    1.406382    0.676476
      6         16           0       -2.734791   -1.182813   -0.893262
      7          1           0       -5.147587   -0.797316   -0.691965
      8          6           0       -0.285433   -0.047994   -0.090462
      9         16           0        0.515246   -1.331583    0.835771
     10          6           0        2.083121   -0.696024    0.426659
     11          6           0        1.960731    0.446072   -0.354868
     12          6           0        0.620956    0.814062   -0.650338
     13          1           0        0.323229    1.666367   -1.244749
     14         16           0        3.531867    1.082468   -0.765005
     15          6           0        4.311628   -0.205690    0.124324
     16          6           0        3.429183   -1.073530    0.700049
     17          1           0        5.389747   -0.236514    0.165116
     18          1           0        3.729084   -1.929842    1.287936
     19          8           0       -2.014282    2.052300    1.143757
     20          1           0       -2.721173    2.548267    1.567821
 ---------------------------------------------------------------------

 The electronic state is 1-A.
 Alpha  occ. eigenvalues --  -88.88447 -88.88069 -88.87801 -19.16752 -10.24884
 Alpha  occ. eigenvalues --  -10.21824 -10.21395 -10.21044 -10.20744 -10.20707
 Alpha  occ. eigenvalues --  -10.20671 -10.19183 -10.18996 -10.18861  -7.97041
 Alpha  occ. eigenvalues --   -7.96643  -7.96373  -5.93340  -5.92966  -5.92955
 Alpha  occ. eigenvalues --   -5.92689  -5.92621  -5.92591  -5.92327  -5.92193
 Alpha  occ. eigenvalues --   -5.91907  -1.07829  -0.91219  -0.89209  -0.84619
 Alpha  occ. eigenvalues --   -0.76970  -0.76049  -0.74167  -0.70993  -0.70120
 Alpha  occ. eigenvalues --   -0.61745  -0.60824  -0.57117  -0.55815  -0.53888
 Alpha  occ. eigenvalues --   -0.51834  -0.49317  -0.48404  -0.45313  -0.43620
 Alpha  occ. eigenvalues --   -0.43310  -0.41319  -0.40903  -0.39541  -0.39010
 Alpha  occ. eigenvalues --   -0.37780  -0.36790  -0.36021  -0.35711  -0.33892
 Alpha  occ. eigenvalues --   -0.33479  -0.28653  -0.25954  -0.24083  -0.23197
 Alpha  occ. eigenvalues --   -0.21468
 Alpha virt. eigenvalues --   -0.04707  -0.03070  -0.01626  -0.00105   0.00145
 Alpha virt. eigenvalues --    0.00381   0.00825   0.01679   0.02056   0.02810
 Alpha virt. eigenvalues --    0.02999   0.03674   0.03853   0.04445   0.04710

 Mulliken charges:
               1
     1  C   -0.146308
     2  C   -0.289007
     3  C    0.319510
     4  C   -0.173919
     5  H    0.120358
     6  S   -0.199160
     7  H    0.163986
     8  C    0.126357
     9  S   -0.535359
    10  C    0.102686
    11  C   -0.320314
    12  C    0.623719
    13  H    0.130761
    14  S   -0.389200
    15  C   -0.217239
    16  C    0.355255
    17  H    0.166239
    18  H    0.134208
    19  O   -0.226222
    20  H    0.253651
 Sum of Mulliken charges =  -0.00000

 Dipole moment (field-independent basis, Debye):
    X=             -1.9281    Y=              0.8546    Z=              0.6643  Tot=              2.2112
 Quadrupole moment (field-independent basis, Debye-Ang):
   XX=            -79.6391   YY=            -98.5043   ZZ=           -103.8247
   XY=             -7.8691   XZ=             -1.2687   YZ=              0.4430

 Normal termination of Gaussian 16 at Sun Oct 17 02:33:52 2021.
