 Gaussian 16, Revision C.01,
 Gaussian 16:  ES64L-G16RevC.01  3-Jul-2019

 -------------------------------------
 # opt=modredundant b3lyp/6-311+g(d,p)
 -------------------------------------

 -------------
 pBTTT_-50.pdb
 -------------
 Symbolic Z-matrix:
 Charge =  0 Multiplicity = 1

 SCF Done:  E(RB3LYP) =  -1654.53345237     A.U. after   17 cycles
 SCF Done:  E(RB3LYP) =  -1654.58627114     A.U. after   14 cycles
 SCF Done:  E(RB3LYP) =  -1654.61926896     A.U. after   15 cycles
 SCF Done:  E(RB3LYP) =  -1654.62839888     A.U. after   15 cycles
 SCF Done:  E(RB3LYP) =  -1654.63044891     A.U. after   14 cycles
 SCF Done:  E(RB3LYP) =  -1654.63091419     A.U. after   13 cycles
 SCF Done:  E(RB3LYP) =  -1654.63101207     A.U. after   13 cycles
 SCF Done:  E(RB3LYP) =  -1654.63115202     A.U. after   13 cycles
 SCF Done:  E(RB3LYP) =  -1654.63116127     A.U. after   12 cycles
 SCF Done:  E(RB3LYP) =  -1654.63116811     A.U. after   11 cycles
 SCF Done:  E(RB3LYP) =  -1654.63117141     A.U. after   10 cycles
 SCF Done:  E(RB3LYP) =  -1654.63117153     A.U. after    9 cycles
 Optimization completed.
    -- Stationary point found.

                         Standard orientation:
 ---------------------------------------------------------------------
 Center     Atomic      Atomic             Coordinates (Angstroms)
 Number     Number       Type             X           Y           Z
 ---------------------------------------------------------------------
      1          6           0       -4.023072    0.333474    0.309256
      2          6           0       -2.682780    0.807386    0.420571
      3          6           0       -1.733283   -0.097689   -0.000871
      4          6           0       -4.088173   -0.934599   -0.191932
      5          1           0       -4.892223    0.912068    0.598240
      6         16           0       -2.522000   -1.565324   -0.553535
      7          1           0       -4.968060   -1.531406   -0.375728
      8          6           0       -0.285092    0.001873    0.024066
      9         16           0        0.534125    1.433650   -0.621242
     10          6           0        2.093017    0.716953   -0.326463
     11          6           0        1.956290   -0.554204    0.216970
     12          6           0        0.612312   -0.963035    0.416897
     13          1           0        0.306562   -1.908904    0.842474
     14         16           0        3.519598   -1.261512    0.530405
     15          6           0        4.315973    0.173182   -0.076451
     16          6           0        3.443557    1.138119   -0.490597
     17          1           0        5.394626    0.207322   -0.090942
     18          1           0        3.754078    2.091689   -0.894561
     19          8           0       -2.329743    2.034581    0.905352
     20          1           0       -3.117118    2.514793    1.178990
 ---------------------------------------------------------------------

 The electronic state is 1-A.
 Alpha  occ. eigenvalues --  -88.88583 -88.88010 -88.87705 -19.16884 -10.24902
 Alpha  occ. eigenvalues --  -10.22048 -10.21418 -10.21277 -10.20673 -10.20626
 Alpha  occ. eigenvalues --  -10.20598 -10.19276 -10.18929 -10.18827  -7.97177
 Alpha  occ. eigenvalues --   -7.96585  -7.96269  -5.93480  -5.93104  -5.92898
 Alpha  occ. eigenvalues --   -5.92748  -5.92592  -5.92534  -5.92224  -5.92133
 Alpha  occ. eigenvalues --   -5.91794  -1.07958  -0.91216  -0.89316  -0.84619
 Alpha  occ. eigenvalues --   -0.77018  -0.76102  -0.74290  -0.70948  -0.70148
 Alpha  occ. eigenvalues --   -0.61845  -0.60993  -0.57192  -0.55973  -0.53430
 Alpha  occ. eigenvalues --   -0.52045  -0.49305  -0.48535  -0.45272  -0.43738
 Alpha  occ. eigenvalues --   -0.43503  -0.41329  -0.40902  -0.39467  -0.38931
 Alpha  occ. eigenvalues --   -0.37847  -0.36927  -0.36161  -0.35722  -0.33768
 Alpha  occ. eigenvalues --   -0.33641  -0.28682  -0.26393  -0.24552  -0.23191
 Alpha  occ. eigenvalues --   -0.20646
 Alpha virt. eigenvalues --   -0.05334  -0.02184  -0.01712  -0.00189   0.00019
 Alpha virt. eigenvalues --    0.00246   0.00975   0.01679   0.02236   0.02799
 Alpha virt. eigenvalues --    0.03149   0.03755   0.04057   0.04282   0.04692

 Mulliken charges:
               1
     1  C   -0.144929
     2  C   -0.457876
     3  C    0.632867
     4  C   -0.144503
     5  H    0.119346
     6  S   -0.314622
     7  H    0.164219
     8  C    0.747452
     9  S   -0.354237
    10  C    0.404209
    11  C    0.011313
    12  C   -0.303117
    13  H    0.139381
    14  S   -0.405837
    15  C   -0.143406
    16  C   -0.262325
    17  H    0.165817
    18  H    0.134658
    19  O   -0.241124
    20  H    0.252715
 Sum of Mulliken charges =  -0.00000

 Dipole moment (field-independent basis, Debye):
    X=             -2.1742    Y=              0.6990    Z=              0.4437  Tot=              2.3265
 Quadrupole moment (field-independent basis, Debye-Ang):
   XX=            -78.2345   YY=            -96.9447   ZZ=           -106.5175
   XY=             -1.2164   XZ=             -4.2791   YZ=              0.1088

 Normal termination of Gaussian 16 at Sun Oct 17 01:58:18 2021.
