 Gaussian 16, Revision C.01,
 Gaussian 16:  ES64L-G16RevC.01  3-Jul-2019

 ---------------------------------
 # opt=modredundant hf/aug-cc-pvdz
 ---------------------------------

 ---------------
 pg2T_TT_-55.pdb
 ---------------
 Symbolic Z-matrix:
 Charge =  0 Multiplicity = 1

 SCF Done:  E(RHF) =  -1649.42173881     A.U. after   18 cycles
 SCF Done:  E(RHF) =  -1649.50356073     A.U. after   15 cycles
 SCF Done:  E(RHF) =  -1649.60809174     A.U. after   15 cycles
 SCF Done:  E(RHF) =  -1649.62559950     A.U. after   16 cycles
 SCF Done:  E(RHF) =  -1649.63885899     A.U. after   15 cycles
 SCF Done:  E(RHF) =  -1649.64027245     A.U. after   15 cycles
 SCF Done:  E(RHF) =  -1649.64288345     A.U. after   14 cycles
 SCF Done:  E(RHF) =  -1649.64252925     A.U. after   15 cycles
 SCF Done:  E(RHF) =  -1649.64325838     A.U. after   14 cycles
 SCF Done:  E(RHF) =  -1649.64326022     A.U. after   13 cycles
 SCF Done:  E(RHF) =  -1649.64331066     A.U. after   12 cycles
 SCF Done:  E(RHF) =  -1649.64332052     A.U. after   11 cycles
 SCF Done:  E(RHF) =  -1649.64332097     A.U. after   10 cycles
 SCF Done:  E(RHF) =  -1649.64332159     A.U. after    9 cycles
 SCF Done:  E(RHF) =  -1649.64332158     A.U. after    9 cycles
 Optimization completed.
    -- Stationary point found.

                         Standard orientation:
 ---------------------------------------------------------------------
 Center     Atomic      Atomic             Coordinates (Angstroms)
 Number     Number       Type             X           Y           Z
 ---------------------------------------------------------------------
      1          6           0       -3.817485    0.343690    0.370918
      2          6           0       -2.457869    0.769023    0.555965
      3          6           0       -1.565382   -0.079286   -0.006260
      4          6           0       -3.925659   -0.812376   -0.314507
      5         16           0       -2.365127   -1.414625   -0.771717
      6          1           0       -4.827898   -1.335047   -0.577446
      7          6           0       -0.098850    0.017306    0.009958
      8         16           0        0.692097    1.475787   -0.568875
      9          6           0        2.253349    0.786015   -0.248329
     10          6           0        2.138013   -0.480711    0.245587
     11          6           0        0.785935   -0.930909    0.394037
     12          1           0        0.492023   -1.894317    0.777116
     13         16           0        3.698923   -1.172529    0.565516
     14          6           0        4.477758    0.287784    0.015499
     15          6           0        3.608177    1.238847   -0.384497
     16          1           0        5.552714    0.350787    0.021054
     17          1           0        3.903968    2.206071   -0.756583
     18          1           0       -2.172989    1.657647    1.099723
     19          8           0       -4.890379    1.017512    0.843344
     20          1           0       -4.626994    1.820337    1.260380
 ---------------------------------------------------------------------

 The electronic state is 1-A.
 Alpha  occ. eigenvalues --  -91.99585 -91.99395 -91.98994 -20.60718 -11.31376
 Alpha  occ. eigenvalues --  -11.29474 -11.29392 -11.28149 -11.27758 -11.27607
 Alpha  occ. eigenvalues --  -11.26300 -11.26155 -11.25617 -11.25434  -8.99748
 Alpha  occ. eigenvalues --   -8.99578  -8.99183  -6.67911  -6.67831  -6.67744
 Alpha  occ. eigenvalues --   -6.67666  -6.67621  -6.67459  -6.67351  -6.67261
 Alpha  occ. eigenvalues --   -6.67061  -1.42593  -1.22254  -1.18675  -1.13247
 Alpha  occ. eigenvalues --   -1.03064  -1.02748  -0.99182  -0.96013  -0.95068
 Alpha  occ. eigenvalues --   -0.84212  -0.78553  -0.77956  -0.75018  -0.72800
 Alpha  occ. eigenvalues --   -0.71836  -0.67502  -0.66186  -0.61129  -0.60639
 Alpha  occ. eigenvalues --   -0.58503  -0.57488  -0.56777  -0.54778  -0.54077
 Alpha  occ. eigenvalues --   -0.52708  -0.51159  -0.49871  -0.48387  -0.46847
 Alpha  occ. eigenvalues --   -0.46640  -0.39398  -0.35490  -0.33145  -0.32581
 Alpha  occ. eigenvalues --   -0.29573
 Alpha virt. eigenvalues --    0.03119   0.03374   0.04390   0.04736   0.04893
 Alpha virt. eigenvalues --    0.06409   0.06855   0.08229   0.08315   0.08979
 Alpha virt. eigenvalues --    0.09668   0.10288   0.10512   0.10838   0.11526

 Mulliken charges:
               1
     1  C    0.498542
     2  C    0.228271
     3  C    0.483185
     4  C    0.092104
     5  S    0.427573
     6  H   -0.354467
     7  C    0.364397
     8  S    0.398596
     9  C   -0.717962
    10  C   -0.226227
    11  C    0.188463
    12  H   -0.460749
    13  S    0.616429
    14  C   -0.097792
    15  C    0.529694
    16  H   -0.376009
    17  H   -0.318626
    18  H   -0.561354
    19  O   -0.846989
    20  H    0.132921
 Sum of Mulliken charges =  -0.00000

 Dipole moment (field-independent basis, Debye):
    X=              1.1029    Y=              1.5980    Z=              0.8898  Tot=              2.1359
 Quadrupole moment (field-independent basis, Debye-Ang):
   XX=            -96.5166   YY=            -96.2398   ZZ=           -106.7816
   XY=              0.5466   XZ=             -3.2071   YZ=              1.8516

 Normal termination of Gaussian 16 at Wed Oct 27 02:51:12 2021.
