 Gaussian 16, Revision C.01,
 Gaussian 16:  ES64L-G16RevC.01  3-Jul-2019

 ---------------------------------
 # opt=modredundant hf/aug-cc-pvdz
 ---------------------------------

 ---------------
 pg2T_TT_165.pdb
 ---------------
 Symbolic Z-matrix:
 Charge =  0 Multiplicity = 1

 SCF Done:  E(RHF) =  -1649.42141796     A.U. after   18 cycles
 SCF Done:  E(RHF) =  -1649.50288341     A.U. after   16 cycles
 SCF Done:  E(RHF) =  -1649.60699793     A.U. after   16 cycles
 SCF Done:  E(RHF) =  -1649.62414344     A.U. after   16 cycles
 SCF Done:  E(RHF) =  -1649.63703147     A.U. after   15 cycles
 SCF Done:  E(RHF) =  -1649.63847272     A.U. after   15 cycles
 SCF Done:  E(RHF) =  -1649.64109068     A.U. after   15 cycles
 SCF Done:  E(RHF) =  -1649.64087636     A.U. after   15 cycles
 SCF Done:  E(RHF) =  -1649.64147354     A.U. after   13 cycles
 SCF Done:  E(RHF) =  -1649.64150541     A.U. after   13 cycles
 SCF Done:  E(RHF) =  -1649.64152316     A.U. after   12 cycles
 SCF Done:  E(RHF) =  -1649.64153396     A.U. after   12 cycles
 SCF Done:  E(RHF) =  -1649.64153455     A.U. after   10 cycles
 Optimization completed.
    -- Stationary point found.

                         Standard orientation:
 ---------------------------------------------------------------------
 Center     Atomic      Atomic             Coordinates (Angstroms)
 Number     Number       Type             X           Y           Z
 ---------------------------------------------------------------------
      1          6           0        3.761827    0.768517   -0.066041
      2          6           0        2.367658    1.085297   -0.179677
      3          6           0        1.566378    0.001021   -0.027603
      4          6           0        3.995550   -0.538557    0.167056
      5         16           0        2.510305   -1.425809    0.271887
      6          1           0        4.946524   -1.026714    0.281198
      7          6           0        0.099912   -0.024408   -0.043872
      8         16           0       -0.780639   -1.536129   -0.222695
      9          6           0       -2.296811   -0.700712   -0.106628
     10          6           0       -2.107707    0.640820    0.053160
     11          6           0       -0.733954    1.035030    0.099546
     12          1           0       -0.395131    2.045960    0.252727
     13         16           0       -3.626254    1.476965    0.169786
     14          6           0       -4.488336   -0.029619   -0.006191
     15          6           0       -3.674732   -1.097451   -0.143055
     16          1           0       -5.565061   -0.029429    0.003416
     17          1           0       -4.025497   -2.109399   -0.262739
     18          1           0        2.000941    2.078563   -0.388443
     19          8           0        4.754641    1.678550   -0.186140
     20          1           0        4.407802    2.532576   -0.380857
 ---------------------------------------------------------------------

 The electronic state is 1-A.
 Alpha  occ. eigenvalues --  -91.99563 -91.99480 -91.98978 -20.60781 -11.31435
 Alpha  occ. eigenvalues --  -11.29745 -11.29662 -11.28199 -11.27842 -11.27698
 Alpha  occ. eigenvalues --  -11.26406 -11.26218 -11.25607 -11.25370  -8.99754
 Alpha  occ. eigenvalues --   -8.99662  -8.99196  -6.67920  -6.67841  -6.67829
 Alpha  occ. eigenvalues --   -6.67751  -6.67628  -6.67544  -6.67368  -6.67277
 Alpha  occ. eigenvalues --   -6.67075  -1.42658  -1.22372  -1.18737  -1.13312
 Alpha  occ. eigenvalues --   -1.03390  -1.02732  -0.99198  -0.96201  -0.95001
 Alpha  occ. eigenvalues --   -0.84412  -0.78942  -0.77872  -0.74677  -0.73235
 Alpha  occ. eigenvalues --   -0.71967  -0.67841  -0.66253  -0.61369  -0.60726
 Alpha  occ. eigenvalues --   -0.58291  -0.57530  -0.56229  -0.55010  -0.53407
 Alpha  occ. eigenvalues --   -0.53045  -0.51890  -0.50610  -0.48368  -0.46998
 Alpha  occ. eigenvalues --   -0.46413  -0.39794  -0.36128  -0.33678  -0.32569
 Alpha  occ. eigenvalues --   -0.28328
 Alpha virt. eigenvalues --    0.02832   0.03370   0.04454   0.04773   0.04992
 Alpha virt. eigenvalues --    0.05355   0.07159   0.08327   0.08539   0.09155
 Alpha virt. eigenvalues --    0.09977   0.10165   0.10828   0.11100   0.11864

 Mulliken charges:
               1
     1  C    0.335180
     2  C    0.482764
     3  C    0.372720
     4  C    0.057361
     5  S    0.521409
     6  H   -0.377263
     7  C   -0.062150
     8  S    0.477965
     9  C   -0.682727
    10  C   -0.050135
    11  C    0.605548
    12  H   -0.510045
    13  S    0.531432
    14  C   -0.161790
    15  C    0.446553
    16  H   -0.380041
    17  H   -0.322635
    18  H   -0.563332
    19  O   -0.852422
    20  H    0.131608
 Sum of Mulliken charges =  -0.00000

 Dipole moment (field-independent basis, Debye):
    X=             -1.3192    Y=              1.6041    Z=             -0.3312  Tot=              2.1031
 Quadrupole moment (field-independent basis, Debye-Ang):
   XX=            -96.5933   YY=            -93.0022   ZZ=           -110.0904
   XY=              7.2342   XZ=             -0.3672   YZ=             -1.0864

 Normal termination of Gaussian 16 at Wed Oct 27 04:14:07 2021.
