 Gaussian 16, Revision C.01,
 Gaussian 16:  ES64L-G16RevC.01  3-Jul-2019

 ---------------------------------
 # opt=modredundant hf/aug-cc-pvdz
 ---------------------------------

 --------------
 pg2T_TT_40.pdb
 --------------
 Symbolic Z-matrix:
 Charge =  0 Multiplicity = 1

 SCF Done:  E(RHF) =  -1649.42213657     A.U. after   18 cycles
 SCF Done:  E(RHF) =  -1649.50401803     A.U. after   15 cycles
 SCF Done:  E(RHF) =  -1649.60878614     A.U. after   16 cycles
 SCF Done:  E(RHF) =  -1649.62625556     A.U. after   16 cycles
 SCF Done:  E(RHF) =  -1649.63950288     A.U. after   15 cycles
 SCF Done:  E(RHF) =  -1649.64091004     A.U. after   15 cycles
 SCF Done:  E(RHF) =  -1649.64353689     A.U. after   15 cycles
 SCF Done:  E(RHF) =  -1649.64297976     A.U. after   15 cycles
 SCF Done:  E(RHF) =  -1649.64398736     A.U. after   13 cycles
 SCF Done:  E(RHF) =  -1649.64400375     A.U. after   12 cycles
 SCF Done:  E(RHF) =  -1649.64401512     A.U. after   12 cycles
 SCF Done:  E(RHF) =  -1649.64402941     A.U. after   11 cycles
 SCF Done:  E(RHF) =  -1649.64402992     A.U. after    9 cycles
 SCF Done:  E(RHF) =  -1649.64402999     A.U. after    9 cycles
 Optimization completed.
    -- Stationary point found.

                         Standard orientation:
 ---------------------------------------------------------------------
 Center     Atomic      Atomic             Coordinates (Angstroms)
 Number     Number       Type             X           Y           Z
 ---------------------------------------------------------------------
      1          6           0        3.818155    0.381305    0.279761
      2          6           0        2.459769    0.830497    0.406970
      3          6           0        1.562440   -0.096144   -0.006209
      4          6           0        3.923221   -0.866646   -0.218826
      5         16           0        2.359511   -1.531584   -0.568912
      6          1           0        4.823332   -1.424940   -0.403879
      7          6           0        0.099559    0.005218   -0.002999
      8         16           0       -0.678139    1.516829   -0.450493
      9          6           0       -2.246309    0.815498   -0.193747
     10          6           0       -2.143065   -0.490670    0.186586
     11          6           0       -0.795960   -0.963865    0.298742
     12          1           0       -0.514104   -1.957967    0.604676
     13         16           0       -3.710782   -1.194527    0.438938
     14          6           0       -4.475451    0.314923    0.016738
     15          6           0       -3.596271    1.290142   -0.294944
     16          1           0       -5.549850    0.386387    0.024410
     17          1           0       -3.882529    2.288864   -0.581418
     18          1           0        2.181143    1.792367    0.811172
     19          8           0        4.893174    1.121024    0.633112
     20          1           0        4.630654    1.974050    0.935174
 ---------------------------------------------------------------------

 The electronic state is 1-A.
 Alpha  occ. eigenvalues --  -91.99628 -91.99433 -91.98989 -20.60733 -11.31409
 Alpha  occ. eigenvalues --  -11.29576 -11.29494 -11.28180 -11.27815 -11.27664
 Alpha  occ. eigenvalues --  -11.26324 -11.26195 -11.25621 -11.25409  -8.99802
 Alpha  occ. eigenvalues --   -8.99616  -8.99188  -6.67967  -6.67888  -6.67782
 Alpha  occ. eigenvalues --   -6.67704  -6.67676  -6.67497  -6.67358  -6.67268
 Alpha  occ. eigenvalues --   -6.67066  -1.42617  -1.22320  -1.18709  -1.13289
 Alpha  occ. eigenvalues --   -1.03128  -1.02848  -0.99250  -0.95999  -0.95105
 Alpha  occ. eigenvalues --   -0.84321  -0.78628  -0.78012  -0.75115  -0.72899
 Alpha  occ. eigenvalues --   -0.71675  -0.67533  -0.66230  -0.61189  -0.60668
 Alpha  occ. eigenvalues --   -0.58560  -0.57514  -0.56804  -0.54753  -0.53910
 Alpha  occ. eigenvalues --   -0.52891  -0.51379  -0.50148  -0.48244  -0.46955
 Alpha  occ. eigenvalues --   -0.46654  -0.39524  -0.35835  -0.33314  -0.32753
 Alpha  occ. eigenvalues --   -0.28983
 Alpha virt. eigenvalues --    0.03128   0.03363   0.04357   0.04726   0.04947
 Alpha virt. eigenvalues --    0.06143   0.06634   0.08307   0.08375   0.09300
 Alpha virt. eigenvalues --    0.09551   0.10466   0.10637   0.10827   0.11709

 Mulliken charges:
               1
     1  C    0.472401
     2  C    0.218189
     3  C    0.546248
     4  C    0.083392
     5  S    0.452956
     6  H   -0.363645
     7  C    0.312225
     8  S    0.422976
     9  C   -0.691907
    10  C   -0.181491
    11  C    0.245090
    12  H   -0.478154
    13  S    0.591780
    14  C   -0.122118
    15  C    0.487680
    16  H   -0.376779
    17  H   -0.319920
    18  H   -0.583875
    19  O   -0.848314
    20  H    0.133267
 Sum of Mulliken charges =  -0.00000

 Dipole moment (field-independent basis, Debye):
    X=             -1.1368    Y=              1.7129    Z=              0.6722  Tot=              2.1629
 Quadrupole moment (field-independent basis, Debye-Ang):
   XX=            -96.4438   YY=            -94.6323   ZZ=           -108.4797
   XY=             -0.4121   XZ=              2.3616   YZ=              1.4174

 Normal termination of Gaussian 16 at Wed Oct 27 03:19:34 2021.
