 Gaussian 16, Revision C.01,
 Gaussian 16:  ES64L-G16RevC.01  3-Jul-2019

 ---------------------------------
 # opt=modredundant hf/aug-cc-pvdz
 ---------------------------------

 ----------------
 pg2T_TT_-165.pdb
 ----------------
 Symbolic Z-matrix:
 Charge =  0 Multiplicity = 1

 SCF Done:  E(RHF) =  -1649.42060235     A.U. after   18 cycles
 SCF Done:  E(RHF) =  -1649.50218014     A.U. after   16 cycles
 SCF Done:  E(RHF) =  -1649.60648959     A.U. after   16 cycles
 SCF Done:  E(RHF) =  -1649.62384423     A.U. after   16 cycles
 SCF Done:  E(RHF) =  -1649.63698123     A.U. after   15 cycles
 SCF Done:  E(RHF) =  -1649.63847554     A.U. after   16 cycles
 SCF Done:  E(RHF) =  -1649.64110725     A.U. after   15 cycles
 SCF Done:  E(RHF) =  -1649.64087128     A.U. after   15 cycles
 SCF Done:  E(RHF) =  -1649.64147729     A.U. after   13 cycles
 SCF Done:  E(RHF) =  -1649.64150714     A.U. after   12 cycles
 SCF Done:  E(RHF) =  -1649.64152075     A.U. after   12 cycles
 SCF Done:  E(RHF) =  -1649.64153351     A.U. after   11 cycles
 SCF Done:  E(RHF) =  -1649.64153346     A.U. after   10 cycles
 SCF Done:  E(RHF) =  -1649.64153412     A.U. after    9 cycles
 SCF Done:  E(RHF) =  -1649.64153412     A.U. after    9 cycles
 Optimization completed.
    -- Stationary point found.

                         Standard orientation:
 ---------------------------------------------------------------------
 Center     Atomic      Atomic             Coordinates (Angstroms)
 Number     Number       Type             X           Y           Z
 ---------------------------------------------------------------------
      1          6           0        3.761861    0.768508    0.066380
      2          6           0        2.367644    1.085421    0.179136
      3          6           0        1.566406    0.001091    0.027373
      4          6           0        3.995606   -0.538450   -0.167337
      5         16           0        2.510381   -1.425766   -0.271677
      6          1           0        4.946607   -1.026493   -0.281676
      7          6           0        0.099938   -0.024426    0.043693
      8         16           0       -0.780600   -1.536130    0.222673
      9          6           0       -2.296792   -0.700764    0.106381
     10          6           0       -2.107751    0.640784   -0.053446
     11          6           0       -0.733996    1.035023   -0.099745
     12          1           0       -0.395204    2.045942   -0.253097
     13         16           0       -3.626346    1.476960   -0.169452
     14          6           0       -4.488359   -0.029713    0.006013
     15          6           0       -3.674705   -1.097487    0.143256
     16          1           0       -5.565080   -0.029572   -0.003618
     17          1           0       -4.025416   -2.109464    0.262858
     18          1           0        2.000837    2.078991    0.387793
     19          8           0        4.754600    1.678318    0.186881
     20          1           0        4.407389    2.533116    0.377750
 ---------------------------------------------------------------------

 The electronic state is 1-A.
 Alpha  occ. eigenvalues --  -91.99564 -91.99481 -91.98977 -20.60783 -11.31435
 Alpha  occ. eigenvalues --  -11.29745 -11.29662 -11.28199 -11.27842 -11.27699
 Alpha  occ. eigenvalues --  -11.26406 -11.26218 -11.25604 -11.25372  -8.99754
 Alpha  occ. eigenvalues --   -8.99662  -8.99195  -6.67920  -6.67841  -6.67829
 Alpha  occ. eigenvalues --   -6.67751  -6.67629  -6.67544  -6.67367  -6.67276
 Alpha  occ. eigenvalues --   -6.67074  -1.42666  -1.22371  -1.18737  -1.13311
 Alpha  occ. eigenvalues --   -1.03390  -1.02732  -0.99196  -0.96200  -0.95001
 Alpha  occ. eigenvalues --   -0.84413  -0.78943  -0.77872  -0.74678  -0.73234
 Alpha  occ. eigenvalues --   -0.71964  -0.67841  -0.66254  -0.61370  -0.60730
 Alpha  occ. eigenvalues --   -0.58291  -0.57530  -0.56228  -0.55010  -0.53409
 Alpha  occ. eigenvalues --   -0.53044  -0.51891  -0.50611  -0.48367  -0.46998
 Alpha  occ. eigenvalues --   -0.46413  -0.39794  -0.36128  -0.33676  -0.32569
 Alpha  occ. eigenvalues --   -0.28327
 Alpha virt. eigenvalues --    0.02831   0.03370   0.04454   0.04773   0.04993
 Alpha virt. eigenvalues --    0.05353   0.07156   0.08328   0.08537   0.09154
 Alpha virt. eigenvalues --    0.09977   0.10165   0.10828   0.11102   0.11867

 Mulliken charges:
               1
     1  C    0.335791
     2  C    0.481048
     3  C    0.373465
     4  C    0.057329
     5  S    0.521512
     6  H   -0.377322
     7  C   -0.062428
     8  S    0.478071
     9  C   -0.682407
    10  C   -0.050175
    11  C    0.605681
    12  H   -0.510108
    13  S    0.531376
    14  C   -0.161868
    15  C    0.446259
    16  H   -0.380025
    17  H   -0.322648
    18  H   -0.562892
    19  O   -0.852368
    20  H    0.131707
 Sum of Mulliken charges =  -0.00000

 Dipole moment (field-independent basis, Debye):
    X=             -1.3190    Y=              1.6060    Z=              0.3252  Tot=              2.1035
 Quadrupole moment (field-independent basis, Debye-Ang):
   XX=            -96.5940   YY=            -92.9941   ZZ=           -110.0969
   XY=              7.2417   XZ=              0.3362   YZ=              1.0671

 Normal termination of Gaussian 16 at Wed Oct 27 01:54:19 2021.
