 Gaussian 16, Revision C.01,
 Gaussian 16:  ES64L-G16RevC.01  3-Jul-2019

 ---------------------------------
 # opt=modredundant hf/aug-cc-pvdz
 ---------------------------------

 ----------------
 pg2T_TT_-135.pdb
 ----------------
 Symbolic Z-matrix:
 Charge =  0 Multiplicity = 1

 SCF Done:  E(RHF) =  -1649.42082150     A.U. after   18 cycles
 SCF Done:  E(RHF) =  -1649.50267700     A.U. after   15 cycles
 SCF Done:  E(RHF) =  -1649.60730949     A.U. after   15 cycles
 SCF Done:  E(RHF) =  -1649.62491319     A.U. after   16 cycles
 SCF Done:  E(RHF) =  -1649.63833706     A.U. after   15 cycles
 SCF Done:  E(RHF) =  -1649.63981068     A.U. after   15 cycles
 SCF Done:  E(RHF) =  -1649.64249946     A.U. after   14 cycles
 SCF Done:  E(RHF) =  -1649.64232775     A.U. after   14 cycles
 SCF Done:  E(RHF) =  -1649.64286714     A.U. after   13 cycles
 SCF Done:  E(RHF) =  -1649.64288500     A.U. after   12 cycles
 SCF Done:  E(RHF) =  -1649.64292662     A.U. after   12 cycles
 SCF Done:  E(RHF) =  -1649.64293729     A.U. after   11 cycles
 SCF Done:  E(RHF) =  -1649.64293729     A.U. after   10 cycles
 SCF Done:  E(RHF) =  -1649.64293803     A.U. after    9 cycles
 SCF Done:  E(RHF) =  -1649.64293803     A.U. after    9 cycles
 Optimization completed.
    -- Stationary point found.

                         Standard orientation:
 ---------------------------------------------------------------------
 Center     Atomic      Atomic             Coordinates (Angstroms)
 Number     Number       Type             X           Y           Z
 ---------------------------------------------------------------------
      1          6           0        3.762846    0.714096    0.214579
      2          6           0        2.368511    0.993950    0.416445
      3          6           0        1.565545   -0.000265   -0.031477
      4          6           0        3.987282   -0.481430   -0.366107
      5         16           0        2.497231   -1.301854   -0.704565
      6          1           0        4.936658   -0.922696   -0.611387
      7          6           0        0.098627   -0.028758    0.000928
      8         16           0       -0.765674   -1.466752    0.524978
      9          6           0       -2.288647   -0.669592    0.279639
     10          6           0       -2.110381    0.608916   -0.162066
     11          6           0       -0.738120    0.981977   -0.331475
     12          1           0       -0.397113    1.934365   -0.702561
     13         16           0       -3.634905    1.404267   -0.409543
     14          6           0       -4.485425   -0.030629    0.100830
     15          6           0       -3.664094   -1.047644    0.435080
     16          1           0       -5.562016   -0.030622    0.121564
     17          1           0       -4.007366   -2.011886    0.772495
     18          1           0        1.996872    1.886423    0.897395
     19          8           0        4.761353    1.550739    0.577266
     20          1           0        4.418847    2.324198    0.992202
 ---------------------------------------------------------------------

 The electronic state is 1-A.
 Alpha  occ. eigenvalues --  -91.99536 -91.99433 -91.98944 -20.60761 -11.31388
 Alpha  occ. eigenvalues --  -11.29536 -11.29452 -11.28161 -11.27771 -11.27624
 Alpha  occ. eigenvalues --  -11.26367 -11.26162 -11.25624 -11.25457  -8.99704
 Alpha  occ. eigenvalues --   -8.99616  -8.99143  -6.67867  -6.67787  -6.67782
 Alpha  occ. eigenvalues --   -6.67704  -6.67576  -6.67497  -6.67312  -6.67221
 Alpha  occ. eigenvalues --   -6.67020  -1.42630  -1.22278  -1.18677  -1.13257
 Alpha  occ. eigenvalues --   -1.03257  -1.02655  -0.99083  -0.96170  -0.94997
 Alpha  occ. eigenvalues --   -0.84275  -0.78780  -0.77802  -0.74624  -0.72990
 Alpha  occ. eigenvalues --   -0.72153  -0.67688  -0.66214  -0.61238  -0.60671
 Alpha  occ. eigenvalues --   -0.58262  -0.57492  -0.56388  -0.54971  -0.53962
 Alpha  occ. eigenvalues --   -0.52788  -0.51189  -0.50108  -0.48434  -0.46922
 Alpha  occ. eigenvalues --   -0.46592  -0.39422  -0.35680  -0.33216  -0.32700
 Alpha  occ. eigenvalues --   -0.29210
 Alpha virt. eigenvalues --    0.02923   0.03377   0.04505   0.04776   0.04850
 Alpha virt. eigenvalues --    0.05860   0.07126   0.08254   0.08279   0.09259
 Alpha virt. eigenvalues --    0.09485   0.10267   0.10683   0.10950   0.11544

 Mulliken charges:
               1
     1  C    0.453132
     2  C    0.219230
     3  C    0.486505
     4  C    0.081863
     5  S    0.486052
     6  H   -0.353774
     7  C    0.268933
     8  S    0.415998
     9  C   -0.767857
    10  C   -0.108223
    11  C    0.157535
    12  H   -0.440989
    13  S    0.605599
    14  C   -0.072763
    15  C    0.528821
    16  H   -0.379315
    17  H   -0.318853
    18  H   -0.549494
    19  O   -0.844655
    20  H    0.132254
 Sum of Mulliken charges =  -0.00000

 Dipole moment (field-independent basis, Debye):
    X=             -1.2599    Y=              1.4740    Z=              0.8347  Tot=              2.1111
 Quadrupole moment (field-independent basis, Debye-Ang):
   XX=            -96.7577   YY=            -95.5010   ZZ=           -107.5389
   XY=              6.7427   XZ=             -0.0175   YZ=              1.7639

 Normal termination of Gaussian 16 at Wed Oct 27 02:06:55 2021.
