 Gaussian 16, Revision C.01,
 Gaussian 16:  ES64L-G16RevC.01  3-Jul-2019

 ---------------------------------
 # opt=modredundant hf/aug-cc-pvdz
 ---------------------------------

 --------------
 pg2T_TT_25.pdb
 --------------
 Symbolic Z-matrix:
 Charge =  0 Multiplicity = 1

 SCF Done:  E(RHF) =  -1649.42272105     A.U. after   18 cycles
 SCF Done:  E(RHF) =  -1649.50448098     A.U. after   16 cycles
 SCF Done:  E(RHF) =  -1649.60907329     A.U. after   16 cycles
 SCF Done:  E(RHF) =  -1649.62645607     A.U. after   16 cycles
 SCF Done:  E(RHF) =  -1649.63965388     A.U. after   15 cycles
 SCF Done:  E(RHF) =  -1649.64107101     A.U. after   15 cycles
 SCF Done:  E(RHF) =  -1649.64367684     A.U. after   15 cycles
 SCF Done:  E(RHF) =  -1649.64338540     A.U. after   14 cycles
 SCF Done:  E(RHF) =  -1649.64405128     A.U. after   13 cycles
 SCF Done:  E(RHF) =  -1649.64408009     A.U. after   12 cycles
 SCF Done:  E(RHF) =  -1649.64409101     A.U. after   12 cycles
 SCF Done:  E(RHF) =  -1649.64410353     A.U. after   11 cycles
 SCF Done:  E(RHF) =  -1649.64410387     A.U. after    9 cycles
 SCF Done:  E(RHF) =  -1649.64410414     A.U. after    9 cycles
 SCF Done:  E(RHF) =  -1649.64410414     A.U. after    8 cycles
 Optimization completed.
    -- Stationary point found.

                         Standard orientation:
 ---------------------------------------------------------------------
 Center     Atomic      Atomic             Coordinates (Angstroms)
 Number     Number       Type             X           Y           Z
 ---------------------------------------------------------------------
      1          6           0       -3.821441    0.402556   -0.184816
      2          6           0       -2.464324    0.866427   -0.263242
      3          6           0       -1.560691   -0.107928    0.001288
      4          6           0       -3.921986   -0.902214    0.135798
      5         16           0       -2.354127   -1.608656    0.371031
      6          1           0       -4.819382   -1.483086    0.250657
      7          6           0       -0.100159   -0.000351    0.010665
      8         16           0        0.669097    1.553796    0.305843
      9          6           0        2.242206    0.838825    0.128782
     10          6           0        2.147646   -0.498511   -0.122313
     11          6           0        0.804013   -0.987501   -0.194311
     12          1           0        0.532827   -2.008813   -0.405894
     13         16           0        3.720320   -1.215313   -0.293430
     14          6           0        4.474799    0.332059   -0.015124
     15          6           0        3.588605    1.328544    0.193177
     16          1           0        5.548855    0.408284   -0.022746
     17          1           0        3.867928    2.352081    0.382343
     18          1           0       -2.194475    1.877675   -0.529233
     19          8           0       -4.899260    1.184684   -0.416641
     20          1           0       -4.638302    2.067719   -0.616536
 ---------------------------------------------------------------------

 The electronic state is 1-A.
 Alpha  occ. eigenvalues --  -91.99635 -91.99476 -91.98949 -20.60748 -11.31428
 Alpha  occ. eigenvalues --  -11.29667 -11.29586 -11.28218 -11.27873 -11.27715
 Alpha  occ. eigenvalues --  -11.26376 -11.26235 -11.25633 -11.25413  -8.99821
 Alpha  occ. eigenvalues --   -8.99658  -8.99159  -6.67989  -6.67910  -6.67824
 Alpha  occ. eigenvalues --   -6.67746  -6.67697  -6.67540  -6.67332  -6.67241
 Alpha  occ. eigenvalues --   -6.67038  -1.42639  -1.22378  -1.18727  -1.13324
 Alpha  occ. eigenvalues --   -1.03191  -1.02928  -0.99297  -0.95993  -0.95133
 Alpha  occ. eigenvalues --   -0.84411  -0.78703  -0.78064  -0.75209  -0.72989
 Alpha  occ. eigenvalues --   -0.71552  -0.67570  -0.66265  -0.61258  -0.60698
 Alpha  occ. eigenvalues --   -0.58598  -0.57540  -0.56809  -0.54758  -0.53657
 Alpha  occ. eigenvalues --   -0.53057  -0.51707  -0.50368  -0.48117  -0.47024
 Alpha  occ. eigenvalues --   -0.46638  -0.39637  -0.36147  -0.33473  -0.32803
 Alpha  occ. eigenvalues --   -0.28546
 Alpha virt. eigenvalues --    0.03126   0.03348   0.04331   0.04719   0.04975
 Alpha virt. eigenvalues --    0.05656   0.06680   0.08301   0.08642   0.09400
 Alpha virt. eigenvalues --    0.09777   0.10539   0.10619   0.10956   0.11685

 Mulliken charges:
               1
     1  C    0.427478
     2  C    0.225536
     3  C    0.580784
     4  C    0.076048
     5  S    0.475122
     6  H   -0.380522
     7  C    0.283331
     8  S    0.465502
     9  C   -0.685037
    10  C   -0.137081
    11  C    0.306145
    12  H   -0.495772
    13  S    0.562734
    14  C   -0.147436
    15  C    0.452483
    16  H   -0.378312
    17  H   -0.324440
    18  H   -0.591562
    19  O   -0.848920
    20  H    0.133921
 Sum of Mulliken charges =  -0.00000

 Dipole moment (field-independent basis, Debye):
    X=              1.1723    Y=              1.7801    Z=             -0.4635  Tot=              2.1813
 Quadrupole moment (field-independent basis, Debye-Ang):
   XX=            -96.3182   YY=            -93.5122   ZZ=           -109.7002
   XY=              0.2783   XZ=              1.5697   YZ=             -0.9658

 Normal termination of Gaussian 16 at Wed Oct 27 03:13:36 2021.
