 Gaussian 16, Revision C.01,
 Gaussian 16:  ES64L-G16RevC.01  3-Jul-2019

 ---------------------------------
 # opt=modredundant hf/aug-cc-pvdz
 ---------------------------------

 --------------
 pg2T_TT_70.pdb
 --------------
 Symbolic Z-matrix:
 Charge =  0 Multiplicity = 1

 SCF Done:  E(RHF) =  -1649.42010439     A.U. after   18 cycles
 SCF Done:  E(RHF) =  -1649.50209241     A.U. after   15 cycles
 SCF Done:  E(RHF) =  -1649.60682354     A.U. after   15 cycles
 SCF Done:  E(RHF) =  -1649.62424382     A.U. after   15 cycles
 SCF Done:  E(RHF) =  -1649.63759381     A.U. after   15 cycles
 SCF Done:  E(RHF) =  -1649.63902051     A.U. after   15 cycles
 SCF Done:  E(RHF) =  -1649.64170408     A.U. after   14 cycles
 SCF Done:  E(RHF) =  -1649.64098915     A.U. after   15 cycles
 SCF Done:  E(RHF) =  -1649.64221641     A.U. after   13 cycles
 SCF Done:  E(RHF) =  -1649.64222107     A.U. after   12 cycles
 SCF Done:  E(RHF) =  -1649.64224467     A.U. after   12 cycles
 SCF Done:  E(RHF) =  -1649.64226154     A.U. after   11 cycles
 SCF Done:  E(RHF) =  -1649.64226224     A.U. after    9 cycles
 Optimization completed.
    -- Stationary point found.

                         Standard orientation:
 ---------------------------------------------------------------------
 Center     Atomic      Atomic             Coordinates (Angstroms)
 Number     Number       Type             X           Y           Z
 ---------------------------------------------------------------------
      1          6           0        3.814875    0.277697    0.471509
      2          6           0        2.451077    0.651786    0.726348
      3          6           0        1.568205   -0.067621   -0.003365
      4          6           0        3.933746   -0.714611   -0.433502
      5         16           0        2.380218   -1.221161   -1.012349
      6          1           0        4.841044   -1.169692   -0.788863
      7          6           0        0.097475    0.024386    0.018009
      8         16           0       -0.707175    1.441075   -0.640021
      9          6           0       -2.261339    0.756605   -0.278226
     10          6           0       -2.134239   -0.477617    0.289613
     11          6           0       -0.777283   -0.907083    0.458248
     12          1           0       -0.472381   -1.847127    0.888149
     13         16           0       -3.688386   -1.162796    0.654264
     14          6           0       -4.480987    0.255623    0.020656
     15          6           0       -3.620742    1.189079   -0.436577
     16          1           0       -5.556457    0.309516    0.025199
     17          1           0       -3.925811    2.130159   -0.864084
     18          1           0        2.155664    1.415663    1.430372
     19          8           0        4.880951    0.845750    1.080057
     20          1           0        4.611079    1.552143    1.642183
 ---------------------------------------------------------------------

 The electronic state is 1-A.
 Alpha  occ. eigenvalues --  -91.99514 -91.99372 -91.98952 -20.60699 -11.31330
 Alpha  occ. eigenvalues --  -11.29376 -11.29296 -11.28133 -11.27716 -11.27556
 Alpha  occ. eigenvalues --  -11.26314 -11.26124 -11.25621 -11.25475  -8.99671
 Alpha  occ. eigenvalues --   -8.99555  -8.99136  -6.67833  -6.67753  -6.67721
 Alpha  occ. eigenvalues --   -6.67643  -6.67543  -6.67436  -6.67303  -6.67212
 Alpha  occ. eigenvalues --   -6.67014  -1.42556  -1.22196  -1.18629  -1.13208
 Alpha  occ. eigenvalues --   -1.03018  -1.02649  -0.99097  -0.96042  -0.95027
 Alpha  occ. eigenvalues --   -0.84105  -0.78492  -0.77899  -0.74920  -0.72692
 Alpha  occ. eigenvalues --   -0.72032  -0.67487  -0.66143  -0.61086  -0.60610
 Alpha  occ. eigenvalues --   -0.58421  -0.57478  -0.56737  -0.54820  -0.54173
 Alpha  occ. eigenvalues --   -0.52553  -0.51019  -0.49590  -0.48543  -0.46730
 Alpha  occ. eigenvalues --   -0.46608  -0.39285  -0.35177  -0.32921  -0.32299
 Alpha  occ. eigenvalues --   -0.30302
 Alpha virt. eigenvalues --    0.03098   0.03380   0.04431   0.04747   0.04814
 Alpha virt. eigenvalues --    0.06344   0.07352   0.08236   0.08305   0.08773
 Alpha virt. eigenvalues --    0.09706   0.09910   0.10411   0.10906   0.11326

 Mulliken charges:
               1
     1  C    0.535694
     2  C    0.232528
     3  C    0.399705
     4  C    0.082475
     5  S    0.414799
     6  H   -0.348885
     7  C    0.398489
     8  S    0.404693
     9  C   -0.746606
    10  C   -0.268466
    11  C    0.138527
    12  H   -0.442395
    13  S    0.638587
    14  C   -0.082957
    15  C    0.589728
    16  H   -0.375951
    17  H   -0.320724
    18  H   -0.536072
    19  O   -0.844929
    20  H    0.131759
 Sum of Mulliken charges =  -0.00000

 Dipole moment (field-independent basis, Debye):
    X=             -1.0948    Y=              1.3933    Z=              1.1629  Tot=              2.1195
 Quadrupole moment (field-independent basis, Debye-Ang):
   XX=            -96.6064   YY=            -98.4727   ZZ=           -104.4678
   XY=             -0.8940   XZ=              4.0444   YZ=              2.1956

 Normal termination of Gaussian 16 at Wed Oct 27 03:18:28 2021.
