 Gaussian 16, Revision C.01,
 Gaussian 16:  ES64L-G16RevC.01  3-Jul-2019

 ---------------------------------
 # opt=modredundant hf/aug-cc-pvdz
 ---------------------------------

 ----------------
 pg2T_TT_-120.pdb
 ----------------
 Symbolic Z-matrix:
 Charge =  0 Multiplicity = 1

 SCF Done:  E(RHF) =  -1649.42021400     A.U. after   18 cycles
 SCF Done:  E(RHF) =  -1649.50216394     A.U. after   15 cycles
 SCF Done:  E(RHF) =  -1649.60683221     A.U. after   15 cycles
 SCF Done:  E(RHF) =  -1649.62444024     A.U. after   15 cycles
 SCF Done:  E(RHF) =  -1649.63788938     A.U. after   15 cycles
 SCF Done:  E(RHF) =  -1649.63935180     A.U. after   15 cycles
 SCF Done:  E(RHF) =  -1649.64206544     A.U. after   14 cycles
 SCF Done:  E(RHF) =  -1649.64189209     A.U. after   14 cycles
 SCF Done:  E(RHF) =  -1649.64245053     A.U. after   13 cycles
 SCF Done:  E(RHF) =  -1649.64246479     A.U. after   12 cycles
 SCF Done:  E(RHF) =  -1649.64251023     A.U. after   12 cycles
 SCF Done:  E(RHF) =  -1649.64252190     A.U. after   11 cycles
 SCF Done:  E(RHF) =  -1649.64252201     A.U. after   10 cycles
 SCF Done:  E(RHF) =  -1649.64252276     A.U. after    9 cycles
 SCF Done:  E(RHF) =  -1649.64252274     A.U. after    9 cycles
 Optimization completed.
    -- Stationary point found.

                         Standard orientation:
 ---------------------------------------------------------------------
 Center     Atomic      Atomic             Coordinates (Angstroms)
 Number     Number       Type             X           Y           Z
 ---------------------------------------------------------------------
      1          6           0        3.765275    0.665445    0.292187
      2          6           0        2.370483    0.920381    0.526400
      3          6           0        1.566059    0.009260   -0.068059
      4          6           0        3.986124   -0.434120   -0.455326
      5         16           0        2.494102   -1.190098   -0.913458
      6          1           0        4.934893   -0.837430   -0.761251
      7          6           0        0.096412   -0.028643   -0.027336
      8         16           0       -0.750306   -1.416164    0.641510
      9          6           0       -2.281610   -0.650083    0.351875
     10          6           0       -2.118004    0.583347   -0.207682
     11          6           0       -0.749769    0.945749   -0.431393
     12          1           0       -0.417154    1.866525   -0.881659
     13         16           0       -3.650628    1.347235   -0.500129
     14          6           0       -4.484641   -0.038272    0.153306
     15          6           0       -3.652579   -1.017793    0.563969
     16          1           0       -5.560729   -0.040426    0.192629
     17          1           0       -3.985080   -1.948712    0.993246
     18          1           0        1.997834    1.737707    1.125773
     19          8           0        4.766032    1.436113    0.775572
     20          1           0        4.424775    2.146255    1.292268
 ---------------------------------------------------------------------

 The electronic state is 1-A.
 Alpha  occ. eigenvalues --  -91.99491 -91.99408 -91.98908 -20.60739 -11.31344
 Alpha  occ. eigenvalues --  -11.29438 -11.29357 -11.28146 -11.27733 -11.27575
 Alpha  occ. eigenvalues --  -11.26357 -11.26136 -11.25638 -11.25505  -8.99651
 Alpha  occ. eigenvalues --   -8.99590  -8.99100  -6.67814  -6.67757  -6.67733
 Alpha  occ. eigenvalues --   -6.67678  -6.67523  -6.67472  -6.67268  -6.67178
 Alpha  occ. eigenvalues --   -6.66978  -1.42600  -1.22223  -1.18638  -1.13224
 Alpha  occ. eigenvalues --   -1.03167  -1.02608  -0.99024  -0.96159  -0.94985
 Alpha  occ. eigenvalues --   -0.84178  -0.78681  -0.77785  -0.74646  -0.72812
 Alpha  occ. eigenvalues --   -0.72266  -0.67614  -0.66184  -0.61181  -0.60634
 Alpha  occ. eigenvalues --   -0.58247  -0.57470  -0.56502  -0.54947  -0.54108
 Alpha  occ. eigenvalues --   -0.52644  -0.51029  -0.49789  -0.48523  -0.46807
 Alpha  occ. eigenvalues --   -0.46628  -0.39283  -0.35399  -0.32926  -0.32633
 Alpha  occ. eigenvalues --   -0.29825
 Alpha virt. eigenvalues --    0.02969   0.03382   0.04535   0.04730   0.04800
 Alpha virt. eigenvalues --    0.05999   0.07545   0.08214   0.08219   0.09077
 Alpha virt. eigenvalues --    0.09441   0.10288   0.10485   0.10816   0.11434

 Mulliken charges:
               1
     1  C    0.504409
     2  C    0.185712
     3  C    0.482145
     4  C    0.068540
     5  S    0.454678
     6  H   -0.349177
     7  C    0.356981
     8  S    0.400136
     9  C   -0.797213
    10  C   -0.128357
    11  C    0.074639
    12  H   -0.429913
    13  S    0.628611
    14  C   -0.067180
    15  C    0.569847
    16  H   -0.377426
    17  H   -0.320223
    18  H   -0.541876
    19  O   -0.845819
    20  H    0.131487
 Sum of Mulliken charges =  -0.00000

 Dipole moment (field-independent basis, Debye):
    X=             -1.2319    Y=              1.3750    Z=              1.0757  Tot=              2.1366
 Quadrupole moment (field-independent basis, Debye-Ang):
   XX=            -96.9305   YY=            -97.2346   ZZ=           -105.7222
   XY=              6.3432   XZ=             -0.1580   YZ=              1.9127

 Normal termination of Gaussian 16 at Wed Oct 27 02:01:25 2021.
