 Gaussian 16, Revision C.01,
 Gaussian 16:  ES64L-G16RevC.01  3-Jul-2019

 ---------------------------------
 # opt=modredundant hf/aug-cc-pvdz
 ---------------------------------

 ---------------
 pg2T_TT_155.pdb
 ---------------
 Symbolic Z-matrix:
 Charge =  0 Multiplicity = 1

 SCF Done:  E(RHF) =  -1649.42178437     A.U. after   18 cycles
 SCF Done:  E(RHF) =  -1649.50333239     A.U. after   16 cycles
 SCF Done:  E(RHF) =  -1649.60757129     A.U. after   16 cycles
 SCF Done:  E(RHF) =  -1649.62481401     A.U. after   16 cycles
 SCF Done:  E(RHF) =  -1649.63775295     A.U. after   15 cycles
 SCF Done:  E(RHF) =  -1649.63918939     A.U. after   15 cycles
 SCF Done:  E(RHF) =  -1649.64181783     A.U. after   15 cycles
 SCF Done:  E(RHF) =  -1649.64160127     A.U. after   15 cycles
 SCF Done:  E(RHF) =  -1649.64219829     A.U. after   13 cycles
 SCF Done:  E(RHF) =  -1649.64222678     A.U. after   13 cycles
 SCF Done:  E(RHF) =  -1649.64225263     A.U. after   12 cycles
 SCF Done:  E(RHF) =  -1649.64226347     A.U. after   12 cycles
 SCF Done:  E(RHF) =  -1649.64226415     A.U. after   10 cycles
 Optimization completed.
    -- Stationary point found.

                         Standard orientation:
 ---------------------------------------------------------------------
 Center     Atomic      Atomic             Coordinates (Angstroms)
 Number     Number       Type             X           Y           Z
 ---------------------------------------------------------------------
      1          6           0        3.762340    0.754135   -0.113640
      2          6           0        2.369396    1.059877   -0.272681
      3          6           0        1.565981   -0.002914   -0.020314
      4          6           0        3.990292   -0.524165    0.248737
      5         16           0        2.502069   -1.395214    0.428539
      6          1           0        4.939581   -0.999844    0.417393
      7          6           0        0.100175   -0.025695   -0.043712
      8         16           0       -0.779012   -1.518990   -0.340791
      9          6           0       -2.295284   -0.692040   -0.169545
     10          6           0       -2.106027    0.633961    0.089622
     11          6           0       -0.731532    1.021791    0.174306
     12          1           0       -0.388279    2.014982    0.411666
     13         16           0       -3.624325    1.460648    0.262018
     14          6           0       -4.486841   -0.027714   -0.028536
     15          6           0       -3.673560   -1.083347   -0.240763
     16          1           0       -5.563606   -0.027032   -0.023538
     17          1           0       -4.024669   -2.083284   -0.436380
     18          1           0        2.002972    2.024440   -0.589381
     19          8           0        4.758605    1.646032   -0.314669
     20          1           0        4.415806    2.476054   -0.599508
 ---------------------------------------------------------------------

 The electronic state is 1-A.
 Alpha  occ. eigenvalues --  -91.99562 -91.99467 -91.98973 -20.60776 -11.31426
 Alpha  occ. eigenvalues --  -11.29675 -11.29591 -11.28188 -11.27823 -11.27680
 Alpha  occ. eigenvalues --  -11.26395 -11.26201 -11.25608 -11.25388  -8.99745
 Alpha  occ. eigenvalues --   -8.99650  -8.99184  -6.67910  -6.67831  -6.67816
 Alpha  occ. eigenvalues --   -6.67738  -6.67619  -6.67531  -6.67355  -6.67264
 Alpha  occ. eigenvalues --   -6.67062  -1.42649  -1.22347  -1.18720  -1.13298
 Alpha  occ. eigenvalues --   -1.03356  -1.02712  -0.99163  -0.96189  -0.95002
 Alpha  occ. eigenvalues --   -0.84377  -0.78895  -0.77847  -0.74646  -0.73170
 Alpha  occ. eigenvalues --   -0.72021  -0.67793  -0.66241  -0.61323  -0.60711
 Alpha  occ. eigenvalues --   -0.58285  -0.57523  -0.56266  -0.54999  -0.53634
 Alpha  occ. eigenvalues --   -0.52972  -0.51594  -0.50477  -0.48379  -0.46990
 Alpha  occ. eigenvalues --   -0.46486  -0.39668  -0.36003  -0.33537  -0.32647
 Alpha  occ. eigenvalues --   -0.28566
 Alpha virt. eigenvalues --    0.02862   0.03373   0.04471   0.04779   0.04946
 Alpha virt. eigenvalues --    0.05542   0.06958   0.08307   0.08385   0.09186
 Alpha virt. eigenvalues --    0.09922   0.10109   0.10748   0.11077   0.11742

 Mulliken charges:
               1
     1  C    0.383570
     2  C    0.346587
     3  C    0.430351
     4  C    0.071273
     5  S    0.525213
     6  H   -0.367698
     7  C    0.073824
     8  S    0.457482
     9  C   -0.702583
    10  C   -0.093007
    11  C    0.419715
    12  H   -0.477525
    13  S    0.559423
    14  C   -0.122086
    15  C    0.468964
    16  H   -0.379608
    17  H   -0.320090
    18  H   -0.558355
    19  O   -0.848394
    20  H    0.132943
 Sum of Mulliken charges =  -0.00000

 Dipole moment (field-independent basis, Debye):
    X=             -1.3003    Y=              1.5632    Z=             -0.5143  Tot=              2.0973
 Quadrupole moment (field-independent basis, Debye-Ang):
   XX=            -96.5951   YY=            -93.7212   ZZ=           -109.3798
   XY=              7.1250   XZ=             -0.3442   YZ=             -1.4678

 Normal termination of Gaussian 16 at Wed Oct 27 04:09:24 2021.
