 Gaussian 16, Revision C.01,
 Gaussian 16:  ES64L-G16RevC.01  3-Jul-2019

 ---------------------------------
 # opt=modredundant hf/aug-cc-pvdz
 ---------------------------------

 --------------
 pg2T_TT_90.pdb
 --------------
 Symbolic Z-matrix:
 Charge =  0 Multiplicity = 1

 SCF Done:  E(RHF) =  -1649.41930992     A.U. after   18 cycles
 SCF Done:  E(RHF) =  -1649.50131598     A.U. after   15 cycles
 SCF Done:  E(RHF) =  -1649.60599296     A.U. after   15 cycles
 SCF Done:  E(RHF) =  -1649.62344770     A.U. after   15 cycles
 SCF Done:  E(RHF) =  -1649.63681728     A.U. after   15 cycles
 SCF Done:  E(RHF) =  -1649.63824287     A.U. after   15 cycles
 SCF Done:  E(RHF) =  -1649.64092791     A.U. after   14 cycles
 SCF Done:  E(RHF) =  -1649.64033543     A.U. after   15 cycles
 SCF Done:  E(RHF) =  -1649.64138173     A.U. after   12 cycles
 SCF Done:  E(RHF) =  -1649.64137764     A.U. after   12 cycles
 SCF Done:  E(RHF) =  -1649.64142122     A.U. after   12 cycles
 SCF Done:  E(RHF) =  -1649.64143489     A.U. after   11 cycles
 SCF Done:  E(RHF) =  -1649.64143557     A.U. after    9 cycles
 SCF Done:  E(RHF) =  -1649.64143569     A.U. after    9 cycles
 Optimization completed.
    -- Stationary point found.

                         Standard orientation:
 ---------------------------------------------------------------------
 Center     Atomic      Atomic             Coordinates (Angstroms)
 Number     Number       Type             X           Y           Z
 ---------------------------------------------------------------------
      1          6           0       -3.796653   -0.199317   -0.595516
      2          6           0       -2.418031   -0.158280   -1.000444
      3          6           0       -1.569121   -0.058876    0.046763
      4          6           0       -3.959260   -0.126650    0.740654
      5         16           0       -2.431700   -0.007839    1.551437
      6          1           0       -4.885193   -0.139313    1.287596
      7          6           0       -0.095020    0.006887   -0.001723
      8         16           0        0.723931    1.557557   -0.117564
      9          6           0        2.270197    0.767870   -0.114850
     10          6           0        2.130991   -0.586461   -0.027345
     11          6           0        0.769418   -1.030095    0.040785
     12          1           0        0.453731   -2.057606    0.119026
     13         16           0        3.677866   -1.377278   -0.026353
     14          6           0        4.484322    0.164288   -0.147138
     15          6           0        3.633797    1.210910   -0.184948
     16          1           0        5.560026    0.199452   -0.181600
     17          1           0        3.948200    2.239188   -0.257177
     18          1           0       -2.087642   -0.201452   -2.027823
     19          8           0       -4.835077   -0.304630   -1.456112
     20          1           0       -4.533913   -0.303902   -2.348887
 ---------------------------------------------------------------------

 The electronic state is 1-A.
 Alpha  occ. eigenvalues --  -91.99438 -91.99371 -91.98881 -20.60693 -11.31287
 Alpha  occ. eigenvalues --  -11.29314 -11.29235 -11.28133 -11.27699 -11.27519
 Alpha  occ. eigenvalues --  -11.26351 -11.26108 -11.25632 -11.25522  -8.99593
 Alpha  occ. eigenvalues --   -8.99554  -8.99064  -6.67755  -6.67720  -6.67675
 Alpha  occ. eigenvalues --   -6.67642  -6.67465  -6.67435  -6.67230  -6.67140
 Alpha  occ. eigenvalues --   -6.66941  -1.42543  -1.22161  -1.18585  -1.13185
 Alpha  occ. eigenvalues --   -1.03018  -1.02570  -0.98995  -0.96102  -0.94985
 Alpha  occ. eigenvalues --   -0.84040  -0.78498  -0.77825  -0.74790  -0.72535
 Alpha  occ. eigenvalues --   -0.72332  -0.67508  -0.66126  -0.61078  -0.60594
 Alpha  occ. eigenvalues --   -0.58295  -0.57478  -0.56676  -0.54874  -0.54223
 Alpha  occ. eigenvalues --   -0.52466  -0.50933  -0.49352  -0.48713  -0.46651
 Alpha  occ. eigenvalues --   -0.46588  -0.39196  -0.35001  -0.32632  -0.31946
 Alpha  occ. eigenvalues --   -0.31078
 Alpha virt. eigenvalues --    0.03054   0.03380   0.04508   0.04693   0.04768
 Alpha virt. eigenvalues --    0.06211   0.07788   0.08220   0.08443   0.08659
 Alpha virt. eigenvalues --    0.09369   0.09900   0.10356   0.10795   0.11444

 Mulliken charges:
               1
     1  C    0.599029
     2  C    0.192885
     3  C    0.365162
     4  C    0.049020
     5  S    0.410200
     6  H   -0.344216
     7  C    0.400988
     8  S    0.404452
     9  C   -0.766325
    10  C   -0.265356
    11  C    0.096778
    12  H   -0.424861
    13  S    0.653719
    14  C   -0.071834
    15  C    0.643944
    16  H   -0.376711
    17  H   -0.324441
    18  H   -0.524681
    19  O   -0.847679
    20  H    0.129927
 Sum of Mulliken charges =  -0.00000

 Dipole moment (field-independent basis, Debye):
    X=              1.1451    Y=             -0.0059    Z=             -1.8078  Tot=              2.1399
 Quadrupole moment (field-independent basis, Debye-Ang):
   XX=            -96.8690   YY=           -102.7949   ZZ=           -100.0680
   XY=              4.2434   XZ=              3.0999   YZ=             -0.0227

 Normal termination of Gaussian 16 at Wed Oct 27 03:45:45 2021.
