 Gaussian 16, Revision C.01,
 Gaussian 16:  ES64L-G16RevC.01  3-Jul-2019

 ---------------------------------
 # opt=modredundant hf/aug-cc-pvdz
 ---------------------------------

 --------------
 pg2T_TT_80.pdb
 --------------
 Symbolic Z-matrix:
 Charge =  0 Multiplicity = 1

 SCF Done:  E(RHF) =  -1649.41934270     A.U. after   18 cycles
 SCF Done:  E(RHF) =  -1649.50139515     A.U. after   15 cycles
 SCF Done:  E(RHF) =  -1649.60618037     A.U. after   15 cycles
 SCF Done:  E(RHF) =  -1649.62364310     A.U. after   15 cycles
 SCF Done:  E(RHF) =  -1649.63702747     A.U. after   15 cycles
 SCF Done:  E(RHF) =  -1649.63845386     A.U. after   15 cycles
 SCF Done:  E(RHF) =  -1649.64114417     A.U. after   14 cycles
 SCF Done:  E(RHF) =  -1649.64047034     A.U. after   15 cycles
 SCF Done:  E(RHF) =  -1649.64163466     A.U. after   13 cycles
 SCF Done:  E(RHF) =  -1649.64163354     A.U. after   12 cycles
 SCF Done:  E(RHF) =  -1649.64166786     A.U. after   12 cycles
 SCF Done:  E(RHF) =  -1649.64168361     A.U. after   11 cycles
 SCF Done:  E(RHF) =  -1649.64168431     A.U. after    9 cycles
 SCF Done:  E(RHF) =  -1649.64168436     A.U. after    9 cycles
 Optimization completed.
    -- Stationary point found.

                         Standard orientation:
 ---------------------------------------------------------------------
 Center     Atomic      Atomic             Coordinates (Angstroms)
 Number     Number       Type             X           Y           Z
 ---------------------------------------------------------------------
      1          6           0        3.808317    0.175715    0.557214
      2          6           0        2.438272    0.470301    0.876378
      3          6           0        1.569186   -0.068363   -0.008176
      4          6           0        3.944716   -0.576874   -0.552991
      5         16           0        2.401583   -0.949415   -1.249135
      6          1           0        4.859667   -0.929897   -0.994439
      7          6           0        0.096164    0.018013    0.014932
      8         16           0       -0.715757    1.462550   -0.569909
      9          6           0       -2.265990    0.755635   -0.236036
     10          6           0       -2.132788   -0.501966    0.276088
     11          6           0       -0.773334   -0.933666    0.419047
     12          1           0       -0.462834   -1.892320    0.801317
     13         16           0       -3.683341   -1.209398    0.612890
     14          6           0       -4.482966    0.232962    0.045750
     15          6           0       -3.627646    1.189103   -0.371968
     16          1           0       -5.558611    0.282488    0.055704
     17          1           0       -3.937471    2.146994   -0.756529
     18          1           0        2.128470    1.053520    1.731065
     19          8           0        4.863324    0.595923    1.292186
     20          1           0        4.580839    1.146876    2.002418
 ---------------------------------------------------------------------

 The electronic state is 1-A.
 Alpha  occ. eigenvalues --  -91.99467 -91.99368 -91.98911 -20.60693 -11.31302
 Alpha  occ. eigenvalues --  -11.29330 -11.29250 -11.28130 -11.27702 -11.27531
 Alpha  occ. eigenvalues --  -11.26333 -11.26112 -11.25625 -11.25503  -8.99622
 Alpha  occ. eigenvalues --   -8.99550  -8.99094  -6.67785  -6.67716  -6.67704
 Alpha  occ. eigenvalues --   -6.67638  -6.67495  -6.67431  -6.67260  -6.67170
 Alpha  occ. eigenvalues --   -6.66971  -1.42546  -1.22170  -1.18600  -1.13191
 Alpha  occ. eigenvalues --   -1.03006  -1.02598  -0.99038  -0.96071  -0.95003
 Alpha  occ. eigenvalues --   -0.84056  -0.78480  -0.77860  -0.74856  -0.72613
 Alpha  occ. eigenvalues --   -0.72178  -0.67491  -0.66128  -0.61072  -0.60600
 Alpha  occ. eigenvalues --   -0.58355  -0.57478  -0.56708  -0.54848  -0.54210
 Alpha  occ. eigenvalues --   -0.52487  -0.50961  -0.49430  -0.48649  -0.46677
 Alpha  occ. eigenvalues --   -0.46585  -0.39229  -0.35039  -0.32751  -0.32056
 Alpha  occ. eigenvalues --   -0.30813
 Alpha virt. eigenvalues --    0.03078   0.03381   0.04466   0.04746   0.04762
 Alpha virt. eigenvalues --    0.06278   0.07607   0.08259   0.08363   0.08697
 Alpha virt. eigenvalues --    0.09507   0.09869   0.10365   0.10859   0.11379

 Mulliken charges:
               1
     1  C    0.574165
     2  C    0.216341
     3  C    0.365464
     4  C    0.064898
     5  S    0.409116
     6  H   -0.346025
     7  C    0.401243
     8  S    0.405452
     9  C   -0.759177
    10  C   -0.279169
    11  C    0.118931
    12  H   -0.431792
    13  S    0.649745
    14  C   -0.076293
    15  C    0.628411
    16  H   -0.376396
    17  H   -0.323101
    18  H   -0.526961
    19  O   -0.845520
    20  H    0.130668
 Sum of Mulliken charges =  -0.00000

 Dipole moment (field-independent basis, Debye):
    X=             -1.1122    Y=              1.0867    Z=              1.4479  Tot=              2.1246
 Quadrupole moment (field-independent basis, Debye-Ang):
   XX=            -96.7252   YY=           -100.5672   ZZ=           -102.3224
   XY=             -1.6949   XZ=              4.4251   YZ=              2.1455

 Normal termination of Gaussian 16 at Wed Oct 27 03:50:13 2021.
