 Gaussian 16, Revision C.01,
 Gaussian 16:  ES64L-G16RevC.01  3-Jul-2019

 ---------------------------------
 # opt=modredundant hf/aug-cc-pvdz
 ---------------------------------

 ---------------
 pg2T_TT_-80.pdb
 ---------------
 Symbolic Z-matrix:
 Charge =  0 Multiplicity = 1

 SCF Done:  E(RHF) =  -1649.41945875     A.U. after   18 cycles
 SCF Done:  E(RHF) =  -1649.50149094     A.U. after   15 cycles
 SCF Done:  E(RHF) =  -1649.60614878     A.U. after   15 cycles
 SCF Done:  E(RHF) =  -1649.62375747     A.U. after   15 cycles
 SCF Done:  E(RHF) =  -1649.63717561     A.U. after   15 cycles
 SCF Done:  E(RHF) =  -1649.63857325     A.U. after   15 cycles
 SCF Done:  E(RHF) =  -1649.64122275     A.U. after   14 cycles
 SCF Done:  E(RHF) =  -1649.64075326     A.U. after   15 cycles
 SCF Done:  E(RHF) =  -1649.64162276     A.U. after   13 cycles
 SCF Done:  E(RHF) =  -1649.64161591     A.U. after   13 cycles
 SCF Done:  E(RHF) =  -1649.64167070     A.U. after   12 cycles
 SCF Done:  E(RHF) =  -1649.64168179     A.U. after   11 cycles
 SCF Done:  E(RHF) =  -1649.64168217     A.U. after   10 cycles
 SCF Done:  E(RHF) =  -1649.64168289     A.U. after    9 cycles
 SCF Done:  E(RHF) =  -1649.64168292     A.U. after    9 cycles
 Optimization completed.
    -- Stationary point found.

                         Standard orientation:
 ---------------------------------------------------------------------
 Center     Atomic      Atomic             Coordinates (Angstroms)
 Number     Number       Type             X           Y           Z
 ---------------------------------------------------------------------
      1          6           0       -3.808260    0.174914    0.557761
      2          6           0       -2.438195    0.469286    0.877056
      3          6           0       -1.569212   -0.068136   -0.008322
      4          6           0       -3.944781   -0.575921   -0.553634
      5         16           0       -2.401713   -0.947515   -1.250403
      6          1           0       -4.859810   -0.928337   -0.995392
      7          6           0       -0.096171    0.018026    0.014638
      8         16           0        0.715879    1.462961   -0.569049
      9          6           0        2.266043    0.755650   -0.235656
     10          6           0        2.132732   -0.502299    0.275539
     11          6           0        0.773233   -0.934011    0.418092
     12          1           0        0.462662   -1.892814    0.799922
     13         16           0        3.683230   -1.210005    0.612130
     14          6           0        4.482958    0.232860    0.046419
     15          6           0        3.627740    1.189224   -0.370965
     16          1           0        5.558592    0.282506    0.056875
     17          1           0        3.937622    2.147427   -0.754694
     18          1           0       -2.128336    1.051356    1.732614
     19          8           0       -4.863142    0.593993    1.293427
     20          1           0       -4.580465    1.143304    2.004850
 ---------------------------------------------------------------------

 The electronic state is 1-A.
 Alpha  occ. eigenvalues --  -91.99467 -91.99368 -91.98911 -20.60694 -11.31301
 Alpha  occ. eigenvalues --  -11.29330 -11.29250 -11.28130 -11.27702 -11.27531
 Alpha  occ. eigenvalues --  -11.26333 -11.26112 -11.25624 -11.25504  -8.99622
 Alpha  occ. eigenvalues --   -8.99550  -8.99094  -6.67784  -6.67716  -6.67704
 Alpha  occ. eigenvalues --   -6.67638  -6.67494  -6.67431  -6.67259  -6.67169
 Alpha  occ. eigenvalues --   -6.66971  -1.42550  -1.22170  -1.18599  -1.13191
 Alpha  occ. eigenvalues --   -1.03006  -1.02598  -0.99038  -0.96071  -0.95003
 Alpha  occ. eigenvalues --   -0.84057  -0.78480  -0.77860  -0.74857  -0.72612
 Alpha  occ. eigenvalues --   -0.72178  -0.67492  -0.66129  -0.61073  -0.60602
 Alpha  occ. eigenvalues --   -0.58355  -0.57478  -0.56708  -0.54848  -0.54209
 Alpha  occ. eigenvalues --   -0.52486  -0.50962  -0.49429  -0.48648  -0.46677
 Alpha  occ. eigenvalues --   -0.46585  -0.39228  -0.35039  -0.32751  -0.32054
 Alpha  occ. eigenvalues --   -0.30815
 Alpha virt. eigenvalues --    0.03078   0.03381   0.04466   0.04746   0.04762
 Alpha virt. eigenvalues --    0.06278   0.07608   0.08259   0.08363   0.08697
 Alpha virt. eigenvalues --    0.09506   0.09869   0.10366   0.10858   0.11379

 Mulliken charges:
               1
     1  C    0.574361
     2  C    0.215738
     3  C    0.365784
     4  C    0.064859
     5  S    0.409144
     6  H   -0.346038
     7  C    0.401067
     8  S    0.405397
     9  C   -0.759191
    10  C   -0.279303
    11  C    0.119061
    12  H   -0.431783
    13  S    0.649752
    14  C   -0.076274
    15  C    0.628547
    16  H   -0.376395
    17  H   -0.323130
    18  H   -0.526765
    19  O   -0.845515
    20  H    0.130683
 Sum of Mulliken charges =  -0.00000

 Dipole moment (field-independent basis, Debye):
    X=              1.1122    Y=              1.0840    Z=              1.4513  Tot=              2.1256
 Quadrupole moment (field-independent basis, Debye-Ang):
   XX=            -96.7256   YY=           -100.5801   ZZ=           -102.3091
   XY=              1.7065   XZ=             -4.4257   YZ=              2.1434

 Normal termination of Gaussian 16 at Wed Oct 27 02:37:44 2021.
