 Gaussian 16, Revision C.01,
 Gaussian 16:  ES64L-G16RevC.01  3-Jul-2019

 ---------------------------------
 # opt=modredundant hf/aug-cc-pvdz
 ---------------------------------

 ---------------
 pg2T_TT_-20.pdb
 ---------------
 Symbolic Z-matrix:
 Charge =  0 Multiplicity = 1

 SCF Done:  E(RHF) =  -1649.42370313     A.U. after   18 cycles
 SCF Done:  E(RHF) =  -1649.50522223     A.U. after   16 cycles
 SCF Done:  E(RHF) =  -1649.60939576     A.U. after   16 cycles
 SCF Done:  E(RHF) =  -1649.62650509     A.U. after   16 cycles
 SCF Done:  E(RHF) =  -1649.63957038     A.U. after   15 cycles
 SCF Done:  E(RHF) =  -1649.64098844     A.U. after   15 cycles
 SCF Done:  E(RHF) =  -1649.64360442     A.U. after   15 cycles
 SCF Done:  E(RHF) =  -1649.64369424     A.U. after   15 cycles
 SCF Done:  E(RHF) =  -1649.64385568     A.U. after   14 cycles
 SCF Done:  E(RHF) =  -1649.64400805     A.U. after   13 cycles
 SCF Done:  E(RHF) =  -1649.64400417     A.U. after   12 cycles
 SCF Done:  E(RHF) =  -1649.64400844     A.U. after   11 cycles
 SCF Done:  E(RHF) =  -1649.64401527     A.U. after   11 cycles
 SCF Done:  E(RHF) =  -1649.64401532     A.U. after    8 cycles
 SCF Done:  E(RHF) =  -1649.64401534     A.U. after    8 cycles
 Optimization completed.
    -- Stationary point found.

                         Standard orientation:
 ---------------------------------------------------------------------
 Center     Atomic      Atomic             Coordinates (Angstroms)
 Number     Number       Type             X           Y           Z
 ---------------------------------------------------------------------
      1          6           0       -3.823107    0.406755    0.150735
      2          6           0       -2.466556    0.874609    0.213995
      3          6           0       -1.560454   -0.110038    0.000531
      4          6           0       -3.921544   -0.911333   -0.109485
      5         16           0       -2.351992   -1.627413   -0.302050
      6          1           0       -4.817825   -1.497835   -0.201964
      7          6           0       -0.100374   -0.000247   -0.010506
      8         16           0        0.667404    1.564546   -0.250948
      9          6           0        2.241586    0.844923   -0.105039
     10          6           0        2.148829   -0.500288    0.099672
     11          6           0        0.805885   -0.992520    0.158249
     12          1           0        0.537571   -2.021441    0.333596
     13         16           0        3.722574   -1.221380    0.239731
     14          6           0        4.474926    0.335386    0.013107
     15          6           0        3.587229    1.337830   -0.157152
     16          1           0        5.548937    0.412238    0.019818
     17          1           0        3.865077    2.367616   -0.311301
     18          1           0       -2.200121    1.898357    0.431185
     19          8           0       -4.902207    1.198669    0.339056
     20          1           0       -4.642262    2.089197    0.503837
 ---------------------------------------------------------------------

 The electronic state is 1-A.
 Alpha  occ. eigenvalues --  -91.99631 -91.99489 -91.98934 -20.60753 -11.31433
 Alpha  occ. eigenvalues --  -11.29693 -11.29612 -11.28229 -11.27890 -11.27729
 Alpha  occ. eigenvalues --  -11.26395 -11.26246 -11.25639 -11.25421  -8.99821
 Alpha  occ. eigenvalues --   -8.99671  -8.99147  -6.67990  -6.67911  -6.67837
 Alpha  occ. eigenvalues --   -6.67759  -6.67698  -6.67552  -6.67321  -6.67230
 Alpha  occ. eigenvalues --   -6.67026  -1.42646  -1.22393  -1.18730  -1.13332
 Alpha  occ. eigenvalues --   -1.03209  -1.02949  -0.99310  -0.95992  -0.95139
 Alpha  occ. eigenvalues --   -0.84434  -0.78727  -0.78078  -0.75237  -0.73016
 Alpha  occ. eigenvalues --   -0.71521  -0.67582  -0.66274  -0.61281  -0.60707
 Alpha  occ. eigenvalues --   -0.58608  -0.57547  -0.56808  -0.54766  -0.53557
 Alpha  occ. eigenvalues --   -0.53102  -0.51837  -0.50425  -0.48080  -0.47038
 Alpha  occ. eigenvalues --   -0.46628  -0.39669  -0.36236  -0.33522  -0.32798
 Alpha  occ. eigenvalues --   -0.28435
 Alpha virt. eigenvalues --    0.03125   0.03343   0.04323   0.04717   0.04978
 Alpha virt. eigenvalues --    0.05515   0.06696   0.08297   0.08751   0.09371
 Alpha virt. eigenvalues --    0.09937   0.10551   0.10633   0.11008   0.11685

 Mulliken charges:
               1
     1  C    0.407341
     2  C    0.230710
     3  C    0.591025
     4  C    0.078165
     5  S    0.483077
     6  H   -0.387561
     7  C    0.263615
     8  S    0.486858
     9  C   -0.682080
    10  C   -0.129080
    11  C    0.333039
    12  H   -0.500509
    13  S    0.552586
    14  C   -0.155548
    15  C    0.439196
    16  H   -0.379071
    17  H   -0.326708
    18  H   -0.590194
    19  O   -0.849108
    20  H    0.134247
 Sum of Mulliken charges =  -0.00000

 Dipole moment (field-independent basis, Debye):
    X=              1.1808    Y=              1.7953    Z=              0.3859  Tot=              2.1832
 Quadrupole moment (field-independent basis, Debye-Ang):
   XX=            -96.2643   YY=            -93.2329   ZZ=           -110.0141
   XY=              0.2248   XZ=             -1.2956   YZ=              0.8011

 Normal termination of Gaussian 16 at Wed Oct 27 02:49:23 2021.
