 Gaussian 16, Revision C.01,
 Gaussian 16:  ES64L-G16RevC.01  3-Jul-2019

 ---------------------------------
 # opt=modredundant hf/aug-cc-pvdz
 ---------------------------------

 ---------------
 pg2T_TT_120.pdb
 ---------------
 Symbolic Z-matrix:
 Charge =  0 Multiplicity = 1

 SCF Done:  E(RHF) =  -1649.42061140     A.U. after   18 cycles
 SCF Done:  E(RHF) =  -1649.50252676     A.U. after   15 cycles
 SCF Done:  E(RHF) =  -1649.60719282     A.U. after   15 cycles
 SCF Done:  E(RHF) =  -1649.62476052     A.U. after   15 cycles
 SCF Done:  E(RHF) =  -1649.63801150     A.U. after   15 cycles
 SCF Done:  E(RHF) =  -1649.63942885     A.U. after   15 cycles
 SCF Done:  E(RHF) =  -1649.64207489     A.U. after   14 cycles
 SCF Done:  E(RHF) =  -1649.64171627     A.U. after   15 cycles
 SCF Done:  E(RHF) =  -1649.64245826     A.U. after   13 cycles
 SCF Done:  E(RHF) =  -1649.64246349     A.U. after   12 cycles
 SCF Done:  E(RHF) =  -1649.64251242     A.U. after   12 cycles
 SCF Done:  E(RHF) =  -1649.64252202     A.U. after   11 cycles
 SCF Done:  E(RHF) =  -1649.64252266     A.U. after   10 cycles
 SCF Done:  E(RHF) =  -1649.64252298     A.U. after    9 cycles
 SCF Done:  E(RHF) =  -1649.64252300     A.U. after    8 cycles
 Optimization completed.
    -- Stationary point found.

                         Standard orientation:
 ---------------------------------------------------------------------
 Center     Atomic      Atomic             Coordinates (Angstroms)
 Number     Number       Type             X           Y           Z
 ---------------------------------------------------------------------
      1          6           0        3.765162    0.665519   -0.292380
      2          6           0        2.370313    0.920451   -0.526244
      3          6           0        1.566058    0.009079    0.068066
      4          6           0        3.986198   -0.434054    0.455077
      5         16           0        2.494308   -1.190298    0.913207
      6          1           0        4.935029   -0.837254    0.760955
      7          6           0        0.096404   -0.028874    0.027576
      8         16           0       -0.750376   -1.416255   -0.641469
      9          6           0       -2.281636   -0.650074   -0.351879
     10          6           0       -2.117964    0.583258    0.207863
     11          6           0       -0.749728    0.945395    0.431984
     12          1           0       -0.417064    1.866013    0.882534
     13         16           0       -3.650520    1.347469    0.499774
     14          6           0       -4.484641   -0.038331   -0.152891
     15          6           0       -3.652619   -1.017653   -0.564089
     16          1           0       -5.560739   -0.040540   -0.191949
     17          1           0       -3.985177   -1.948532   -0.993405
     18          1           0        1.997495    1.737938   -1.125270
     19          8           0        4.765767    1.436693   -0.775288
     20          1           0        4.424466    2.145894   -1.293250
 ---------------------------------------------------------------------

 The electronic state is 1-A.
 Alpha  occ. eigenvalues --  -91.99491 -91.99407 -91.98908 -20.60739 -11.31344
 Alpha  occ. eigenvalues --  -11.29438 -11.29357 -11.28146 -11.27733 -11.27575
 Alpha  occ. eigenvalues --  -11.26357 -11.26136 -11.25639 -11.25505  -8.99651
 Alpha  occ. eigenvalues --   -8.99590  -8.99100  -6.67813  -6.67757  -6.67733
 Alpha  occ. eigenvalues --   -6.67678  -6.67523  -6.67471  -6.67268  -6.67178
 Alpha  occ. eigenvalues --   -6.66978  -1.42599  -1.22223  -1.18638  -1.13224
 Alpha  occ. eigenvalues --   -1.03168  -1.02608  -0.99024  -0.96159  -0.94985
 Alpha  occ. eigenvalues --   -0.84178  -0.78681  -0.77785  -0.74646  -0.72812
 Alpha  occ. eigenvalues --   -0.72266  -0.67614  -0.66184  -0.61180  -0.60634
 Alpha  occ. eigenvalues --   -0.58247  -0.57469  -0.56503  -0.54948  -0.54107
 Alpha  occ. eigenvalues --   -0.52644  -0.51028  -0.49790  -0.48523  -0.46808
 Alpha  occ. eigenvalues --   -0.46626  -0.39283  -0.35399  -0.32926  -0.32633
 Alpha  occ. eigenvalues --   -0.29826
 Alpha virt. eigenvalues --    0.02969   0.03382   0.04535   0.04730   0.04800
 Alpha virt. eigenvalues --    0.06000   0.07545   0.08214   0.08218   0.09077
 Alpha virt. eigenvalues --    0.09441   0.10288   0.10486   0.10816   0.11434

 Mulliken charges:
               1
     1  C    0.504320
     2  C    0.185657
     3  C    0.482110
     4  C    0.068524
     5  S    0.454705
     6  H   -0.349176
     7  C    0.357208
     8  S    0.400155
     9  C   -0.797209
    10  C   -0.128341
    11  C    0.074522
    12  H   -0.429905
    13  S    0.628691
    14  C   -0.067194
    15  C    0.569841
    16  H   -0.377421
    17  H   -0.320225
    18  H   -0.541928
    19  O   -0.845811
    20  H    0.131476
 Sum of Mulliken charges =  -0.00000

 Dipole moment (field-independent basis, Debye):
    X=             -1.2320    Y=              1.3736    Z=             -1.0773  Tot=              2.1366
 Quadrupole moment (field-independent basis, Debye-Ang):
   XX=            -96.9298   YY=            -97.2426   ZZ=           -105.7159
   XY=              6.3354   XZ=              0.1480   YZ=             -1.9153

 Normal termination of Gaussian 16 at Wed Oct 27 04:05:19 2021.
