 Gaussian 16, Revision C.01,
 Gaussian 16:  ES64L-G16RevC.01  3-Jul-2019

 ---------------------------------
 # opt=modredundant hf/aug-cc-pvdz
 ---------------------------------

 --------------
 pg2T_TT_35.pdb
 --------------
 Symbolic Z-matrix:
 Charge =  0 Multiplicity = 1

 SCF Done:  E(RHF) =  -1649.42252129     A.U. after   18 cycles
 SCF Done:  E(RHF) =  -1649.50433140     A.U. after   15 cycles
 SCF Done:  E(RHF) =  -1649.60899912     A.U. after   16 cycles
 SCF Done:  E(RHF) =  -1649.62642220     A.U. after   16 cycles
 SCF Done:  E(RHF) =  -1649.63963170     A.U. after   15 cycles
 SCF Done:  E(RHF) =  -1649.64103927     A.U. after   15 cycles
 SCF Done:  E(RHF) =  -1649.64365410     A.U. after   15 cycles
 SCF Done:  E(RHF) =  -1649.64316815     A.U. after   15 cycles
 SCF Done:  E(RHF) =  -1649.64408074     A.U. after   13 cycles
 SCF Done:  E(RHF) =  -1649.64409948     A.U. after   12 cycles
 SCF Done:  E(RHF) =  -1649.64411065     A.U. after   12 cycles
 SCF Done:  E(RHF) =  -1649.64412425     A.U. after   11 cycles
 SCF Done:  E(RHF) =  -1649.64412472     A.U. after    9 cycles
 SCF Done:  E(RHF) =  -1649.64412482     A.U. after    9 cycles
 SCF Done:  E(RHF) =  -1649.64412484     A.U. after    8 cycles
 Optimization completed.
    -- Stationary point found.

                         Standard orientation:
 ---------------------------------------------------------------------
 Center     Atomic      Atomic             Coordinates (Angstroms)
 Number     Number       Type             X           Y           Z
 ---------------------------------------------------------------------
      1          6           0        3.818860    0.390027    0.249140
      2          6           0        2.460795    0.844600    0.359281
      3          6           0        1.561692   -0.100949   -0.004969
      4          6           0        3.922833   -0.879957   -0.189987
      5         16           0        2.357992   -1.560883   -0.503734
      6          1           0        4.822211   -1.446785   -0.350877
      7          6           0        0.099750    0.002284   -0.006792
      8         16           0       -0.674464    1.529665   -0.405500
      9          6           0       -2.244557    0.824013   -0.173173
     10          6           0       -2.144729   -0.493706    0.165598
     11          6           0       -0.799007   -0.973226    0.264298
     12          1           0       -0.520990   -1.976987    0.540850
     13         16           0       -3.714368   -1.201702    0.392917
     14          6           0       -4.475040    0.321861    0.016841
     15          6           0       -3.593130    1.304633   -0.261970
     16          1           0       -5.549288    0.395428    0.024895
     17          1           0       -3.876675    2.312564   -0.517170
     18          1           0        2.184666    1.825023    0.718133
     19          8           0        4.894567    1.146205    0.562994
     20          1           0        4.632183    2.010363    0.831695
 ---------------------------------------------------------------------

 The electronic state is 1-A.
 Alpha  occ. eigenvalues --  -91.99634 -91.99448 -91.98978 -20.60738 -11.31417
 Alpha  occ. eigenvalues --  -11.29608 -11.29526 -11.28193 -11.27835 -11.27683
 Alpha  occ. eigenvalues --  -11.26339 -11.26209 -11.25624 -11.25407  -8.99812
 Alpha  occ. eigenvalues --   -8.99630  -8.99181  -6.67978  -6.67899  -6.67796
 Alpha  occ. eigenvalues --   -6.67718  -6.67687  -6.67511  -6.67352  -6.67261
 Alpha  occ. eigenvalues --   -6.67059  -1.42626  -1.22341  -1.18716  -1.13302
 Alpha  occ. eigenvalues --   -1.03149  -1.02877  -0.99267  -0.95996  -0.95115
 Alpha  occ. eigenvalues --   -0.84354  -0.78654  -0.78030  -0.75147  -0.72930
 Alpha  occ. eigenvalues --   -0.71629  -0.67545  -0.66243  -0.61211  -0.60678
 Alpha  occ. eigenvalues --   -0.58574  -0.57524  -0.56808  -0.54751  -0.53835
 Alpha  occ. eigenvalues --   -0.52950  -0.51476  -0.50228  -0.48200  -0.46981
 Alpha  occ. eigenvalues --   -0.46652  -0.39564  -0.35945  -0.33367  -0.32782
 Alpha  occ. eigenvalues --   -0.28820
 Alpha virt. eigenvalues --    0.03128   0.03358   0.04347   0.04724   0.04959
 Alpha virt. eigenvalues --    0.05976   0.06644   0.08306   0.08450   0.09406
 Alpha virt. eigenvalues --    0.09540   0.10488   0.10641   0.10863   0.11705

 Mulliken charges:
               1
     1  C    0.460534
     2  C    0.217888
     3  C    0.560170
     4  C    0.079317
     5  S    0.461055
     6  H   -0.368415
     7  C    0.303507
     8  S    0.434964
     9  C   -0.688323
    10  C   -0.165056
    11  C    0.262558
    12  H   -0.484284
    13  S    0.582494
    14  C   -0.130829
    15  C    0.476167
    16  H   -0.377191
    17  H   -0.321060
    18  H   -0.588386
    19  O   -0.848554
    20  H    0.133444
 Sum of Mulliken charges =  -0.00000

 Dipole moment (field-independent basis, Debye):
    X=             -1.1498    Y=              1.7389    Z=              0.6063  Tot=              2.1710
 Quadrupole moment (field-independent basis, Debye-Ang):
   XX=            -96.4108   YY=            -94.2134   ZZ=           -108.9302
   XY=             -0.3758   XZ=              2.1046   YZ=              1.2745

 Normal termination of Gaussian 16 at Wed Oct 27 03:15:26 2021.
