 Gaussian 16, Revision C.01,
 Gaussian 16:  ES64L-G16RevC.01  3-Jul-2019

 ---------------------------------
 # opt=modredundant hf/aug-cc-pvdz
 ---------------------------------

 ----------------
 pg2T_TT_-170.pdb
 ----------------
 Symbolic Z-matrix:
 Charge =  0 Multiplicity = 1

 SCF Done:  E(RHF) =  -1649.42053057     A.U. after   18 cycles
 SCF Done:  E(RHF) =  -1649.50208241     A.U. after   16 cycles
 SCF Done:  E(RHF) =  -1649.60633170     A.U. after   16 cycles
 SCF Done:  E(RHF) =  -1649.62360527     A.U. after   16 cycles
 SCF Done:  E(RHF) =  -1649.63667091     A.U. after   16 cycles
 SCF Done:  E(RHF) =  -1649.63815051     A.U. after   16 cycles
 SCF Done:  E(RHF) =  -1649.64077643     A.U. after   15 cycles
 SCF Done:  E(RHF) =  -1649.64054008     A.U. after   17 cycles
 SCF Done:  E(RHF) =  -1649.64114993     A.U. after   13 cycles
 SCF Done:  E(RHF) =  -1649.64118101     A.U. after   12 cycles
 SCF Done:  E(RHF) =  -1649.64119295     A.U. after   12 cycles
 SCF Done:  E(RHF) =  -1649.64120510     A.U. after   11 cycles
 SCF Done:  E(RHF) =  -1649.64120511     A.U. after   10 cycles
 SCF Done:  E(RHF) =  -1649.64120573     A.U. after    9 cycles
 SCF Done:  E(RHF) =  -1649.64120573     A.U. after    8 cycles
 Optimization completed.
    -- Stationary point found.

                         Standard orientation:
 ---------------------------------------------------------------------
 Center     Atomic      Atomic             Coordinates (Angstroms)
 Number     Number       Type             X           Y           Z
 ---------------------------------------------------------------------
      1          6           0        3.761621    0.774005    0.043772
      2          6           0        2.366387    1.095040    0.123887
      3          6           0        1.566566    0.003436    0.022537
      4          6           0        3.998711   -0.543382   -0.116480
      5         16           0        2.515141   -1.436506   -0.185462
      6          1           0        4.950855   -1.035955   -0.196295
      7          6           0        0.099649   -0.024068    0.033920
      8         16           0       -0.780560   -1.542028    0.153680
      9          6           0       -2.297258   -0.704001    0.072315
     10          6           0       -2.109103    0.642794   -0.035599
     11          6           0       -0.735896    1.039464   -0.065410
     12          1           0       -0.399790    2.057343   -0.170457
     13         16           0       -3.628373    1.481989   -0.116528
     14          6           0       -4.489279   -0.030990    0.001038
     15          6           0       -3.674811   -1.102812    0.095337
     16          1           0       -5.566008   -0.031161   -0.007265
     17          1           0       -4.024752   -2.118906    0.175845
     18          1           0        1.998622    2.099554    0.267908
     19          8           0        4.752457    1.690278    0.124116
     20          1           0        4.402563    2.554685    0.258396
 ---------------------------------------------------------------------

 The electronic state is 1-A.
 Alpha  occ. eigenvalues --  -91.99563 -91.99485 -91.98977 -20.60785 -11.31437
 Alpha  occ. eigenvalues --  -11.29774 -11.29691 -11.28203 -11.27849 -11.27705
 Alpha  occ. eigenvalues --  -11.26409 -11.26224 -11.25606 -11.25367  -8.99757
 Alpha  occ. eigenvalues --   -8.99667  -8.99199  -6.67923  -6.67844  -6.67834
 Alpha  occ. eigenvalues --   -6.67756  -6.67631  -6.67549  -6.67372  -6.67281
 Alpha  occ. eigenvalues --   -6.67078  -1.42669  -1.22379  -1.18744  -1.13316
 Alpha  occ. eigenvalues --   -1.03402  -1.02739  -0.99210  -0.96206  -0.95000
 Alpha  occ. eigenvalues --   -0.84426  -0.78961  -0.77883  -0.74694  -0.73258
 Alpha  occ. eigenvalues --   -0.71945  -0.67860  -0.66258  -0.61390  -0.60735
 Alpha  occ. eigenvalues --   -0.58293  -0.57530  -0.56218  -0.55014  -0.53299
 Alpha  occ. eigenvalues --   -0.53062  -0.52044  -0.50658  -0.48365  -0.47000
 Alpha  occ. eigenvalues --   -0.46380  -0.39845  -0.36174  -0.33732  -0.32532
 Alpha  occ. eigenvalues --   -0.28241
 Alpha virt. eigenvalues --    0.02818   0.03367   0.04446   0.04770   0.05023
 Alpha virt. eigenvalues --    0.05272   0.07323   0.08333   0.08717   0.09144
 Alpha virt. eigenvalues --    0.09888   0.10261   0.10869   0.11146   0.11960

 Mulliken charges:
               1
     1  C    0.294867
     2  C    0.561969
     3  C    0.352842
     4  C    0.054582
     5  S    0.510743
     6  H   -0.381787
     7  C   -0.164389
     8  S    0.490537
     9  C   -0.671271
    10  C   -0.020788
    11  C    0.714370
    12  H   -0.524694
    13  S    0.519371
    14  C   -0.186419
    15  C    0.443564
    16  H   -0.380557
    17  H   -0.324774
    18  H   -0.564093
    19  O   -0.853869
    20  H    0.129794
 Sum of Mulliken charges =  -0.00000

 Dipole moment (field-independent basis, Debye):
    X=             -1.3267    Y=              1.6227    Z=              0.2236  Tot=              2.1079
 Quadrupole moment (field-independent basis, Debye-Ang):
   XX=            -96.6081   YY=            -92.7148   ZZ=           -110.3667
   XY=              7.2718   XZ=              0.2690   YZ=              0.7710

 Normal termination of Gaussian 16 at Wed Oct 27 01:42:55 2021.
