 Gaussian 16, Revision C.01,
 Gaussian 16:  ES64L-G16RevC.01  3-Jul-2019

 ---------------------------------
 # opt=modredundant hf/aug-cc-pvdz
 ---------------------------------

 ----------------
 pg2T_TT_-110.pdb
 ----------------
 Symbolic Z-matrix:
 Charge =  0 Multiplicity = 1

 SCF Done:  E(RHF) =  -1649.41941784     A.U. after   18 cycles
 SCF Done:  E(RHF) =  -1649.50147218     A.U. after   15 cycles
 SCF Done:  E(RHF) =  -1649.60624489     A.U. after   15 cycles
 SCF Done:  E(RHF) =  -1649.62388989     A.U. after   15 cycles
 SCF Done:  E(RHF) =  -1649.63736177     A.U. after   15 cycles
 SCF Done:  E(RHF) =  -1649.63881257     A.U. after   15 cycles
 SCF Done:  E(RHF) =  -1649.64153519     A.U. after   14 cycles
 SCF Done:  E(RHF) =  -1649.64131739     A.U. after   15 cycles
 SCF Done:  E(RHF) =  -1649.64193667     A.U. after   13 cycles
 SCF Done:  E(RHF) =  -1649.64194390     A.U. after   12 cycles
 SCF Done:  E(RHF) =  -1649.64199504     A.U. after   12 cycles
 SCF Done:  E(RHF) =  -1649.64200668     A.U. after   11 cycles
 SCF Done:  E(RHF) =  -1649.64200693     A.U. after   10 cycles
 SCF Done:  E(RHF) =  -1649.64200762     A.U. after    9 cycles
 SCF Done:  E(RHF) =  -1649.64200761     A.U. after    9 cycles
 Optimization completed.
    -- Stationary point found.

                         Standard orientation:
 ---------------------------------------------------------------------
 Center     Atomic      Atomic             Coordinates (Angstroms)
 Number     Number       Type             X           Y           Z
 ---------------------------------------------------------------------
      1          6           0        3.771394    0.611741    0.349571
      2          6           0        2.378833    0.841131    0.621965
      3          6           0        1.566973    0.017949   -0.079507
      4          6           0        3.982156   -0.383382   -0.534669
      5         16           0        2.483977   -1.068719   -1.075421
      6          1           0        4.927299   -0.746273   -0.897363
      7          6           0        0.095154   -0.024273   -0.030545
      8         16           0       -0.740390   -1.387052    0.700428
      9          6           0       -2.277340   -0.641484    0.388340
     10          6           0       -2.123453    0.567388   -0.224859
     11          6           0       -0.757858    0.927481   -0.470021
     12          1           0       -0.431462    1.833017   -0.954567
     13         16           0       -3.661522    1.311554   -0.538926
     14          6           0       -4.484551   -0.048378    0.178710
     15          6           0       -3.645312   -1.005767    0.625293
     16          1           0       -5.560357   -0.053795    0.225071
     17          1           0       -3.970638   -1.918927    1.096178
     18          1           0        2.012428    1.580515    1.318642
     19          8           0        4.778728    1.311033    0.920358
     20          1           0        4.443884    1.950235    1.526196
 ---------------------------------------------------------------------

 The electronic state is 1-A.
 Alpha  occ. eigenvalues --  -91.99458 -91.99393 -91.98885 -20.60721 -11.31314
 Alpha  occ. eigenvalues --  -11.29380 -11.29299 -11.28141 -11.27715 -11.27546
 Alpha  occ. eigenvalues --  -11.26358 -11.26122 -11.25642 -11.25525  -8.99615
 Alpha  occ. eigenvalues --   -8.99576  -8.99074  -6.67778  -6.67742  -6.67697
 Alpha  occ. eigenvalues --   -6.67664  -6.67487  -6.67457  -6.67241  -6.67151
 Alpha  occ. eigenvalues --   -6.66951  -1.42576  -1.22191  -1.18611  -1.13204
 Alpha  occ. eigenvalues --   -1.03107  -1.02581  -0.98993  -0.96147  -0.94979
 Alpha  occ. eigenvalues --   -0.84113  -0.78611  -0.77786  -0.74681  -0.72672
 Alpha  occ. eigenvalues --   -0.72345  -0.67571  -0.66161  -0.61142  -0.60612
 Alpha  occ. eigenvalues --   -0.58244  -0.57466  -0.56574  -0.54927  -0.54171
 Alpha  occ. eigenvalues --   -0.52557  -0.50968  -0.49583  -0.48605  -0.46715
 Alpha  occ. eigenvalues --   -0.46635  -0.39223  -0.35215  -0.32693  -0.32534
 Alpha  occ. eigenvalues --   -0.30298
 Alpha virt. eigenvalues --    0.02999   0.03383   0.04556   0.04678   0.04788
 Alpha virt. eigenvalues --    0.06073   0.07860   0.08132   0.08216   0.08897
 Alpha virt. eigenvalues --    0.09456   0.10140   0.10397   0.10769   0.11427

 Mulliken charges:
               1
     1  C    0.539980
     2  C    0.176961
     3  C    0.443591
     4  C    0.059276
     5  S    0.443786
     6  H   -0.346437
     7  C    0.363955
     8  S    0.410406
     9  C   -0.784270
    10  C   -0.178735
    11  C    0.075394
    12  H   -0.423702
    13  S    0.640724
    14  C   -0.069074
    15  C    0.596114
    16  H   -0.376534
    17  H   -0.322015
    18  H   -0.532837
    19  O   -0.847370
    20  H    0.130787
 Sum of Mulliken charges =  -0.00000

 Dipole moment (field-independent basis, Debye):
    X=             -1.2107    Y=              1.2543    Z=              1.2596  Tot=              2.1507
 Quadrupole moment (field-independent basis, Debye-Ang):
   XX=            -96.9962   YY=            -98.7278   ZZ=           -104.1771
   XY=              6.0442   XZ=              0.0090   YZ=              2.0073

 Normal termination of Gaussian 16 at Wed Oct 27 02:20:31 2021.
