 Gaussian 16, Revision C.01,
 Gaussian 16:  ES64L-G16RevC.01  3-Jul-2019

 ---------------------------------
 # opt=modredundant hf/aug-cc-pvdz
 ---------------------------------

 ---------------
 pg2T_TT_-45.pdb
 ---------------
 Symbolic Z-matrix:
 Charge =  0 Multiplicity = 1

 SCF Done:  E(RHF) =  -1649.42274720     A.U. after   18 cycles
 SCF Done:  E(RHF) =  -1649.50445133     A.U. after   15 cycles
 SCF Done:  E(RHF) =  -1649.60884040     A.U. after   16 cycles
 SCF Done:  E(RHF) =  -1649.62622129     A.U. after   16 cycles
 SCF Done:  E(RHF) =  -1649.63940247     A.U. after   15 cycles
 SCF Done:  E(RHF) =  -1649.64082420     A.U. after   15 cycles
 SCF Done:  E(RHF) =  -1649.64343376     A.U. after   14 cycles
 SCF Done:  E(RHF) =  -1649.64321540     A.U. after   15 cycles
 SCF Done:  E(RHF) =  -1649.64379262     A.U. after   14 cycles
 SCF Done:  E(RHF) =  -1649.64380862     A.U. after   13 cycles
 SCF Done:  E(RHF) =  -1649.64384866     A.U. after   12 cycles
 SCF Done:  E(RHF) =  -1649.64385937     A.U. after   11 cycles
 SCF Done:  E(RHF) =  -1649.64385975     A.U. after   10 cycles
 SCF Done:  E(RHF) =  -1649.64386041     A.U. after    9 cycles
 SCF Done:  E(RHF) =  -1649.64386040     A.U. after    9 cycles
 Optimization completed.
    -- Stationary point found.

                         Standard orientation:
 ---------------------------------------------------------------------
 Center     Atomic      Atomic             Coordinates (Angstroms)
 Number     Number       Type             X           Y           Z
 ---------------------------------------------------------------------
      1          6           0       -3.817741    0.370895    0.310124
      2          6           0       -2.459011    0.813655    0.455378
      3          6           0       -1.563342   -0.090753   -0.006926
      4          6           0       -3.923805   -0.851335   -0.248722
      5         16           0       -2.361176   -1.497937   -0.634700
      6          1           0       -4.824637   -1.399683   -0.458543
      7          6           0       -0.099359    0.008809    0.000996
      8         16           0        0.682387    1.503411   -0.493095
      9          6           0        2.248412    0.806240   -0.213353
     10          6           0        2.141379   -0.487439    0.206834
     11          6           0        0.792722   -0.953595    0.331664
     12          1           0        0.506918   -1.937637    0.665191
     13         16           0        3.706962   -1.187108    0.483344
     14          6           0        4.476075    0.306906    0.016541
     15          6           0        3.599913    1.274224   -0.326466
     16          1           0        5.550643    0.375924    0.023764
     17          1           0        3.889162    2.262981   -0.642944
     18          1           0       -2.178148    1.754521    0.905044
     19          8           0       -4.892111    1.091747    0.702516
     20          1           0       -4.629286    1.930427    1.042170
 ---------------------------------------------------------------------

 The electronic state is 1-A.
 Alpha  occ. eigenvalues --  -91.99618 -91.99420 -91.98996 -20.60728 -11.31400
 Alpha  occ. eigenvalues --  -11.29543 -11.29461 -11.28169 -11.27795 -11.27645
 Alpha  occ. eigenvalues --  -11.26312 -11.26181 -11.25619 -11.25414  -8.99788
 Alpha  occ. eigenvalues --   -8.99603  -8.99191  -6.67952  -6.67873  -6.67768
 Alpha  occ. eigenvalues --   -6.67690  -6.67662  -6.67484  -6.67360  -6.67270
 Alpha  occ. eigenvalues --   -6.67069  -1.42610  -1.22298  -1.18700  -1.13275
 Alpha  occ. eigenvalues --   -1.03106  -1.02816  -0.99229  -0.96003  -0.95094
 Alpha  occ. eigenvalues --   -0.84287  -0.78602  -0.77994  -0.75082  -0.72867
 Alpha  occ. eigenvalues --   -0.71724  -0.67521  -0.66216  -0.61167  -0.60659
 Alpha  occ. eigenvalues --   -0.58543  -0.57504  -0.56797  -0.54758  -0.53974
 Alpha  occ. eigenvalues --   -0.52830  -0.51296  -0.50059  -0.48291  -0.46922
 Alpha  occ. eigenvalues --   -0.46653  -0.39482  -0.35722  -0.33261  -0.32709
 Alpha  occ. eigenvalues --   -0.29162
 Alpha virt. eigenvalues --    0.03126   0.03367   0.04367   0.04729   0.04932
 Alpha virt. eigenvalues --    0.06293   0.06644   0.08298   0.08325   0.09183
 Alpha virt. eigenvalues --    0.09588   0.10437   0.10605   0.10809   0.11685

 Mulliken charges:
               1
     1  C    0.482010
     2  C    0.220232
     3  C    0.529085
     4  C    0.087477
     5  S    0.444266
     6  H   -0.359833
     7  C    0.325027
     8  S    0.412152
     9  C   -0.698037
    10  C   -0.197324
    11  C    0.228300
    12  H   -0.472229
    13  S    0.600389
    14  C   -0.113392
    15  C    0.499902
    16  H   -0.376446
    17  H   -0.319120
    18  H   -0.577589
    19  O   -0.848059
    20  H    0.133189
 Sum of Mulliken charges =  -0.00000

 Dipole moment (field-independent basis, Debye):
    X=              1.1243    Y=              1.6803    Z=              0.7441  Tot=              2.1544
 Quadrupole moment (field-independent basis, Debye-Ang):
   XX=            -96.4733   YY=            -95.1131   ZZ=           -107.9668
   XY=              0.4573   XZ=             -2.6464   YZ=              1.5690

 Normal termination of Gaussian 16 at Wed Oct 27 02:59:26 2021.
