 Gaussian 16, Revision C.01,
 Gaussian 16:  ES64L-G16RevC.01  3-Jul-2019

 ---------------------------------
 # opt=modredundant hf/aug-cc-pvdz
 ---------------------------------

 ---------------
 pg2T_TT_-85.pdb
 ---------------
 Symbolic Z-matrix:
 Charge =  0 Multiplicity = 1

 SCF Done:  E(RHF) =  -1649.41912113     A.U. after   18 cycles
 SCF Done:  E(RHF) =  -1649.50119368     A.U. after   15 cycles
 SCF Done:  E(RHF) =  -1649.60592601     A.U. after   15 cycles
 SCF Done:  E(RHF) =  -1649.62355151     A.U. after   15 cycles
 SCF Done:  E(RHF) =  -1649.63698221     A.U. after   15 cycles
 SCF Done:  E(RHF) =  -1649.63837994     A.U. after   15 cycles
 SCF Done:  E(RHF) =  -1649.64104413     A.U. after   14 cycles
 SCF Done:  E(RHF) =  -1649.64059824     A.U. after   15 cycles
 SCF Done:  E(RHF) =  -1649.64144942     A.U. after   13 cycles
 SCF Done:  E(RHF) =  -1649.64144267     A.U. after   13 cycles
 SCF Done:  E(RHF) =  -1649.64149836     A.U. after   12 cycles
 SCF Done:  E(RHF) =  -1649.64150972     A.U. after   11 cycles
 SCF Done:  E(RHF) =  -1649.64151011     A.U. after   10 cycles
 SCF Done:  E(RHF) =  -1649.64151081     A.U. after    9 cycles
 SCF Done:  E(RHF) =  -1649.64151084     A.U. after    9 cycles
 Optimization completed.
    -- Stationary point found.

                         Standard orientation:
 ---------------------------------------------------------------------
 Center     Atomic      Atomic             Coordinates (Angstroms)
 Number     Number       Type             X           Y           Z
 ---------------------------------------------------------------------
      1          6           0       -3.802905    0.045461    0.604376
      2          6           0       -2.428664    0.251131    0.972046
      3          6           0       -1.569301   -0.068298   -0.021337
      4          6           0       -3.951916   -0.421301   -0.651517
      5         16           0       -2.416232   -0.626209   -1.428932
      6          1           0       -4.872224   -0.655837   -1.156164
      7          6           0       -0.095528    0.011532    0.009267
      8         16           0        0.719960    1.523269   -0.362124
      9          6           0        2.268199    0.773543   -0.126929
     10          6           0        2.131980   -0.542811    0.204773
     11          6           0        0.771401   -0.987963    0.281311
     12          1           0        0.458250   -1.990206    0.524241
     13         16           0        3.680699   -1.293153    0.442911
     14          6           0        4.483748    0.212797    0.084255
     15          6           0        3.630864    1.219236   -0.198397
     16          1           0        5.559419    0.258708    0.103911
     17          1           0        3.942977    2.220818   -0.445054
     18          1           0       -2.108910    0.618143    1.936333
     19          8           0       -4.849914    0.284968    1.426672
     20          1           0       -4.558293    0.646146    2.246592
 ---------------------------------------------------------------------

 The electronic state is 1-A.
 Alpha  occ. eigenvalues --  -91.99449 -91.99369 -91.98893 -20.60693 -11.31292
 Alpha  occ. eigenvalues --  -11.29317 -11.29238 -11.28131 -11.27699 -11.27523
 Alpha  occ. eigenvalues --  -11.26343 -11.26109 -11.25627 -11.25515  -8.99604
 Alpha  occ. eigenvalues --   -8.99551  -8.99076  -6.67767  -6.67717  -6.67686
 Alpha  occ. eigenvalues --   -6.67639  -6.67477  -6.67432  -6.67242  -6.67152
 Alpha  occ. eigenvalues --   -6.66953  -1.42547  -1.22163  -1.18590  -1.13186
 Alpha  occ. eigenvalues --   -1.03009  -1.02581  -0.99013  -0.96087  -0.94993
 Alpha  occ. eigenvalues --   -0.84044  -0.78485  -0.77842  -0.74824  -0.72572
 Alpha  occ. eigenvalues --   -0.72255  -0.67498  -0.66126  -0.61073  -0.60598
 Alpha  occ. eigenvalues --   -0.58323  -0.57478  -0.56692  -0.54861  -0.54219
 Alpha  occ. eigenvalues --   -0.52470  -0.50944  -0.49375  -0.48690  -0.46661
 Alpha  occ. eigenvalues --   -0.46582  -0.39209  -0.35006  -0.32681  -0.31953
 Alpha  occ. eigenvalues --   -0.31012
 Alpha virt. eigenvalues --    0.03066   0.03380   0.04486   0.04720   0.04763
 Alpha virt. eigenvalues --    0.06243   0.07705   0.08240   0.08421   0.08672
 Alpha virt. eigenvalues --    0.09413   0.09882   0.10357   0.10824   0.11419

 Mulliken charges:
               1
     1  C    0.591415
     2  C    0.203734
     3  C    0.361520
     4  C    0.055232
     5  S    0.407773
     6  H   -0.344948
     7  C    0.403382
     8  S    0.403865
     9  C   -0.763618
    10  C   -0.275000
    11  C    0.107330
    12  H   -0.427944
    13  S    0.652791
    14  C   -0.073760
    15  C    0.640427
    16  H   -0.376607
    17  H   -0.324029
    18  H   -0.525194
    19  O   -0.846593
    20  H    0.130224
 Sum of Mulliken charges =  -0.00000

 Dipole moment (field-independent basis, Debye):
    X=              1.1276    Y=              0.7123    Z=              1.6646  Tot=              2.1330
 Quadrupole moment (field-independent basis, Debye-Ang):
   XX=            -96.7996   YY=           -101.9404   ZZ=           -100.9308
   XY=              2.6980   XZ=             -4.2276   YZ=              1.6203

 Normal termination of Gaussian 16 at Wed Oct 27 02:27:42 2021.
