 Gaussian 16, Revision C.01,
 Gaussian 16:  ES64L-G16RevC.01  3-Jul-2019

 ---------------------------------
 # opt=modredundant hf/aug-cc-pvdz
 ---------------------------------

 ---------------
 pg2T_TT_175.pdb
 ---------------
 Symbolic Z-matrix:
 Charge =  0 Multiplicity = 1

 SCF Done:  E(RHF) =  -1649.42073529     A.U. after   18 cycles
 SCF Done:  E(RHF) =  -1649.50223650     A.U. after   16 cycles
 SCF Done:  E(RHF) =  -1649.60640090     A.U. after   16 cycles
 SCF Done:  E(RHF) =  -1649.62355421     A.U. after   16 cycles
 SCF Done:  E(RHF) =  -1649.63647878     A.U. after   15 cycles
 SCF Done:  E(RHF) =  -1649.63792212     A.U. after   15 cycles
 SCF Done:  E(RHF) =  -1649.64053685     A.U. after   15 cycles
 SCF Done:  E(RHF) =  -1649.64031066     A.U. after   15 cycles
 SCF Done:  E(RHF) =  -1649.64092038     A.U. after   13 cycles
 SCF Done:  E(RHF) =  -1649.64095257     A.U. after   13 cycles
 SCF Done:  E(RHF) =  -1649.64096579     A.U. after   12 cycles
 SCF Done:  E(RHF) =  -1649.64097651     A.U. after   12 cycles
 SCF Done:  E(RHF) =  -1649.64097692     A.U. after   10 cycles
 Optimization completed.
    -- Stationary point found.

                         Standard orientation:
 ---------------------------------------------------------------------
 Center     Atomic      Atomic             Coordinates (Angstroms)
 Number     Number       Type             X           Y           Z
 ---------------------------------------------------------------------
      1          6           0        3.761392    0.777704   -0.021278
      2          6           0        2.365321    1.101303   -0.064131
      3          6           0        1.566645    0.005106   -0.013136
      4          6           0        4.001086   -0.546462    0.059621
      5         16           0        2.518804   -1.443481    0.094434
      6          1           0        4.954134   -1.041995    0.100512
      7          6           0        0.099379   -0.023934   -0.018848
      8         16           0       -0.780432   -1.545829   -0.078611
      9          6           0       -2.297577   -0.706103   -0.036834
     10          6           0       -2.110144    0.643966    0.017539
     11          6           0       -0.737359    1.042198    0.032134
     12          1           0       -0.403225    2.064678    0.085238
     13         16           0       -3.629974    1.485050    0.059873
     14          6           0       -4.489984   -0.031880    0.000295
     15          6           0       -3.674855   -1.106261   -0.047509
     16          1           0       -5.566735   -0.032233    0.005204
     17          1           0       -4.024171   -2.124937   -0.088116
     18          1           0        1.996667    2.112695   -0.137750
     19          8           0        4.750824    1.698380   -0.060920
     20          1           0        4.398943    2.569064   -0.135973
 ---------------------------------------------------------------------

 The electronic state is 1-A.
 Alpha  occ. eigenvalues --  -91.99562 -91.99488 -91.98979 -20.60785 -11.31440
 Alpha  occ. eigenvalues --  -11.29793 -11.29711 -11.28205 -11.27853 -11.27709
 Alpha  occ. eigenvalues --  -11.26410 -11.26228 -11.25610 -11.25362  -8.99758
 Alpha  occ. eigenvalues --   -8.99669  -8.99203  -6.67925  -6.67846  -6.67836
 Alpha  occ. eigenvalues --   -6.67758  -6.67633  -6.67551  -6.67376  -6.67285
 Alpha  occ. eigenvalues --   -6.67082  -1.42664  -1.22386  -1.18749  -1.13321
 Alpha  occ. eigenvalues --   -1.03411  -1.02744  -0.99222  -0.96212  -0.95000
 Alpha  occ. eigenvalues --   -0.84433  -0.78974  -0.77891  -0.74705  -0.73276
 Alpha  occ. eigenvalues --   -0.71937  -0.67874  -0.66261  -0.61405  -0.60734
 Alpha  occ. eigenvalues --   -0.58295  -0.57531  -0.56214  -0.55017  -0.53224
 Alpha  occ. eigenvalues --   -0.53054  -0.52168  -0.50690  -0.48366  -0.47001
 Alpha  occ. eigenvalues --   -0.46357  -0.39882  -0.36205  -0.33770  -0.32505
 Alpha  occ. eigenvalues --   -0.28186
 Alpha virt. eigenvalues --    0.02808   0.03364   0.04440   0.04767   0.05059
 Alpha virt. eigenvalues --    0.05204   0.07465   0.08335   0.08997   0.09137
 Alpha virt. eigenvalues --    0.09767   0.10332   0.10882   0.11245   0.12057

 Mulliken charges:
               1
     1  C    0.240354
     2  C    0.626079
     3  C    0.360151
     4  C    0.060076
     5  S    0.496111
     6  H   -0.385263
     7  C   -0.300608
     8  S    0.506505
     9  C   -0.653380
    10  C    0.010344
    11  C    0.821146
    12  H   -0.531913
    13  S    0.512015
    14  C   -0.213173
    15  C    0.452121
    16  H   -0.381141
    17  H   -0.327224
    18  H   -0.564749
    19  O   -0.854870
    20  H    0.127419
 Sum of Mulliken charges =  -0.00000

 Dipole moment (field-independent basis, Debye):
    X=             -1.3323    Y=              1.6330    Z=             -0.1227  Tot=              2.1111
 Quadrupole moment (field-independent basis, Debye-Ang):
   XX=            -96.6246   YY=            -92.5290   ZZ=           -110.5446
   XY=              7.2834   XZ=             -0.1932   YZ=             -0.4343

 Normal termination of Gaussian 16 at Wed Oct 27 04:19:04 2021.
