 Gaussian 16, Revision C.01,
 Gaussian 16:  ES64L-G16RevC.01  3-Jul-2019

 ---------------------------------
 # opt=modredundant hf/aug-cc-pvdz
 ---------------------------------

 ----------------
 pg2T_TT_-100.pdb
 ----------------
 Symbolic Z-matrix:
 Charge =  0 Multiplicity = 1

 SCF Done:  E(RHF) =  -1649.41914989     A.U. after   18 cycles
 SCF Done:  E(RHF) =  -1649.50120828     A.U. after   15 cycles
 SCF Done:  E(RHF) =  -1649.60591716     A.U. after   15 cycles
 SCF Done:  E(RHF) =  -1649.62352797     A.U. after   15 cycles
 SCF Done:  E(RHF) =  -1649.63697947     A.U. after   15 cycles
 SCF Done:  E(RHF) =  -1649.63840241     A.U. after   15 cycles
 SCF Done:  E(RHF) =  -1649.64110209     A.U. after   14 cycles
 SCF Done:  E(RHF) =  -1649.64079498     A.U. after   15 cycles
 SCF Done:  E(RHF) =  -1649.64150552     A.U. after   13 cycles
 SCF Done:  E(RHF) =  -1649.64150528     A.U. after   12 cycles
 SCF Done:  E(RHF) =  -1649.64156079     A.U. after   12 cycles
 SCF Done:  E(RHF) =  -1649.64157195     A.U. after   11 cycles
 SCF Done:  E(RHF) =  -1649.64157229     A.U. after   10 cycles
 SCF Done:  E(RHF) =  -1649.64157295     A.U. after    9 cycles
 SCF Done:  E(RHF) =  -1649.64157295     A.U. after    9 cycles
 Optimization completed.
    -- Stationary point found.

                         Standard orientation:
 ---------------------------------------------------------------------
 Center     Atomic      Atomic             Coordinates (Angstroms)
 Number     Number       Type             X           Y           Z
 ---------------------------------------------------------------------
      1          6           0        3.782777    0.513276    0.431833
      2          6           0        2.395848    0.687666    0.767075
      3          6           0        1.568211    0.030177   -0.075675
      4          6           0        3.973011   -0.276050   -0.644044
      5         16           0        2.462195   -0.828434   -1.290540
      6          1           0        4.910152   -0.557580   -1.090276
      7          6           0        0.094631   -0.014714   -0.018021
      8         16           0       -0.732029   -1.402241    0.675347
      9          6           0       -2.273875   -0.659362    0.382297
     10          6           0       -2.127885    0.564620   -0.202164
     11          6           0       -0.764348    0.940303   -0.436468
     12          1           0       -0.443419    1.861496   -0.894570
     13         16           0       -3.670600    1.307775   -0.495351
     14          6           0       -4.484710   -0.073527    0.190745
     15          6           0       -3.639498   -1.036592    0.613115
     16          1           0       -5.560416   -0.086337    0.238140
     17          1           0       -3.958967   -1.962527    1.062563
     18          1           0        2.044418    1.274010    1.603281
     19          8           0        4.803447    1.076443    1.118044
     20          1           0        4.482634    1.570992    1.853057
 ---------------------------------------------------------------------

 The electronic state is 1-A.
 Alpha  occ. eigenvalues --  -91.99436 -91.99381 -91.98872 -20.60704 -11.31292
 Alpha  occ. eigenvalues --  -11.29334 -11.29254 -11.28137 -11.27704 -11.27525
 Alpha  occ. eigenvalues --  -11.26358 -11.26112 -11.25638 -11.25530  -8.99592
 Alpha  occ. eigenvalues --   -8.99563  -8.99058  -6.67754  -6.67730  -6.67674
 Alpha  occ. eigenvalues --   -6.67651  -6.67464  -6.67444  -6.67224  -6.67134
 Alpha  occ. eigenvalues --   -6.66935  -1.42556  -1.22168  -1.18590  -1.13189
 Alpha  occ. eigenvalues --   -1.03054  -1.02565  -0.98980  -0.96129  -0.94978
 Alpha  occ. eigenvalues --   -0.84062  -0.78546  -0.77800  -0.74730  -0.72529
 Alpha  occ. eigenvalues --   -0.72414  -0.67535  -0.66140  -0.61104  -0.60599
 Alpha  occ. eigenvalues --   -0.58257  -0.57472  -0.56633  -0.54901  -0.54210
 Alpha  occ. eigenvalues --   -0.52492  -0.50937  -0.49415  -0.48687  -0.46648
 Alpha  occ. eigenvalues --   -0.46626  -0.39193  -0.35068  -0.32600  -0.32241
 Alpha  occ. eigenvalues --   -0.30780
 Alpha virt. eigenvalues --    0.03027   0.03382   0.04551   0.04658   0.04778
 Alpha virt. eigenvalues --    0.06142   0.07932   0.08167   0.08300   0.08739
 Alpha virt. eigenvalues --    0.09413   0.09974   0.10373   0.10762   0.11450

 Mulliken charges:
               1
     1  C    0.578965
     2  C    0.177681
     3  C    0.394735
     4  C    0.050881
     5  S    0.427770
     6  H   -0.344369
     7  C    0.377218
     8  S    0.412189
     9  C   -0.770932
    10  C   -0.231553
    11  C    0.085943
    12  H   -0.421171
    13  S    0.649814
    14  C   -0.069755
    15  C    0.626745
    16  H   -0.376558
    17  H   -0.323775
    18  H   -0.525491
    19  O   -0.848431
    20  H    0.130095
 Sum of Mulliken charges =  -0.00000

 Dipole moment (field-independent basis, Debye):
    X=             -1.1814    Y=              0.9848    Z=              1.5060  Tot=              2.1526
 Quadrupole moment (field-independent basis, Debye-Ang):
   XX=            -96.9749   YY=           -100.6873   ZZ=           -102.1825
   XY=              5.6491   XZ=              0.7126   YZ=              1.9065

 Normal termination of Gaussian 16 at Wed Oct 27 02:22:51 2021.
