 Gaussian 16, Revision C.01,
 Gaussian 16:  ES64L-G16RevC.01  3-Jul-2019

 ---------------------------------
 # opt=modredundant hf/aug-cc-pvdz
 ---------------------------------

 ---------------
 pg2T_TT_-40.pdb
 ---------------
 Symbolic Z-matrix:
 Charge =  0 Multiplicity = 1

 SCF Done:  E(RHF) =  -1649.42318428     A.U. after   18 cycles
 SCF Done:  E(RHF) =  -1649.50480857     A.U. after   15 cycles
 SCF Done:  E(RHF) =  -1649.60912187     A.U. after   16 cycles
 SCF Done:  E(RHF) =  -1649.62644362     A.U. after   16 cycles
 SCF Done:  E(RHF) =  -1649.63957322     A.U. after   15 cycles
 SCF Done:  E(RHF) =  -1649.64100001     A.U. after   15 cycles
 SCF Done:  E(RHF) =  -1649.64360735     A.U. after   15 cycles
 SCF Done:  E(RHF) =  -1649.64346935     A.U. after   15 cycles
 SCF Done:  E(RHF) =  -1649.64395698     A.U. after   14 cycles
 SCF Done:  E(RHF) =  -1649.64398491     A.U. after   13 cycles
 SCF Done:  E(RHF) =  -1649.64401639     A.U. after   12 cycles
 SCF Done:  E(RHF) =  -1649.64402847     A.U. after   11 cycles
 SCF Done:  E(RHF) =  -1649.64402874     A.U. after   10 cycles
 SCF Done:  E(RHF) =  -1649.64402948     A.U. after    9 cycles
 SCF Done:  E(RHF) =  -1649.64402948     A.U. after    9 cycles
 Optimization completed.
    -- Stationary point found.

                         Standard orientation:
 ---------------------------------------------------------------------
 Center     Atomic      Atomic             Coordinates (Angstroms)
 Number     Number       Type             X           Y           Z
 ---------------------------------------------------------------------
      1          6           0       -3.818169    0.381265    0.279946
      2          6           0       -2.459769    0.830379    0.407301
      3          6           0       -1.562454   -0.096159   -0.006125
      4          6           0       -3.923261   -0.866578   -0.218856
      5         16           0       -2.359571   -1.531421   -0.569167
      6          1           0       -4.823409   -1.424774   -0.404023
      7          6           0       -0.099559    0.005176   -0.003014
      8         16           0        0.678136    1.516726   -0.450757
      9          6           0        2.246319    0.815452   -0.193884
     10          6           0        2.143100   -0.490683    0.186608
     11          6           0        0.795994   -0.963897    0.298799
     12          1           0        0.514168   -1.957945    0.604939
     13         16           0        3.710832   -1.194485    0.439096
     14          6           0        4.475477    0.314978    0.016877
     15          6           0        3.596281    1.290132   -0.295038
     16          1           0        5.549872    0.386498    0.024635
     17          1           0        3.882517    2.288837   -0.581601
     18          1           0       -2.181136    1.792221    0.811611
     19          8           0       -4.893199    1.121052    0.633076
     20          1           0       -4.630534    1.973240    0.937390
 ---------------------------------------------------------------------

 The electronic state is 1-A.
 Alpha  occ. eigenvalues --  -91.99628 -91.99433 -91.98989 -20.60733 -11.31409
 Alpha  occ. eigenvalues --  -11.29576 -11.29494 -11.28180 -11.27815 -11.27664
 Alpha  occ. eigenvalues --  -11.26324 -11.26195 -11.25621 -11.25409  -8.99802
 Alpha  occ. eigenvalues --   -8.99616  -8.99188  -6.67967  -6.67888  -6.67782
 Alpha  occ. eigenvalues --   -6.67704  -6.67676  -6.67497  -6.67358  -6.67267
 Alpha  occ. eigenvalues --   -6.67066  -1.42617  -1.22320  -1.18709  -1.13288
 Alpha  occ. eigenvalues --   -1.03127  -1.02848  -0.99249  -0.95999  -0.95105
 Alpha  occ. eigenvalues --   -0.84321  -0.78628  -0.78012  -0.75115  -0.72899
 Alpha  occ. eigenvalues --   -0.71675  -0.67533  -0.66230  -0.61188  -0.60668
 Alpha  occ. eigenvalues --   -0.58559  -0.57513  -0.56804  -0.54753  -0.53910
 Alpha  occ. eigenvalues --   -0.52891  -0.51380  -0.50146  -0.48245  -0.46954
 Alpha  occ. eigenvalues --   -0.46654  -0.39523  -0.35835  -0.33314  -0.32753
 Alpha  occ. eigenvalues --   -0.28984
 Alpha virt. eigenvalues --    0.03127   0.03363   0.04357   0.04727   0.04947
 Alpha virt. eigenvalues --    0.06144   0.06633   0.08307   0.08375   0.09300
 Alpha virt. eigenvalues --    0.09551   0.10466   0.10636   0.10826   0.11709

 Mulliken charges:
               1
     1  C    0.472480
     2  C    0.217969
     3  C    0.546368
     4  C    0.083275
     5  S    0.453037
     6  H   -0.363631
     7  C    0.312283
     8  S    0.422936
     9  C   -0.691866
    10  C   -0.181551
    11  C    0.245002
    12  H   -0.478140
    13  S    0.591819
    14  C   -0.122044
    15  C    0.487661
    16  H   -0.376772
    17  H   -0.319913
    18  H   -0.583857
    19  O   -0.848362
    20  H    0.133306
 Sum of Mulliken charges =  -0.00000

 Dipole moment (field-independent basis, Debye):
    X=              1.1369    Y=              1.7117    Z=              0.6760  Tot=              2.1632
 Quadrupole moment (field-independent basis, Debye-Ang):
   XX=            -96.4457   YY=            -94.6404   ZZ=           -108.4700
   XY=              0.4190   XZ=             -2.3787   YZ=              1.4250

 Normal termination of Gaussian 16 at Wed Oct 27 02:44:26 2021.
