 Gaussian 16, Revision C.01,
 Gaussian 16:  ES64L-G16RevC.01  3-Jul-2019

 ---------------------------------
 # opt=modredundant hf/aug-cc-pvdz
 ---------------------------------

 --------------
 pg2T_TT_45.pdb
 --------------
 Symbolic Z-matrix:
 Charge =  0 Multiplicity = 1

 SCF Done:  E(RHF) =  -1649.42204757     A.U. after   18 cycles
 SCF Done:  E(RHF) =  -1649.50390693     A.U. after   15 cycles
 SCF Done:  E(RHF) =  -1649.60862213     A.U. after   15 cycles
 SCF Done:  E(RHF) =  -1649.62606326     A.U. after   16 cycles
 SCF Done:  E(RHF) =  -1649.63930830     A.U. after   15 cycles
 SCF Done:  E(RHF) =  -1649.64071508     A.U. after   15 cycles
 SCF Done:  E(RHF) =  -1649.64334641     A.U. after   15 cycles
 SCF Done:  E(RHF) =  -1649.64273000     A.U. after   15 cycles
 SCF Done:  E(RHF) =  -1649.64381833     A.U. after   13 cycles
 SCF Done:  E(RHF) =  -1649.64383355     A.U. after   12 cycles
 SCF Done:  E(RHF) =  -1649.64384449     A.U. after   12 cycles
 SCF Done:  E(RHF) =  -1649.64385944     A.U. after   11 cycles
 SCF Done:  E(RHF) =  -1649.64385998     A.U. after    9 cycles
 SCF Done:  E(RHF) =  -1649.64386003     A.U. after    9 cycles
 Optimization completed.
    -- Stationary point found.

                         Standard orientation:
 ---------------------------------------------------------------------
 Center     Atomic      Atomic             Coordinates (Angstroms)
 Number     Number       Type             X           Y           Z
 ---------------------------------------------------------------------
      1          6           0        3.817727    0.370894    0.310098
      2          6           0        2.459001    0.813655    0.455373
      3          6           0        1.563332   -0.090738   -0.006974
      4          6           0        3.923781   -0.851315   -0.248823
      5         16           0        2.361147   -1.497918   -0.634813
      6          1           0        4.824585   -1.399700   -0.458680
      7          6           0        0.099355    0.008850    0.001048
      8         16           0       -0.682402    1.503418   -0.493093
      9          6           0       -2.248412    0.806245   -0.213314
     10          6           0       -2.141351   -0.487412    0.206922
     11          6           0       -0.792692   -0.953536    0.331759
     12          1           0       -0.506849   -1.937596    0.665203
     13         16           0       -3.706914   -1.187087    0.483452
     14          6           0       -4.476062    0.306811    0.016353
     15          6           0       -3.599915    1.274177   -0.326515
     16          1           0       -5.550636    0.375742    0.023415
     17          1           0       -3.889193    2.262897   -0.643078
     18          1           0        2.178121    1.754422    0.905170
     19          8           0        4.892085    1.091598    0.702870
     20          1           0        4.629404    1.931041    1.040734
 ---------------------------------------------------------------------

 The electronic state is 1-A.
 Alpha  occ. eigenvalues --  -91.99618 -91.99419 -91.98996 -20.60728 -11.31400
 Alpha  occ. eigenvalues --  -11.29543 -11.29461 -11.28168 -11.27795 -11.27645
 Alpha  occ. eigenvalues --  -11.26312 -11.26181 -11.25620 -11.25414  -8.99787
 Alpha  occ. eigenvalues --   -8.99602  -8.99192  -6.67952  -6.67873  -6.67768
 Alpha  occ. eigenvalues --   -6.67690  -6.67661  -6.67483  -6.67361  -6.67270
 Alpha  occ. eigenvalues --   -6.67069  -1.42609  -1.22299  -1.18700  -1.13275
 Alpha  occ. eigenvalues --   -1.03106  -1.02816  -0.99230  -0.96003  -0.95094
 Alpha  occ. eigenvalues --   -0.84286  -0.78602  -0.77994  -0.75082  -0.72867
 Alpha  occ. eigenvalues --   -0.71725  -0.67521  -0.66216  -0.61167  -0.60658
 Alpha  occ. eigenvalues --   -0.58543  -0.57504  -0.56798  -0.54758  -0.53975
 Alpha  occ. eigenvalues --   -0.52830  -0.51294  -0.50060  -0.48291  -0.46923
 Alpha  occ. eigenvalues --   -0.46653  -0.39482  -0.35722  -0.33261  -0.32709
 Alpha  occ. eigenvalues --   -0.29163
 Alpha virt. eigenvalues --    0.03126   0.03367   0.04367   0.04729   0.04932
 Alpha virt. eigenvalues --    0.06293   0.06645   0.08297   0.08325   0.09183
 Alpha virt. eigenvalues --    0.09588   0.10436   0.10606   0.10809   0.11686

 Mulliken charges:
               1
     1  C    0.482004
     2  C    0.220405
     3  C    0.528918
     4  C    0.087587
     5  S    0.444164
     6  H   -0.359818
     7  C    0.325079
     8  S    0.412126
     9  C   -0.698062
    10  C   -0.197343
    11  C    0.228239
    12  H   -0.472214
    13  S    0.600392
    14  C   -0.113414
    15  C    0.499956
    16  H   -0.376449
    17  H   -0.319115
    18  H   -0.577590
    19  O   -0.848022
    20  H    0.133155
 Sum of Mulliken charges =  -0.00000

 Dipole moment (field-independent basis, Debye):
    X=             -1.1242    Y=              1.6812    Z=              0.7410  Tot=              2.1539
 Quadrupole moment (field-independent basis, Debye-Ang):
   XX=            -96.4718   YY=            -95.1076   ZZ=           -107.9736
   XY=             -0.4506   XZ=              2.6333   YZ=              1.5636

 Normal termination of Gaussian 16 at Wed Oct 27 03:16:33 2021.
