 Gaussian 16, Revision C.01,
 Gaussian 16:  ES64L-G16RevC.01  3-Jul-2019

 ---------------------------------
 # opt=modredundant hf/aug-cc-pvdz
 ---------------------------------

 --------------
 pg2T_TT_30.pdb
 --------------
 Symbolic Z-matrix:
 Charge =  0 Multiplicity = 1

 SCF Done:  E(RHF) =  -1649.42250168     A.U. after   18 cycles
 SCF Done:  E(RHF) =  -1649.50431875     A.U. after   15 cycles
 SCF Done:  E(RHF) =  -1649.60901484     A.U. after   16 cycles
 SCF Done:  E(RHF) =  -1649.62645463     A.U. after   16 cycles
 SCF Done:  E(RHF) =  -1649.63966815     A.U. after   15 cycles
 SCF Done:  E(RHF) =  -1649.64108311     A.U. after   15 cycles
 SCF Done:  E(RHF) =  -1649.64369652     A.U. after   15 cycles
 SCF Done:  E(RHF) =  -1649.64330325     A.U. after   14 cycles
 SCF Done:  E(RHF) =  -1649.64409872     A.U. after   13 cycles
 SCF Done:  E(RHF) =  -1649.64412087     A.U. after   12 cycles
 SCF Done:  E(RHF) =  -1649.64413278     A.U. after   12 cycles
 SCF Done:  E(RHF) =  -1649.64414582     A.U. after   11 cycles
 SCF Done:  E(RHF) =  -1649.64414623     A.U. after    9 cycles
 SCF Done:  E(RHF) =  -1649.64414640     A.U. after    9 cycles
 SCF Done:  E(RHF) =  -1649.64414641     A.U. after    8 cycles
 Optimization completed.
    -- Stationary point found.

                         Standard orientation:
 ---------------------------------------------------------------------
 Center     Atomic      Atomic             Coordinates (Angstroms)
 Number     Number       Type             X           Y           Z
 ---------------------------------------------------------------------
      1          6           0       -3.819993    0.397022   -0.217528
      2          6           0       -2.462365    0.856473   -0.311548
      3          6           0       -1.561102   -0.104908    0.003154
      4          6           0       -3.922406   -0.891772    0.162547
      5         16           0       -2.356136   -1.586511    0.437997
      6          1           0       -4.820852   -1.466085    0.300207
      7          6           0       -0.099949    0.000458    0.009275
      8         16           0        0.671428    1.542075    0.357231
      9          6           0        2.243179    0.831825    0.151493
     10          6           0        2.146270   -0.496307   -0.144269
     11          6           0        0.801713   -0.981059   -0.229739
     12          1           0        0.527273   -1.993915   -0.475002
     13         16           0        3.717580   -1.208697   -0.344334
     14          6           0        4.474822    0.327583   -0.016300
     15          6           0        3.590555    1.317457    0.228133
     16          1           0        5.548956    0.402731   -0.024324
     17          1           0        3.871770    2.333683    0.450941
     18          1           0       -2.189229    1.853298   -0.624536
     19          8           0       -4.896670    1.167285   -0.490925
     20          1           0       -4.634861    2.041492   -0.725508
 ---------------------------------------------------------------------

 The electronic state is 1-A.
 Alpha  occ. eigenvalues --  -91.99637 -91.99462 -91.98964 -20.60743 -11.31423
 Alpha  occ. eigenvalues --  -11.29638 -11.29557 -11.28205 -11.27855 -11.27700
 Alpha  occ. eigenvalues --  -11.26357 -11.26222 -11.25628 -11.25409  -8.99818
 Alpha  occ. eigenvalues --   -8.99645  -8.99171  -6.67985  -6.67906  -6.67810
 Alpha  occ. eigenvalues --   -6.67732  -6.67694  -6.67526  -6.67343  -6.67252
 Alpha  occ. eigenvalues --   -6.67049  -1.42633  -1.22360  -1.18722  -1.13313
 Alpha  occ. eigenvalues --   -1.03171  -1.02904  -0.99283  -0.95994  -0.95125
 Alpha  occ. eigenvalues --   -0.84384  -0.78679  -0.78047  -0.75179  -0.72960
 Alpha  occ. eigenvalues --   -0.71588  -0.67558  -0.66255  -0.61234  -0.60688
 Alpha  occ. eigenvalues --   -0.58586  -0.57532  -0.56810  -0.54753  -0.53750
 Alpha  occ. eigenvalues --   -0.53006  -0.51585  -0.50302  -0.48157  -0.47005
 Alpha  occ. eigenvalues --   -0.46647  -0.39602  -0.36049  -0.33420  -0.32798
 Alpha  occ. eigenvalues --   -0.28675
 Alpha virt. eigenvalues --    0.03127   0.03353   0.04339   0.04721   0.04968
 Alpha virt. eigenvalues --    0.05811   0.06662   0.08304   0.08540   0.09426
 Alpha virt. eigenvalues --    0.09629   0.10512   0.10631   0.10908   0.11693

 Mulliken charges:
               1
     1  C    0.445541
     2  C    0.220481
     3  C    0.571235
     4  C    0.076574
     5  S    0.468211
     6  H   -0.374061
     7  C    0.295424
     8  S    0.448761
     9  C   -0.686585
    10  C   -0.149630
    11  C    0.282354
    12  H   -0.490249
    13  S    0.572818
    14  C   -0.139248
    15  C    0.464724
    16  H   -0.377698
    17  H   -0.322559
    18  H   -0.591004
    19  O   -0.848741
    20  H    0.133652
 Sum of Mulliken charges =  -0.00000

 Dipole moment (field-independent basis, Debye):
    X=              1.1618    Y=              1.7613    Z=             -0.5368  Tot=              2.1772
 Quadrupole moment (field-independent basis, Debye-Ang):
   XX=            -96.3682   YY=            -93.8397   ZZ=           -109.3377
   XY=              0.3297   XZ=              1.8400   YZ=             -1.1236

 Normal termination of Gaussian 16 at Wed Oct 27 03:24:32 2021.
