 Gaussian 16, Revision C.01,
 Gaussian 16:  ES64L-G16RevC.01  3-Jul-2019

 ---------------------------------
 # opt=modredundant hf/aug-cc-pvdz
 ---------------------------------

 ---------------
 pg2T_TT_150.pdb
 ---------------
 Symbolic Z-matrix:
 Charge =  0 Multiplicity = 1

 SCF Done:  E(RHF) =  -1649.42192059     A.U. after   18 cycles
 SCF Done:  E(RHF) =  -1649.50350618     A.U. after   16 cycles
 SCF Done:  E(RHF) =  -1649.60778916     A.U. after   16 cycles
 SCF Done:  E(RHF) =  -1649.62508839     A.U. after   16 cycles
 SCF Done:  E(RHF) =  -1649.63805928     A.U. after   15 cycles
 SCF Done:  E(RHF) =  -1649.63949102     A.U. after   15 cycles
 SCF Done:  E(RHF) =  -1649.64212010     A.U. after   15 cycles
 SCF Done:  E(RHF) =  -1649.64189381     A.U. after   15 cycles
 SCF Done:  E(RHF) =  -1649.64249814     A.U. after   13 cycles
 SCF Done:  E(RHF) =  -1649.64252383     A.U. after   13 cycles
 SCF Done:  E(RHF) =  -1649.64255417     A.U. after   12 cycles
 SCF Done:  E(RHF) =  -1649.64256465     A.U. after   12 cycles
 SCF Done:  E(RHF) =  -1649.64256533     A.U. after   10 cycles
 Optimization completed.
    -- Stationary point found.

                         Standard orientation:
 ---------------------------------------------------------------------
 Center     Atomic      Atomic             Coordinates (Angstroms)
 Number     Number       Type             X           Y           Z
 ---------------------------------------------------------------------
      1          6           0        3.762518    0.745727   -0.138312
      2          6           0        2.369571    1.045304   -0.311890
      3          6           0        1.565790   -0.003671   -0.010088
      4          6           0        3.988752   -0.515200    0.281359
      5         16           0        2.499601   -1.376096    0.500258
      6          1           0        4.937735   -0.983474    0.471378
      7          6           0        0.100036   -0.026502   -0.035977
      8         16           0       -0.776934   -1.508098   -0.391394
      9          6           0       -2.294107   -0.686987   -0.198638
     10          6           0       -2.106163    0.629070    0.108007
     11          6           0       -0.731730    1.013341    0.213696
     12          1           0       -0.387606    1.996804    0.487768
     13         16           0       -3.625210    1.449413    0.302307
     14          6           0       -4.486374   -0.027565   -0.044571
     15          6           0       -3.672158   -1.075229   -0.289957
     16          1           0       -5.563154   -0.026832   -0.044749
     17          1           0       -4.022392   -2.067591   -0.522293
     18          1           0        2.002306    1.993585   -0.673717
     19          8           0        4.759881    1.626378   -0.379711
     20          1           0        4.417949    2.443259   -0.701228
 ---------------------------------------------------------------------

 The electronic state is 1-A.
 Alpha  occ. eigenvalues --  -91.99559 -91.99459 -91.98969 -20.60773 -11.31420
 Alpha  occ. eigenvalues --  -11.29639 -11.29555 -11.28181 -11.27812 -11.27668
 Alpha  occ. eigenvalues --  -11.26388 -11.26192 -11.25611 -11.25402  -8.99738
 Alpha  occ. eigenvalues --   -8.99642  -8.99176  -6.67903  -6.67823  -6.67808
 Alpha  occ. eigenvalues --   -6.67730  -6.67611  -6.67523  -6.67346  -6.67255
 Alpha  occ. eigenvalues --   -6.67054  -1.42644  -1.22332  -1.18711  -1.13289
 Alpha  occ. eigenvalues --   -1.03334  -1.02699  -0.99145  -0.96183  -0.95002
 Alpha  occ. eigenvalues --   -0.84355  -0.78868  -0.77834  -0.74635  -0.73131
 Alpha  occ. eigenvalues --   -0.72052  -0.67767  -0.66235  -0.61300  -0.60702
 Alpha  occ. eigenvalues --   -0.58280  -0.57517  -0.56291  -0.54992  -0.53732
 Alpha  occ. eigenvalues --   -0.52929  -0.51468  -0.50396  -0.48388  -0.46982
 Alpha  occ. eigenvalues --   -0.46519  -0.39603  -0.35930  -0.33461  -0.32676
 Alpha  occ. eigenvalues --   -0.28708
 Alpha virt. eigenvalues --    0.02877   0.03375   0.04480   0.04780   0.04923
 Alpha virt. eigenvalues --    0.05636   0.06939   0.08295   0.08347   0.09207
 Alpha virt. eigenvalues --    0.09800   0.10157   0.10727   0.11062   0.11696

 Mulliken charges:
               1
     1  C    0.401278
     2  C    0.300186
     3  C    0.452039
     4  C    0.077297
     5  S    0.519461
     6  H   -0.363312
     7  C    0.127636
     8  S    0.447935
     9  C   -0.715410
    10  C   -0.104467
    11  C    0.341037
    12  H   -0.464554
    13  S    0.572737
    14  C   -0.105930
    15  C    0.482941
    16  H   -0.379615
    17  H   -0.319453
    18  H   -0.555969
    19  O   -0.846730
    20  H    0.132892
 Sum of Mulliken charges =  -0.00000

 Dipole moment (field-independent basis, Debye):
    X=             -1.2902    Y=              1.5416    Z=             -0.5988  Tot=              2.0975
 Quadrupole moment (field-independent basis, Debye-Ang):
   XX=            -96.6174   YY=            -94.1271   ZZ=           -108.9685
   XY=              7.0465   XZ=             -0.2779   YZ=             -1.5805

 Normal termination of Gaussian 16 at Wed Oct 27 04:09:39 2021.
