 Gaussian 16, Revision C.01,
 Gaussian 16:  ES64L-G16RevC.01  3-Jul-2019

 ---------------------------------
 # opt=modredundant hf/aug-cc-pvdz
 ---------------------------------

 ---------------
 pg2T_TT_130.pdb
 ---------------
 Symbolic Z-matrix:
 Charge =  0 Multiplicity = 1

 SCF Done:  E(RHF) =  -1649.42141302     A.U. after   18 cycles
 SCF Done:  E(RHF) =  -1649.50320397     A.U. after   15 cycles
 SCF Done:  E(RHF) =  -1649.60774770     A.U. after   15 cycles
 SCF Done:  E(RHF) =  -1649.62524983     A.U. after   16 cycles
 SCF Done:  E(RHF) =  -1649.63837998     A.U. after   15 cycles
 SCF Done:  E(RHF) =  -1649.63979424     A.U. after   15 cycles
 SCF Done:  E(RHF) =  -1649.64242696     A.U. after   14 cycles
 SCF Done:  E(RHF) =  -1649.64211463     A.U. after   15 cycles
 SCF Done:  E(RHF) =  -1649.64280803     A.U. after   13 cycles
 SCF Done:  E(RHF) =  -1649.64281917     A.U. after   12 cycles
 SCF Done:  E(RHF) =  -1649.64286395     A.U. after   12 cycles
 SCF Done:  E(RHF) =  -1649.64287353     A.U. after   11 cycles
 SCF Done:  E(RHF) =  -1649.64287422     A.U. after   10 cycles
 Optimization completed.
    -- Stationary point found.

                         Standard orientation:
 ---------------------------------------------------------------------
 Center     Atomic      Atomic             Coordinates (Angstroms)
 Number     Number       Type             X           Y           Z
 ---------------------------------------------------------------------
      1          6           0        3.762974    0.700815   -0.240012
      2          6           0        2.368165    0.972696   -0.451237
      3          6           0        1.565592    0.002018    0.045211
      4          6           0        3.987264   -0.467926    0.392815
      5         16           0        2.497195   -1.270283    0.772139
      6          1           0        4.936871   -0.898346    0.656013
      7          6           0        0.097884   -0.029557    0.010852
      8         16           0       -0.760949   -1.450787   -0.565305
      9          6           0       -2.286444   -0.663000   -0.305168
     10          6           0       -2.112590    0.600780    0.178567
     11          6           0       -0.741546    0.969613    0.368524
     12          1           0       -0.402844    1.911335    0.767945
     13         16           0       -3.639552    1.386342    0.441671
     14          6           0       -4.485125   -0.032432   -0.119323
     15          6           0       -3.660563   -1.037361   -0.480884
     16          1           0       -5.561581   -0.032924   -0.146599
     17          1           0       -4.000600   -1.990573   -0.851301
     18          1           0        1.995250    1.842980   -0.969694
     19          8           0        4.761620    1.519553   -0.642015
     20          1           0        4.419167    2.272885   -1.092389
 ---------------------------------------------------------------------

 The electronic state is 1-A.
 Alpha  occ. eigenvalues --  -91.99522 -91.99424 -91.98934 -20.60753 -11.31375
 Alpha  occ. eigenvalues --  -11.29502 -11.29419 -11.28156 -11.27757 -11.27608
 Alpha  occ. eigenvalues --  -11.26362 -11.26153 -11.25632 -11.25472  -8.99687
 Alpha  occ. eigenvalues --   -8.99607  -8.99130  -6.67850  -6.67773  -6.67770
 Alpha  occ. eigenvalues --   -6.67695  -6.67559  -6.67488  -6.67298  -6.67208
 Alpha  occ. eigenvalues --   -6.67008  -1.42612  -1.22260  -1.18665  -1.13247
 Alpha  occ. eigenvalues --   -1.03229  -1.02639  -0.99065  -0.96167  -0.94993
 Alpha  occ. eigenvalues --   -0.84243  -0.78748  -0.77795  -0.74626  -0.72936
 Alpha  occ. eigenvalues --   -0.72194  -0.67662  -0.66204  -0.61218  -0.60655
 Alpha  occ. eigenvalues --   -0.58258  -0.57482  -0.56428  -0.54964  -0.54017
 Alpha  occ. eigenvalues --   -0.52740  -0.51123  -0.50002  -0.48463  -0.46889
 Alpha  occ. eigenvalues --   -0.46606  -0.39370  -0.35588  -0.33129  -0.32686
 Alpha  occ. eigenvalues --   -0.29405
 Alpha virt. eigenvalues --    0.02939   0.03378   0.04515   0.04769   0.04826
 Alpha virt. eigenvalues --    0.05917   0.07249   0.08239   0.08262   0.09233
 Alpha virt. eigenvalues --    0.09436   0.10289   0.10641   0.10896   0.11494

 Mulliken charges:
               1
     1  C    0.469650
     2  C    0.206694
     3  C    0.489308
     4  C    0.078742
     5  S    0.473549
     6  H   -0.351857
     7  C    0.309020
     8  S    0.406186
     9  C   -0.784777
    10  C   -0.108394
    11  C    0.116963
    12  H   -0.436620
    13  S    0.614301
    14  C   -0.068341
    15  C    0.544650
    16  H   -0.378812
    17  H   -0.319068
    18  H   -0.548266
    19  O   -0.844813
    20  H    0.131886
 Sum of Mulliken charges =  -0.00000

 Dipole moment (field-independent basis, Debye):
    X=             -1.2513    Y=              1.4426    Z=             -0.9189  Tot=              2.1193
 Quadrupole moment (field-independent basis, Debye-Ang):
   XX=            -96.8170   YY=            -96.0499   ZZ=           -106.9674
   XY=              6.5956   XZ=              0.0640   YZ=             -1.8235

 Normal termination of Gaussian 16 at Wed Oct 27 03:59:59 2021.
