 Gaussian 16, Revision C.01,
 Gaussian 16:  ES64L-G16RevC.01  3-Jul-2019

 ---------------------------------
 # opt=modredundant hf/aug-cc-pvdz
 ---------------------------------

 --------------
 pg2T_TT_15.pdb
 --------------
 Symbolic Z-matrix:
 Charge =  0 Multiplicity = 1

 SCF Done:  E(RHF) =  -1649.42284869     A.U. after   19 cycles
 SCF Done:  E(RHF) =  -1649.50454421     A.U. after   16 cycles
 SCF Done:  E(RHF) =  -1649.60904341     A.U. after   16 cycles
 SCF Done:  E(RHF) =  -1649.62632146     A.U. after   16 cycles
 SCF Done:  E(RHF) =  -1649.63948071     A.U. after   15 cycles
 SCF Done:  E(RHF) =  -1649.64089735     A.U. after   15 cycles
 SCF Done:  E(RHF) =  -1649.64350116     A.U. after   15 cycles
 SCF Done:  E(RHF) =  -1649.64341650     A.U. after   14 cycles
 SCF Done:  E(RHF) =  -1649.64382831     A.U. after   13 cycles
 SCF Done:  E(RHF) =  -1649.64388071     A.U. after   12 cycles
 SCF Done:  E(RHF) =  -1649.64388899     A.U. after   12 cycles
 SCF Done:  E(RHF) =  -1649.64390194     A.U. after   11 cycles
 SCF Done:  E(RHF) =  -1649.64390194     A.U. after   10 cycles
 SCF Done:  E(RHF) =  -1649.64390256     A.U. after    9 cycles
 SCF Done:  E(RHF) =  -1649.64390255     A.U. after    8 cycles
 Optimization completed.
    -- Stationary point found.

                         Standard orientation:
 ---------------------------------------------------------------------
 Center     Atomic      Atomic             Coordinates (Angstroms)
 Number     Number       Type             X           Y           Z
 ---------------------------------------------------------------------
      1          6           0       -3.824758    0.409923   -0.114827
      2          6           0       -2.468739    0.881186   -0.162546
      3          6           0       -1.560365   -0.111336   -0.001314
      4          6           0       -3.921197   -0.918946    0.082582
      5         16           0       -2.350084   -1.642746    0.229965
      6          1           0       -4.816413   -1.510193    0.152030
      7          6           0       -0.100583    0.000472    0.009527
      8         16           0        0.666379    1.573971    0.192350
      9          6           0        2.241322    0.850003    0.079962
     10          6           0        2.149769   -0.501698   -0.075860
     11          6           0        0.807285   -0.996340   -0.120007
     12          1           0        0.541346   -2.031937   -0.255140
     13         16           0        3.724243   -1.226705   -0.183193
     14          6           0        4.475176    0.337625   -0.010606
     15          6           0        3.586431    1.345248    0.119310
     16          1           0        5.549173    0.414725   -0.016182
     17          1           0        3.863273    2.380136    0.236701
     18          1           0       -2.205490    1.915267   -0.328465
     19          8           0       -4.905034    1.209510   -0.258537
     20          1           0       -4.646260    2.106795   -0.383928
 ---------------------------------------------------------------------

 The electronic state is 1-A.
 Alpha  occ. eigenvalues --  -91.99626 -91.99500 -91.98920 -20.60758 -11.31437
 Alpha  occ. eigenvalues --  -11.29716 -11.29635 -11.28238 -11.27905 -11.27740
 Alpha  occ. eigenvalues --  -11.26413 -11.26256 -11.25646 -11.25430  -8.99819
 Alpha  occ. eigenvalues --   -8.99682  -8.99136  -6.67989  -6.67910  -6.67847
 Alpha  occ. eigenvalues --   -6.67770  -6.67697  -6.67563  -6.67311  -6.67220
 Alpha  occ. eigenvalues --   -6.67016  -1.42650  -1.22405  -1.18734  -1.13340
 Alpha  occ. eigenvalues --   -1.03224  -1.02966  -0.99321  -0.95992  -0.95145
 Alpha  occ. eigenvalues --   -0.84453  -0.78749  -0.78090  -0.75262  -0.73040
 Alpha  occ. eigenvalues --   -0.71495  -0.67593  -0.66280  -0.61303  -0.60714
 Alpha  occ. eigenvalues --   -0.58617  -0.57551  -0.56805  -0.54775  -0.53457
 Alpha  occ. eigenvalues --   -0.53136  -0.51972  -0.50472  -0.48048  -0.47049
 Alpha  occ. eigenvalues --   -0.46618  -0.39696  -0.36313  -0.33567  -0.32789
 Alpha  occ. eigenvalues --   -0.28344
 Alpha virt. eigenvalues --    0.03123   0.03339   0.04317   0.04714   0.04981
 Alpha virt. eigenvalues --    0.05394   0.06710   0.08291   0.08856   0.09348
 Alpha virt. eigenvalues --    0.10088   0.10539   0.10696   0.11072   0.11697

 Mulliken charges:
               1
     1  C    0.387601
     2  C    0.232605
     3  C    0.603589
     4  C    0.082665
     5  S    0.493892
     6  H   -0.394780
     7  C    0.235188
     8  S    0.513845
     9  C   -0.676186
    10  C   -0.125557
    11  C    0.359000
    12  H   -0.504346
    13  S    0.542532
    14  C   -0.164407
    15  C    0.426068
    16  H   -0.380034
    17  H   -0.329291
    18  H   -0.587581
    19  O   -0.849536
    20  H    0.134734
 Sum of Mulliken charges =  -0.00000

 Dipole moment (field-independent basis, Debye):
    X=              1.1871    Y=              1.8079    Z=             -0.2974  Tot=              2.1831
 Quadrupole moment (field-independent basis, Debye-Ang):
   XX=            -96.2079   YY=            -92.9976   ZZ=           -110.2828
   XY=              0.1695   XZ=              0.9868   YZ=             -0.6148

 Normal termination of Gaussian 16 at Wed Oct 27 03:14:47 2021.
