 Gaussian 16, Revision C.01,
 Gaussian 16:  ES64L-G16RevC.01  3-Jul-2019

 ---------------------------------
 # opt=modredundant hf/aug-cc-pvdz
 ---------------------------------

 ---------------
 pg2T_TT_-50.pdb
 ---------------
 Symbolic Z-matrix:
 Charge =  0 Multiplicity = 1

 SCF Done:  E(RHF) =  -1649.42228755     A.U. after   18 cycles
 SCF Done:  E(RHF) =  -1649.50403334     A.U. after   15 cycles
 SCF Done:  E(RHF) =  -1649.60847742     A.U. after   15 cycles
 SCF Done:  E(RHF) =  -1649.62593835     A.U. after   16 cycles
 SCF Done:  E(RHF) =  -1649.63915857     A.U. after   15 cycles
 SCF Done:  E(RHF) =  -1649.64058074     A.U. after   15 cycles
 SCF Done:  E(RHF) =  -1649.64318881     A.U. after   14 cycles
 SCF Done:  E(RHF) =  -1649.64289562     A.U. after   15 cycles
 SCF Done:  E(RHF) =  -1649.64355641     A.U. after   14 cycles
 SCF Done:  E(RHF) =  -1649.64356367     A.U. after   13 cycles
 SCF Done:  E(RHF) =  -1649.64360986     A.U. after   12 cycles
 SCF Done:  E(RHF) =  -1649.64361998     A.U. after   11 cycles
 SCF Done:  E(RHF) =  -1649.64362040     A.U. after   10 cycles
 SCF Done:  E(RHF) =  -1649.64362102     A.U. after    9 cycles
 SCF Done:  E(RHF) =  -1649.64362101     A.U. after    9 cycles
 Optimization completed.
    -- Stationary point found.

                         Standard orientation:
 ---------------------------------------------------------------------
 Center     Atomic      Atomic             Coordinates (Angstroms)
 Number     Number       Type             X           Y           Z
 ---------------------------------------------------------------------
      1          6           0       -3.817560    0.358479    0.340332
      2          6           0       -2.458457    0.793517    0.504770
      3          6           0       -1.564334   -0.085000   -0.006968
      4          6           0       -3.924556   -0.833522   -0.280511
      5         16           0       -2.362930   -1.459355   -0.701907
      6          1           0       -4.826048   -1.370225   -0.516193
      7          6           0       -0.099129    0.012985    0.005415
      8         16           0        0.687095    1.489683   -0.532679
      9          6           0        2.250783    0.796373   -0.231639
     10          6           0        2.139657   -0.484037    0.226579
     11          6           0        0.789321   -0.942422    0.363607
     12          1           0        0.499452   -1.916153    0.722900
     13         16           0        3.702938   -1.179681    0.525668
     14          6           0        4.476844    0.297781    0.016006
     15          6           0        3.603928    1.256993   -0.356515
     16          1           0        5.551601    0.363928    0.022481
     17          1           0        3.896402    2.235150   -0.701669
     18          1           0       -2.175582    1.710247    1.000742
     19          8           0       -4.891271    1.057479    0.772329
     20          1           0       -4.628280    1.879995    1.149325
 ---------------------------------------------------------------------

 The electronic state is 1-A.
 Alpha  occ. eigenvalues --  -91.99604 -91.99407 -91.98997 -20.60723 -11.31389
 Alpha  occ. eigenvalues --  -11.29509 -11.29427 -11.28158 -11.27776 -11.27626
 Alpha  occ. eigenvalues --  -11.26304 -11.26168 -11.25618 -11.25423  -8.99769
 Alpha  occ. eigenvalues --   -8.99590  -8.99190  -6.67934  -6.67854  -6.67756
 Alpha  occ. eigenvalues --   -6.67677  -6.67643  -6.67471  -6.67358  -6.67268
 Alpha  occ. eigenvalues --   -6.67068  -1.42602  -1.22276  -1.18688  -1.13261
 Alpha  occ. eigenvalues --   -1.03084  -1.02783  -0.99207  -0.96007  -0.95082
 Alpha  occ. eigenvalues --   -0.84250  -0.78577  -0.77975  -0.75050  -0.72834
 Alpha  occ. eigenvalues --   -0.71778  -0.67511  -0.66201  -0.61147  -0.60649
 Alpha  occ. eigenvalues --   -0.58525  -0.57495  -0.56788  -0.54767  -0.54030
 Alpha  occ. eigenvalues --   -0.52769  -0.51223  -0.49967  -0.48338  -0.46886
 Alpha  occ. eigenvalues --   -0.46648  -0.39440  -0.35606  -0.33205  -0.32652
 Alpha  occ. eigenvalues --   -0.29359
 Alpha virt. eigenvalues --    0.03123   0.03371   0.04378   0.04733   0.04914
 Alpha virt. eigenvalues --    0.06387   0.06715   0.08260   0.08316   0.09075
 Alpha virt. eigenvalues --    0.09629   0.10383   0.10556   0.10815   0.11619

 Mulliken charges:
               1
     1  C    0.490269
     2  C    0.223911
     3  C    0.508042
     4  C    0.090703
     5  S    0.435412
     6  H   -0.356840
     7  C    0.343216
     8  S    0.403504
     9  C   -0.707058
    10  C   -0.212049
    11  C    0.209601
    12  H   -0.466480
    13  S    0.608539
    14  C   -0.105130
    15  C    0.513734
    16  H   -0.376195
    17  H   -0.318678
    18  H   -0.569956
    19  O   -0.847622
    20  H    0.133077
 Sum of Mulliken charges =  -0.00000

 Dipole moment (field-independent basis, Debye):
    X=              1.1127    Y=              1.6429    Z=              0.8149  Tot=              2.1450
 Quadrupole moment (field-independent basis, Debye-Ang):
   XX=            -96.4961   YY=            -95.6444   ZZ=           -107.4058
   XY=              0.4975   XZ=             -2.9224   YZ=              1.7119

 Normal termination of Gaussian 16 at Wed Oct 27 02:53:57 2021.
