 Gaussian 16, Revision C.01,
 Gaussian 16:  ES64L-G16RevC.01  3-Jul-2019

 ---------------------------------
 # opt=modredundant hf/aug-cc-pvdz
 ---------------------------------

 ----------------
 pg2T_TT_-140.pdb
 ----------------
 Symbolic Z-matrix:
 Charge =  0 Multiplicity = 1

 SCF Done:  E(RHF) =  -1649.42085122     A.U. after   18 cycles
 SCF Done:  E(RHF) =  -1649.50268332     A.U. after   15 cycles
 SCF Done:  E(RHF) =  -1649.60730711     A.U. after   16 cycles
 SCF Done:  E(RHF) =  -1649.62491344     A.U. after   16 cycles
 SCF Done:  E(RHF) =  -1649.63832301     A.U. after   15 cycles
 SCF Done:  E(RHF) =  -1649.63980262     A.U. after   15 cycles
 SCF Done:  E(RHF) =  -1649.64247783     A.U. after   15 cycles
 SCF Done:  E(RHF) =  -1649.64228913     A.U. after   14 cycles
 SCF Done:  E(RHF) =  -1649.64284138     A.U. after   13 cycles
 SCF Done:  E(RHF) =  -1649.64286021     A.U. after   12 cycles
 SCF Done:  E(RHF) =  -1649.64289863     A.U. after   12 cycles
 SCF Done:  E(RHF) =  -1649.64290931     A.U. after   11 cycles
 SCF Done:  E(RHF) =  -1649.64290928     A.U. after   10 cycles
 SCF Done:  E(RHF) =  -1649.64291000     A.U. after    9 cycles
 SCF Done:  E(RHF) =  -1649.64291001     A.U. after    9 cycles
 Optimization completed.
    -- Stationary point found.

                         Standard orientation:
 ---------------------------------------------------------------------
 Center     Atomic      Atomic             Coordinates (Angstroms)
 Number     Number       Type             X           Y           Z
 ---------------------------------------------------------------------
      1          6           0        3.762738    0.725904    0.189078
      2          6           0        2.368937    1.012743    0.382351
      3          6           0        1.565565   -0.002195   -0.017043
      4          6           0        3.987451   -0.493781   -0.338987
      5         16           0        2.497510   -1.329730   -0.637186
      6          1           0        4.936597   -0.944877   -0.566466
      7          6           0        0.099248   -0.028069    0.013215
      8         16           0       -0.770103   -1.481857    0.482677
      9          6           0       -2.290737   -0.675795    0.253408
     10          6           0       -2.108464    0.616425   -0.144623
     11          6           0       -0.735184    0.993348   -0.293063
     12          1           0       -0.392338    1.956328   -0.633772
     13         16           0       -3.630743    1.421039   -0.375537
     14          6           0       -4.485726   -0.029140    0.081593
     15          6           0       -3.667337   -1.057364    0.387683
     16          1           0       -5.562425   -0.028768    0.095214
     17          1           0       -4.013524   -2.031834    0.691007
     18          1           0        1.998778    1.925340    0.825112
     19          8           0        4.761061    1.578944    0.511605
     20          1           0        4.418845    2.368578    0.895115
 ---------------------------------------------------------------------

 The electronic state is 1-A.
 Alpha  occ. eigenvalues --  -91.99547 -91.99442 -91.98954 -20.60767 -11.31400
 Alpha  occ. eigenvalues --  -11.29570 -11.29486 -11.28168 -11.27785 -11.27639
 Alpha  occ. eigenvalues --  -11.26373 -11.26172 -11.25618 -11.25438  -8.99718
 Alpha  occ. eigenvalues --   -8.99625  -8.99155  -6.67881  -6.67801  -6.67791
 Alpha  occ. eigenvalues --   -6.67713  -6.67590  -6.67506  -6.67324  -6.67233
 Alpha  occ. eigenvalues --   -6.67033  -1.42639  -1.22297  -1.18689  -1.13268
 Alpha  occ. eigenvalues --   -1.03285  -1.02670  -0.99103  -0.96174  -0.95000
 Alpha  occ. eigenvalues --   -0.84304  -0.78811  -0.77811  -0.74624  -0.73040
 Alpha  occ. eigenvalues --   -0.72117  -0.67714  -0.66222  -0.61258  -0.60684
 Alpha  occ. eigenvalues --   -0.58269  -0.57501  -0.56352  -0.54978  -0.53896
 Alpha  occ. eigenvalues --   -0.52836  -0.51267  -0.50210  -0.48413  -0.46949
 Alpha  occ. eigenvalues --   -0.46573  -0.39479  -0.35768  -0.33300  -0.32703
 Alpha  occ. eigenvalues --   -0.29029
 Alpha virt. eigenvalues --    0.02908   0.03376   0.04497   0.04780   0.04875
 Alpha virt. eigenvalues --    0.05796   0.07028   0.08268   0.08297   0.09250
 Alpha virt. eigenvalues --    0.09574   0.10237   0.10703   0.11000   0.11597

 Mulliken charges:
               1
     1  C    0.435939
     2  C    0.238326
     3  C    0.479167
     4  C    0.082819
     5  S    0.498766
     6  H   -0.356282
     7  C    0.224556
     8  S    0.427191
     9  C   -0.748922
    10  C   -0.109973
    11  C    0.209218
    12  H   -0.446731
    13  S    0.595880
    14  C   -0.080811
    15  C    0.512955
    16  H   -0.379566
    17  H   -0.318864
    18  H   -0.551313
    19  O   -0.844874
    20  H    0.132519
 Sum of Mulliken charges =  -0.00000

 Dipole moment (field-independent basis, Debye):
    X=             -1.2697    Y=              1.4990    Z=              0.7555  Tot=              2.1047
 Quadrupole moment (field-independent basis, Debye-Ang):
   XX=            -96.7020   YY=            -95.0072   ZZ=           -108.0556
   XY=              6.8603   XZ=              0.0711   YZ=              1.7108

 Normal termination of Gaussian 16 at Wed Oct 27 02:02:13 2021.
