 Gaussian 16, Revision C.01,
 Gaussian 16:  ES64L-G16RevC.01  3-Jul-2019

 ---------------------------------
 # opt=modredundant hf/aug-cc-pvdz
 ---------------------------------

 ---------------
 pg2T_TT_-10.pdb
 ---------------
 Symbolic Z-matrix:
 Charge =  0 Multiplicity = 1

 SCF Done:  E(RHF) =  -1649.42341293     A.U. after   19 cycles
 SCF Done:  E(RHF) =  -1649.50495783     A.U. after   16 cycles
 SCF Done:  E(RHF) =  -1649.60920599     A.U. after   16 cycles
 SCF Done:  E(RHF) =  -1649.62629498     A.U. after   16 cycles
 SCF Done:  E(RHF) =  -1649.63935945     A.U. after   15 cycles
 SCF Done:  E(RHF) =  -1649.64076990     A.U. after   15 cycles
 SCF Done:  E(RHF) =  -1649.64338698     A.U. after   15 cycles
 SCF Done:  E(RHF) =  -1649.64351668     A.U. after   15 cycles
 SCF Done:  E(RHF) =  -1649.64362192     A.U. after   14 cycles
 SCF Done:  E(RHF) =  -1649.64378815     A.U. after   13 cycles
 SCF Done:  E(RHF) =  -1649.64378578     A.U. after   12 cycles
 SCF Done:  E(RHF) =  -1649.64378913     A.U. after   11 cycles
 SCF Done:  E(RHF) =  -1649.64379470     A.U. after   11 cycles
 SCF Done:  E(RHF) =  -1649.64379473     A.U. after    8 cycles
 SCF Done:  E(RHF) =  -1649.64379476     A.U. after    8 cycles
 Optimization completed.
    -- Stationary point found.

                         Standard orientation:
 ---------------------------------------------------------------------
 Center     Atomic      Atomic             Coordinates (Angstroms)
 Number     Number       Type             X           Y           Z
 ---------------------------------------------------------------------
      1          6           0       -3.826210    0.412005    0.077607
      2          6           0       -2.470654    0.885935    0.110242
      3          6           0       -1.560374   -0.112041    0.001960
      4          6           0       -3.920862   -0.924778   -0.055852
      5         16           0       -2.348401   -1.654131   -0.155601
      6          1           0       -4.815178   -1.519545   -0.102823
      7          6           0       -0.100758    0.001472   -0.006636
      8         16           0        0.665763    1.581361   -0.130464
      9          6           0        2.241232    0.853828   -0.054074
     10          6           0        2.150456   -0.502663    0.051514
     11          6           0        0.808251   -0.998853    0.081681
     12          1           0        0.544114   -2.039576    0.174319
     13         16           0        3.725423   -1.230868    0.123906
     14          6           0        4.475432    0.339020    0.007077
     15          6           0        3.585998    1.350622   -0.080842
     16          1           0        5.549430    0.416138    0.010809
     17          1           0        3.862164    2.389282   -0.160359
     18          1           0       -2.210068    1.927867    0.222800
     19          8           0       -4.907542    1.217178    0.174191
     20          1           0       -4.649739    2.119343    0.260218
 ---------------------------------------------------------------------

 The electronic state is 1-A.
 Alpha  occ. eigenvalues --  -91.99621 -91.99509 -91.98909 -20.60762 -11.31442
 Alpha  occ. eigenvalues --  -11.29734 -11.29653 -11.28245 -11.27916 -11.27748
 Alpha  occ. eigenvalues --  -11.26427 -11.26263 -11.25653 -11.25439  -8.99817
 Alpha  occ. eigenvalues --   -8.99690  -8.99128  -6.67987  -6.67909  -6.67856
 Alpha  occ. eigenvalues --   -6.67778  -6.67694  -6.67572  -6.67304  -6.67212
 Alpha  occ. eigenvalues --   -6.67008  -1.42656  -1.22415  -1.18736  -1.13345
 Alpha  occ. eigenvalues --   -1.03236  -1.02980  -0.99330  -0.95993  -0.95149
 Alpha  occ. eigenvalues --   -0.84467  -0.78767  -0.78100  -0.75282  -0.73060
 Alpha  occ. eigenvalues --   -0.71476  -0.67602  -0.66286  -0.61321  -0.60721
 Alpha  occ. eigenvalues --   -0.58623  -0.57554  -0.56802  -0.54783  -0.53371
 Alpha  occ. eigenvalues --   -0.53152  -0.52097  -0.50507  -0.48024  -0.47057
 Alpha  occ. eigenvalues --   -0.46608  -0.39716  -0.36373  -0.33602  -0.32779
 Alpha  occ. eigenvalues --   -0.28276
 Alpha virt. eigenvalues --    0.03122   0.03335   0.04311   0.04711   0.04983
 Alpha virt. eigenvalues --    0.05299   0.06719   0.08286   0.08934   0.09337
 Alpha virt. eigenvalues --    0.10199   0.10525   0.10787   0.11158   0.11723

 Mulliken charges:
               1
     1  C    0.373589
     2  C    0.222889
     3  C    0.619899
     4  C    0.088198
     5  S    0.508693
     6  H   -0.401174
     7  C    0.204869
     8  S    0.546701
     9  C   -0.668007
    10  C   -0.124016
    11  C    0.372205
    12  H   -0.506992
    13  S    0.533857
    14  C   -0.174007
    15  C    0.416137
    16  H   -0.381296
    17  H   -0.331905
    18  H   -0.584686
    19  O   -0.850278
    20  H    0.135325
 Sum of Mulliken charges =  -0.00000

 Dipole moment (field-independent basis, Debye):
    X=              1.1911    Y=              1.8166    Z=              0.2046  Tot=              2.1819
 Quadrupole moment (field-independent basis, Debye-Ang):
   XX=            -96.1608   YY=            -92.8227   ZZ=           -110.4845
   XY=              0.1243   XZ=             -0.6790   YZ=              0.4226

 Normal termination of Gaussian 16 at Wed Oct 27 03:11:19 2021.
