 Gaussian 16, Revision C.01,
 Gaussian 16:  ES64L-G16RevC.01  3-Jul-2019

 ---------------------------------
 # opt=modredundant hf/aug-cc-pvdz
 ---------------------------------

 ----------------
 pg2T_TT_-115.pdb
 ----------------
 Symbolic Z-matrix:
 Charge =  0 Multiplicity = 1

 SCF Done:  E(RHF) =  -1649.41990178     A.U. after   18 cycles
 SCF Done:  E(RHF) =  -1649.50188471     A.U. after   15 cycles
 SCF Done:  E(RHF) =  -1649.60657000     A.U. after   15 cycles
 SCF Done:  E(RHF) =  -1649.62418117     A.U. after   15 cycles
 SCF Done:  E(RHF) =  -1649.63763459     A.U. after   15 cycles
 SCF Done:  E(RHF) =  -1649.63908988     A.U. after   15 cycles
 SCF Done:  E(RHF) =  -1649.64180693     A.U. after   14 cycles
 SCF Done:  E(RHF) =  -1649.64161772     A.U. after   15 cycles
 SCF Done:  E(RHF) =  -1649.64219873     A.U. after   13 cycles
 SCF Done:  E(RHF) =  -1649.64220991     A.U. after   12 cycles
 SCF Done:  E(RHF) =  -1649.64225870     A.U. after   12 cycles
 SCF Done:  E(RHF) =  -1649.64227012     A.U. after   11 cycles
 SCF Done:  E(RHF) =  -1649.64227030     A.U. after   10 cycles
 SCF Done:  E(RHF) =  -1649.64227103     A.U. after    9 cycles
 SCF Done:  E(RHF) =  -1649.64227101     A.U. after    9 cycles
 Optimization completed.
    -- Stationary point found.

                         Standard orientation:
 ---------------------------------------------------------------------
 Center     Atomic      Atomic             Coordinates (Angstroms)
 Number     Number       Type             X           Y           Z
 ---------------------------------------------------------------------
      1          6           0        3.767688    0.641753    0.319737
      2          6           0        2.373635    0.885538    0.570559
      3          6           0        1.566456    0.013408   -0.075599
      4          6           0        3.984674   -0.411994   -0.492110
      5         16           0        2.490320   -1.136834   -0.990734
      6          1           0        4.932119   -0.797557   -0.824020
      7          6           0        0.095717   -0.027080   -0.031034
      8         16           0       -0.745152   -1.399743    0.674886
      9          6           0       -2.279355   -0.644553    0.372351
     10          6           0       -2.120801    0.574760   -0.218640
     11          6           0       -0.753955    0.934991   -0.455415
     12          1           0       -0.424521    1.846659   -0.926147
     13         16           0       -3.656231    1.328017   -0.523729
     14          6           0       -4.484535   -0.042486    0.167370
     15          6           0       -3.648757   -1.009718    0.599024
     16          1           0       -5.560462   -0.045994    0.210928
     17          1           0       -3.977531   -1.930333    1.052691
     18          1           0        2.003104    1.668461    1.215499
     19          8           0        4.770956    1.380954    0.845436
     20          1           0        4.432053    2.060388    1.403334
 ---------------------------------------------------------------------

 The electronic state is 1-A.
 Alpha  occ. eigenvalues --  -91.99474 -91.99400 -91.98896 -20.60730 -11.31329
 Alpha  occ. eigenvalues --  -11.29408 -11.29327 -11.28143 -11.27723 -11.27560
 Alpha  occ. eigenvalues --  -11.26357 -11.26128 -11.25641 -11.25517  -8.99632
 Alpha  occ. eigenvalues --   -8.99583  -8.99086  -6.67795  -6.67749  -6.67714
 Alpha  occ. eigenvalues --   -6.67671  -6.67504  -6.67464  -6.67254  -6.67164
 Alpha  occ. eigenvalues --   -6.66964  -1.42588  -1.22206  -1.18624  -1.13213
 Alpha  occ. eigenvalues --   -1.03137  -1.02593  -0.99007  -0.96154  -0.94981
 Alpha  occ. eigenvalues --   -0.84145  -0.78646  -0.77784  -0.74661  -0.72744
 Alpha  occ. eigenvalues --   -0.72305  -0.67591  -0.66173  -0.61161  -0.60622
 Alpha  occ. eigenvalues --   -0.58244  -0.57467  -0.56539  -0.54938  -0.54142
 Alpha  occ. eigenvalues --   -0.52598  -0.50994  -0.49683  -0.48562  -0.46761
 Alpha  occ. eigenvalues --   -0.46633  -0.39249  -0.35305  -0.32808  -0.32594
 Alpha  occ. eigenvalues --   -0.30057
 Alpha virt. eigenvalues --    0.02984   0.03383   0.04546   0.04703   0.04793
 Alpha virt. eigenvalues --    0.06037   0.07706   0.08177   0.08213   0.08986
 Alpha virt. eigenvalues --    0.09453   0.10233   0.10423   0.10788   0.11424

 Mulliken charges:
               1
     1  C    0.521772
     2  C    0.180315
     3  C    0.466137
     4  C    0.063599
     5  S    0.448899
     6  H   -0.347813
     7  C    0.363285
     8  S    0.404676
     9  C   -0.792491
    10  C   -0.151133
    11  C    0.071435
    12  H   -0.426684
    13  S    0.634973
    14  C   -0.068289
    15  C    0.582305
    16  H   -0.376850
    17  H   -0.321083
    18  H   -0.537626
    19  O   -0.846585
    20  H    0.131159
 Sum of Mulliken charges =  -0.00000

 Dipole moment (field-independent basis, Debye):
    X=             -1.2220    Y=              1.3241    Z=              1.1634  Tot=              2.1447
 Quadrupole moment (field-independent basis, Debye-Ang):
   XX=            -96.9725   YY=            -97.9375   ZZ=           -104.9919
   XY=              6.1978   XZ=             -0.1163   YZ=              1.9643

 Normal termination of Gaussian 16 at Wed Oct 27 02:16:47 2021.
