 Gaussian 16, Revision C.01,
 Gaussian 16:  ES64L-G16RevC.01  3-Jul-2019

 ---------------------------------
 # opt=modredundant hf/aug-cc-pvdz
 ---------------------------------

 --------------
 pg2T_TT_55.pdb
 --------------
 Symbolic Z-matrix:
 Charge =  0 Multiplicity = 1

 SCF Done:  E(RHF) =  -1649.42130381     A.U. after   18 cycles
 SCF Done:  E(RHF) =  -1649.50322195     A.U. after   15 cycles
 SCF Done:  E(RHF) =  -1649.60796583     A.U. after   15 cycles
 SCF Done:  E(RHF) =  -1649.62540982     A.U. after   15 cycles
 SCF Done:  E(RHF) =  -1649.63870297     A.U. after   15 cycles
 SCF Done:  E(RHF) =  -1649.64012130     A.U. after   15 cycles
 SCF Done:  E(RHF) =  -1649.64277759     A.U. after   14 cycles
 SCF Done:  E(RHF) =  -1649.64208929     A.U. after   15 cycles
 SCF Done:  E(RHF) =  -1649.64328106     A.U. after   13 cycles
 SCF Done:  E(RHF) =  -1649.64329265     A.U. after   12 cycles
 SCF Done:  E(RHF) =  -1649.64330653     A.U. after   12 cycles
 SCF Done:  E(RHF) =  -1649.64332278     A.U. after   11 cycles
 SCF Done:  E(RHF) =  -1649.64332339     A.U. after    9 cycles
 Optimization completed.
    -- Stationary point found.

                         Standard orientation:
 ---------------------------------------------------------------------
 Center     Atomic      Atomic             Coordinates (Angstroms)
 Number     Number       Type             X           Y           Z
 ---------------------------------------------------------------------
      1          6           0        3.817334    0.343906    0.371107
      2          6           0        2.457622    0.769168    0.555598
      3          6           0        1.565355   -0.079410   -0.006611
      4          6           0        3.925850   -0.812233   -0.314042
      5         16           0        2.365512   -1.414821   -0.771520
      6          1           0        4.828186   -1.334905   -0.576681
      7          6           0        0.098817    0.017070    0.009373
      8         16           0       -0.692150    1.475638   -0.569207
      9          6           0       -2.253388    0.786012   -0.248329
     10          6           0       -2.138046   -0.480862    0.245288
     11          6           0       -0.785985   -0.931304    0.393107
     12          1           0       -0.492034   -1.894730    0.776120
     13         16           0       -3.698913   -1.172401    0.565874
     14          6           0       -4.477787    0.287797    0.015594
     15          6           0       -3.608186    1.239049   -0.383972
     16          1           0       -5.552749    0.350750    0.021152
     17          1           0       -3.903998    2.206399   -0.755725
     18          1           0        2.172480    1.657709    1.099093
     19          8           0        4.890076    1.017886    0.844014
     20          1           0        4.626796    1.821848    1.258912
 ---------------------------------------------------------------------

 The electronic state is 1-A.
 Alpha  occ. eigenvalues --  -91.99585 -91.99395 -91.98994 -20.60716 -11.31376
 Alpha  occ. eigenvalues --  -11.29475 -11.29393 -11.28149 -11.27758 -11.27607
 Alpha  occ. eigenvalues --  -11.26301 -11.26155 -11.25619 -11.25433  -8.99748
 Alpha  occ. eigenvalues --   -8.99578  -8.99184  -6.67912  -6.67832  -6.67744
 Alpha  occ. eigenvalues --   -6.67666  -6.67622  -6.67460  -6.67351  -6.67261
 Alpha  occ. eigenvalues --   -6.67061  -1.42586  -1.22254  -1.18676  -1.13247
 Alpha  occ. eigenvalues --   -1.03065  -1.02749  -0.99183  -0.96013  -0.95069
 Alpha  occ. eigenvalues --   -0.84212  -0.78552  -0.77956  -0.75017  -0.72801
 Alpha  occ. eigenvalues --   -0.71837  -0.67501  -0.66184  -0.61129  -0.60636
 Alpha  occ. eigenvalues --   -0.58503  -0.57489  -0.56778  -0.54778  -0.54077
 Alpha  occ. eigenvalues --   -0.52709  -0.51159  -0.49873  -0.48387  -0.46846
 Alpha  occ. eigenvalues --   -0.46642  -0.39399  -0.35491  -0.33146  -0.32582
 Alpha  occ. eigenvalues --   -0.29571
 Alpha virt. eigenvalues --    0.03119   0.03374   0.04390   0.04736   0.04893
 Alpha virt. eigenvalues --    0.06409   0.06854   0.08228   0.08314   0.08979
 Alpha virt. eigenvalues --    0.09668   0.10288   0.10513   0.10837   0.11528

 Mulliken charges:
               1
     1  C    0.498411
     2  C    0.229046
     3  C    0.482929
     4  C    0.092019
     5  S    0.427638
     6  H   -0.354429
     7  C    0.364377
     8  S    0.398489
     9  C   -0.717924
    10  C   -0.225988
    11  C    0.188702
    12  H   -0.460738
    13  S    0.616240
    14  C   -0.097979
    15  C    0.529560
    16  H   -0.376012
    17  H   -0.318591
    18  H   -0.561584
    19  O   -0.847020
    20  H    0.132854
 Sum of Mulliken charges =  -0.00000

 Dipole moment (field-independent basis, Debye):
    X=             -1.1034    Y=              1.5996    Z=              0.8866  Tot=              2.1359
 Quadrupole moment (field-independent basis, Debye-Ang):
   XX=            -96.5169   YY=            -96.2288   ZZ=           -106.7947
   XY=             -0.5412   XZ=              3.1868   YZ=              1.8471

 Normal termination of Gaussian 16 at Wed Oct 27 03:18:21 2021.
