 Gaussian 16, Revision C.01,
 Gaussian 16:  ES64L-G16RevC.01  3-Jul-2019

 ---------------------------------
 # opt=modredundant hf/aug-cc-pvdz
 ---------------------------------

 ----------------
 pg2T_TT_-175.pdb
 ----------------
 Symbolic Z-matrix:
 Charge =  0 Multiplicity = 1

 SCF Done:  E(RHF) =  -1649.42063187     A.U. after   18 cycles
 SCF Done:  E(RHF) =  -1649.50212733     A.U. after   16 cycles
 SCF Done:  E(RHF) =  -1649.60630091     A.U. after   16 cycles
 SCF Done:  E(RHF) =  -1649.62349699     A.U. after   16 cycles
 SCF Done:  E(RHF) =  -1649.63647476     A.U. after   16 cycles
 SCF Done:  E(RHF) =  -1649.63793215     A.U. after   16 cycles
 SCF Done:  E(RHF) =  -1649.64054427     A.U. after   15 cycles
 SCF Done:  E(RHF) =  -1649.64030597     A.U. after   17 cycles
 SCF Done:  E(RHF) =  -1649.64092199     A.U. after   13 cycles
 SCF Done:  E(RHF) =  -1649.64095339     A.U. after   12 cycles
 SCF Done:  E(RHF) =  -1649.64096477     A.U. after   12 cycles
 SCF Done:  E(RHF) =  -1649.64097629     A.U. after   11 cycles
 SCF Done:  E(RHF) =  -1649.64097643     A.U. after   10 cycles
 SCF Done:  E(RHF) =  -1649.64097695     A.U. after    9 cycles
 SCF Done:  E(RHF) =  -1649.64097695     A.U. after    8 cycles
 Optimization completed.
    -- Stationary point found.

                         Standard orientation:
 ---------------------------------------------------------------------
 Center     Atomic      Atomic             Coordinates (Angstroms)
 Number     Number       Type             X           Y           Z
 ---------------------------------------------------------------------
      1          6           0        3.761411    0.777736    0.021673
      2          6           0        2.365303    1.101361    0.063431
      3          6           0        1.566674    0.005132    0.012797
      4          6           0        4.001159   -0.546377   -0.059814
      5         16           0        2.518898   -1.443430   -0.094157
      6          1           0        4.954244   -1.041810   -0.100889
      7          6           0        0.099404   -0.023983    0.018546
      8         16           0       -0.780419   -1.545857    0.078564
      9          6           0       -2.297573   -0.706139    0.036560
     10          6           0       -2.110179    0.643950   -0.017821
     11          6           0       -0.737385    1.042179   -0.032418
     12          1           0       -0.403254    2.064659   -0.085647
     13         16           0       -3.630036    1.485048   -0.059409
     14          6           0       -4.490010   -0.031917   -0.000481
     15          6           0       -3.674849   -1.106291    0.047624
     16          1           0       -5.566758   -0.032293   -0.005359
     17          1           0       -4.024134   -2.124983    0.088125
     18          1           0        1.996535    2.113034    0.136827
     19          8           0        4.750747    1.698249    0.061854
     20          1           0        4.398580    2.569324    0.131541
 ---------------------------------------------------------------------

 The electronic state is 1-A.
 Alpha  occ. eigenvalues --  -91.99562 -91.99489 -91.98978 -20.60787 -11.31439
 Alpha  occ. eigenvalues --  -11.29793 -11.29711 -11.28205 -11.27853 -11.27709
 Alpha  occ. eigenvalues --  -11.26410 -11.26228 -11.25608 -11.25365  -8.99758
 Alpha  occ. eigenvalues --   -8.99670  -8.99202  -6.67925  -6.67846  -6.67837
 Alpha  occ. eigenvalues --   -6.67758  -6.67633  -6.67552  -6.67375  -6.67284
 Alpha  occ. eigenvalues --   -6.67081  -1.42671  -1.22385  -1.18748  -1.13320
 Alpha  occ. eigenvalues --   -1.03410  -1.02743  -0.99220  -0.96211  -0.95000
 Alpha  occ. eigenvalues --   -0.84434  -0.78974  -0.77891  -0.74706  -0.73275
 Alpha  occ. eigenvalues --   -0.71933  -0.67874  -0.66262  -0.61405  -0.60738
 Alpha  occ. eigenvalues --   -0.58294  -0.57530  -0.56213  -0.55017  -0.53226
 Alpha  occ. eigenvalues --   -0.53052  -0.52169  -0.50690  -0.48364  -0.47001
 Alpha  occ. eigenvalues --   -0.46357  -0.39881  -0.36204  -0.33769  -0.32505
 Alpha  occ. eigenvalues --   -0.28185
 Alpha virt. eigenvalues --    0.02808   0.03365   0.04440   0.04767   0.05061
 Alpha virt. eigenvalues --    0.05202   0.07464   0.08335   0.08994   0.09137
 Alpha virt. eigenvalues --    0.09767   0.10332   0.10881   0.11247   0.12059

 Mulliken charges:
               1
     1  C    0.240745
     2  C    0.624232
     3  C    0.361473
     4  C    0.060023
     5  S    0.496046
     6  H   -0.385304
     7  C   -0.301185
     8  S    0.506668
     9  C   -0.653042
    10  C    0.010408
    11  C    0.821107
    12  H   -0.531934
    13  S    0.511983
    14  C   -0.213317
    15  C    0.452064
    16  H   -0.381132
    17  H   -0.327239
    18  H   -0.564307
    19  O   -0.854816
    20  H    0.127526
 Sum of Mulliken charges =  -0.00000

 Dipole moment (field-independent basis, Debye):
    X=             -1.3321    Y=              1.6342    Z=              0.1142  Tot=              2.1114
 Quadrupole moment (field-independent basis, Debye-Ang):
   XX=            -96.6237   YY=            -92.5251   ZZ=           -110.5482
   XY=              7.2879   XZ=              0.1503   YZ=              0.4064

 Normal termination of Gaussian 16 at Wed Oct 27 01:50:22 2021.
