 Gaussian 16, Revision C.01,
 Gaussian 16:  ES64L-G16RevC.01  3-Jul-2019

 ---------------------------------
 # opt=modredundant hf/aug-cc-pvdz
 ---------------------------------

 ---------------
 pg2T_TT_-35.pdb
 ---------------
 Symbolic Z-matrix:
 Charge =  0 Multiplicity = 1

 SCF Done:  E(RHF) =  -1649.42329413     A.U. after   18 cycles
 SCF Done:  E(RHF) =  -1649.50493829     A.U. after   15 cycles
 SCF Done:  E(RHF) =  -1649.60926227     A.U. after   16 cycles
 SCF Done:  E(RHF) =  -1649.62652464     A.U. after   16 cycles
 SCF Done:  E(RHF) =  -1649.63966355     A.U. after   15 cycles
 SCF Done:  E(RHF) =  -1649.64108792     A.U. after   15 cycles
 SCF Done:  E(RHF) =  -1649.64370540     A.U. after   15 cycles
 SCF Done:  E(RHF) =  -1649.64363094     A.U. after   15 cycles
 SCF Done:  E(RHF) =  -1649.64404907     A.U. after   14 cycles
 SCF Done:  E(RHF) =  -1649.64408875     A.U. after   13 cycles
 SCF Done:  E(RHF) =  -1649.64410910     A.U. after   12 cycles
 SCF Done:  E(RHF) =  -1649.64412373     A.U. after   11 cycles
 SCF Done:  E(RHF) =  -1649.64412389     A.U. after   10 cycles
 SCF Done:  E(RHF) =  -1649.64412467     A.U. after    9 cycles
 SCF Done:  E(RHF) =  -1649.64412468     A.U. after    8 cycles
 Optimization completed.
    -- Stationary point found.

                         Standard orientation:
 ---------------------------------------------------------------------
 Center     Atomic      Atomic             Coordinates (Angstroms)
 Number     Number       Type             X           Y           Z
 ---------------------------------------------------------------------
      1          6           0       -3.818937    0.389904    0.249122
      2          6           0       -2.460897    0.844488    0.359572
      3          6           0       -1.561697   -0.100981   -0.004651
      4          6           0       -3.922816   -0.879968   -0.190274
      5         16           0       -2.357901   -1.560846   -0.503757
      6          1           0       -4.822175   -1.446720   -0.351553
      7          6           0       -0.099749    0.002331   -0.006386
      8         16           0        0.674425    1.529665   -0.405359
      9          6           0        2.244552    0.824028   -0.173196
     10          6           0        2.144774   -0.493662    0.165767
     11          6           0        0.799057   -0.973123    0.264900
     12          1           0        0.521069   -1.976822    0.541707
     13         16           0        3.714454   -1.201719    0.392630
     14          6           0        4.475067    0.321927    0.016740
     15          6           0        3.593114    1.304647   -0.262214
     16          1           0        5.549317    0.395497    0.024662
     17          1           0        3.876621    2.312566   -0.517514
     18          1           0       -2.184864    1.824899    0.718435
     19          8           0       -4.894755    1.146179    0.562438
     20          1           0       -4.632410    2.010008    0.832257
 ---------------------------------------------------------------------

 The electronic state is 1-A.
 Alpha  occ. eigenvalues --  -91.99635 -91.99448 -91.98978 -20.60738 -11.31416
 Alpha  occ. eigenvalues --  -11.29608 -11.29527 -11.28193 -11.27835 -11.27683
 Alpha  occ. eigenvalues --  -11.26340 -11.26209 -11.25624 -11.25407  -8.99812
 Alpha  occ. eigenvalues --   -8.99630  -8.99181  -6.67978  -6.67899  -6.67796
 Alpha  occ. eigenvalues --   -6.67718  -6.67687  -6.67512  -6.67352  -6.67261
 Alpha  occ. eigenvalues --   -6.67059  -1.42624  -1.22340  -1.18716  -1.13301
 Alpha  occ. eigenvalues --   -1.03149  -1.02877  -0.99267  -0.95996  -0.95116
 Alpha  occ. eigenvalues --   -0.84354  -0.78653  -0.78030  -0.75147  -0.72930
 Alpha  occ. eigenvalues --   -0.71629  -0.67545  -0.66243  -0.61211  -0.60678
 Alpha  occ. eigenvalues --   -0.58574  -0.57523  -0.56808  -0.54751  -0.53835
 Alpha  occ. eigenvalues --   -0.52950  -0.51476  -0.50228  -0.48200  -0.46982
 Alpha  occ. eigenvalues --   -0.46652  -0.39563  -0.35944  -0.33367  -0.32782
 Alpha  occ. eigenvalues --   -0.28821
 Alpha virt. eigenvalues --    0.03128   0.03358   0.04348   0.04724   0.04959
 Alpha virt. eigenvalues --    0.05977   0.06644   0.08307   0.08450   0.09406
 Alpha virt. eigenvalues --    0.09539   0.10488   0.10641   0.10864   0.11705

 Mulliken charges:
               1
     1  C    0.460518
     2  C    0.217806
     3  C    0.560336
     4  C    0.079208
     5  S    0.461103
     6  H   -0.368367
     7  C    0.303686
     8  S    0.435074
     9  C   -0.688358
    10  C   -0.165132
    11  C    0.262095
    12  H   -0.484224
    13  S    0.582636
    14  C   -0.130714
    15  C    0.476161
    16  H   -0.377187
    17  H   -0.321048
    18  H   -0.588463
    19  O   -0.848592
    20  H    0.133463
 Sum of Mulliken charges =  -0.00000

 Dipole moment (field-independent basis, Debye):
    X=              1.1497    Y=              1.7384    Z=              0.6077  Tot=              2.1710
 Quadrupole moment (field-independent basis, Debye-Ang):
   XX=            -96.4111   YY=            -94.2171   ZZ=           -108.9256
   XY=              0.3774   XZ=             -2.1139   YZ=              1.2778

 Normal termination of Gaussian 16 at Wed Oct 27 03:04:36 2021.
