 Gaussian 16, Revision C.01,
 Gaussian 16:  ES64L-G16RevC.01  3-Jul-2019

 ---------------------------------
 # opt=modredundant hf/aug-cc-pvdz
 ---------------------------------

 ----------------
 pg2T_TT_-125.pdb
 ----------------
 Symbolic Z-matrix:
 Charge =  0 Multiplicity = 1

 SCF Done:  E(RHF) =  -1649.42041960     A.U. after   18 cycles
 SCF Done:  E(RHF) =  -1649.50235483     A.U. after   15 cycles
 SCF Done:  E(RHF) =  -1649.60703527     A.U. after   15 cycles
 SCF Done:  E(RHF) =  -1649.62465081     A.U. after   15 cycles
 SCF Done:  E(RHF) =  -1649.63810491     A.U. after   15 cycles
 SCF Done:  E(RHF) =  -1649.63957252     A.U. after   15 cycles
 SCF Done:  E(RHF) =  -1649.64228113     A.U. after   14 cycles
 SCF Done:  E(RHF) =  -1649.64211926     A.U. after   14 cycles
 SCF Done:  E(RHF) =  -1649.64265846     A.U. after   13 cycles
 SCF Done:  E(RHF) =  -1649.64267495     A.U. after   12 cycles
 SCF Done:  E(RHF) =  -1649.64271908     A.U. after   12 cycles
 SCF Done:  E(RHF) =  -1649.64273039     A.U. after   11 cycles
 SCF Done:  E(RHF) =  -1649.64273045     A.U. after   10 cycles
 SCF Done:  E(RHF) =  -1649.64273121     A.U. after    9 cycles
 SCF Done:  E(RHF) =  -1649.64273120     A.U. after    9 cycles
 Optimization completed.
    -- Stationary point found.

                         Standard orientation:
 ---------------------------------------------------------------------
 Center     Atomic      Atomic             Coordinates (Angstroms)
 Number     Number       Type             X           Y           Z
 ---------------------------------------------------------------------
      1          6           0        3.763892    0.684560    0.265899
      2          6           0        2.368921    0.948848    0.487139
      3          6           0        1.565782    0.005582   -0.057718
      4          6           0        3.986846   -0.452200   -0.423092
      5         16           0        2.496045   -1.233459   -0.841369
      6          1           0        4.936213   -0.870079   -0.706681
      7          6           0        0.097163   -0.029223   -0.020190
      8         16           0       -0.755574   -1.433482    0.604566
      9          6           0       -2.283982   -0.656494    0.329141
     10          6           0       -2.115268    0.592175   -0.194011
     11          6           0       -0.745611    0.957764   -0.401608
     12          1           0       -0.409904    1.888786   -0.827813
     13         16           0       -3.645074    1.366927   -0.472257
     14          6           0       -4.484860   -0.035132    0.137156
     15          6           0       -3.656535   -1.027462    0.524016
     16          1           0       -5.561131   -0.036369    0.170981
     17          1           0       -3.992801   -1.969599    0.924956
     18          1           0        1.995701    1.794652    1.045135
     19          8           0        4.763314    1.480850    0.708620
     20          1           0        4.420978    2.215531    1.189016
 ---------------------------------------------------------------------

 The electronic state is 1-A.
 Alpha  occ. eigenvalues --  -91.99508 -91.99416 -91.98921 -20.60747 -11.31359
 Alpha  occ. eigenvalues --  -11.29470 -11.29388 -11.28151 -11.27744 -11.27591
 Alpha  occ. eigenvalues --  -11.26359 -11.26144 -11.25635 -11.25491  -8.99670
 Alpha  occ. eigenvalues --   -8.99598  -8.99115  -6.67833  -6.67765  -6.67752
 Alpha  occ. eigenvalues --   -6.67686  -6.67542  -6.67480  -6.67283  -6.67193
 Alpha  occ. eigenvalues --   -6.66993  -1.42610  -1.22241  -1.18651  -1.13235
 Alpha  occ. eigenvalues --   -1.03198  -1.02623  -0.99043  -0.96163  -0.94989
 Alpha  occ. eigenvalues --   -0.84211  -0.78715  -0.77789  -0.74635  -0.72876
 Alpha  occ. eigenvalues --   -0.72228  -0.67637  -0.66195  -0.61200  -0.60646
 Alpha  occ. eigenvalues --   -0.58251  -0.57476  -0.56463  -0.54956  -0.54067
 Alpha  occ. eigenvalues --   -0.52691  -0.51072  -0.49896  -0.48488  -0.46850
 Alpha  occ. eigenvalues --   -0.46619  -0.39324  -0.35494  -0.33032  -0.32663
 Alpha  occ. eigenvalues --   -0.29607
 Alpha virt. eigenvalues --    0.02954   0.03380   0.04525   0.04754   0.04810
 Alpha virt. eigenvalues --    0.05959   0.07390   0.08227   0.08243   0.09164
 Alpha virt. eigenvalues --    0.09430   0.10299   0.10570   0.10851   0.11458

 Mulliken charges:
               1
     1  C    0.487375
     2  C    0.193683
     3  C    0.489948
     4  C    0.073820
     5  S    0.462848
     6  H   -0.350478
     7  C    0.338783
     8  S    0.400342
     9  C   -0.794793
    10  C   -0.113915
    11  C    0.089334
    12  H   -0.433141
    13  S    0.621714
    14  C   -0.066662
    15  C    0.557429
    16  H   -0.378148
    17  H   -0.319524
    18  H   -0.545175
    19  O   -0.845199
    20  H    0.131761
 Sum of Mulliken charges =  -0.00000

 Dipole moment (field-independent basis, Debye):
    X=             -1.2412    Y=              1.4140    Z=              0.9934  Tot=              2.1276
 Quadrupole moment (field-independent basis, Debye-Ang):
   XX=            -96.8768   YY=            -96.6055   ZZ=           -106.3798
   XY=              6.4823   XZ=             -0.1425   YZ=              1.8619

 Normal termination of Gaussian 16 at Wed Oct 27 01:58:23 2021.
