 Gaussian 16, Revision C.01,
 Gaussian 16:  ES64L-G16RevC.01  3-Jul-2019

 ---------------------------------
 # opt=modredundant hf/aug-cc-pvdz
 ---------------------------------

 --------------
 pg2T_TT_95.pdb
 --------------
 Symbolic Z-matrix:
 Charge =  0 Multiplicity = 1

 SCF Done:  E(RHF) =  -1649.41915092     A.U. after   18 cycles
 SCF Done:  E(RHF) =  -1649.50119833     A.U. after   15 cycles
 SCF Done:  E(RHF) =  -1649.60595832     A.U. after   15 cycles
 SCF Done:  E(RHF) =  -1649.62347505     A.U. after   15 cycles
 SCF Done:  E(RHF) =  -1649.63685106     A.U. after   15 cycles
 SCF Done:  E(RHF) =  -1649.63827962     A.U. after   15 cycles
 SCF Done:  E(RHF) =  -1649.64096510     A.U. after   14 cycles
 SCF Done:  E(RHF) =  -1649.64042585     A.U. after   15 cycles
 SCF Done:  E(RHF) =  -1649.64140112     A.U. after   12 cycles
 SCF Done:  E(RHF) =  -1649.64139685     A.U. after   12 cycles
 SCF Done:  E(RHF) =  -1649.64144506     A.U. after   12 cycles
 SCF Done:  E(RHF) =  -1649.64145735     A.U. after   11 cycles
 SCF Done:  E(RHF) =  -1649.64145798     A.U. after    9 cycles
 SCF Done:  E(RHF) =  -1649.64145816     A.U. after    9 cycles
 Optimization completed.
    -- Stationary point found.

                         Standard orientation:
 ---------------------------------------------------------------------
 Center     Atomic      Atomic             Coordinates (Angstroms)
 Number     Number       Type             X           Y           Z
 ---------------------------------------------------------------------
      1          6           0       -3.789746   -0.410225   -0.504127
      2          6           0       -2.406782   -0.516161   -0.881694
      3          6           0       -1.568743   -0.041532    0.066800
      4          6           0       -3.966474    0.145358    0.711181
      5         16           0       -2.447436    0.554500    1.439452
      6          1           0       -4.898176    0.331725    1.215012
      7          6           0       -0.094711    0.009079    0.008145
      8         16           0        0.727998    1.466033   -0.529892
      9          6           0        2.272108    0.701623   -0.315024
     10          6           0        2.129609   -0.577661    0.136910
     11          6           0        0.767041   -0.981076    0.326734
     12          1           0        0.448732   -1.947119    0.683041
     13         16           0        3.674457   -1.342998    0.351172
     14          6           0        4.484637    0.105531   -0.184352
     15          6           0        3.636702    1.105140   -0.503778
     16          1           0        5.560350    0.126736   -0.228541
     17          1           0        3.953580    2.074302   -0.852679
     18          1           0       -2.065547   -0.926369   -1.820701
     19          8           0       -4.819137   -0.823437   -1.278500
     20          1           0       -4.507991   -1.152784   -2.104609
 ---------------------------------------------------------------------

 The electronic state is 1-A.
 Alpha  occ. eigenvalues --  -91.99433 -91.99375 -91.98874 -20.60697 -11.31287
 Alpha  occ. eigenvalues --  -11.29320 -11.29240 -11.28135 -11.27701 -11.27520
 Alpha  occ. eigenvalues --  -11.26355 -11.26109 -11.25636 -11.25527  -8.99589
 Alpha  occ. eigenvalues --   -8.99558  -8.99058  -6.67751  -6.67724  -6.67671
 Alpha  occ. eigenvalues --   -6.67646  -6.67461  -6.67439  -6.67224  -6.67134
 Alpha  occ. eigenvalues --   -6.66935  -1.42546  -1.22162  -1.18586  -1.13186
 Alpha  occ. eigenvalues --   -1.03033  -1.02565  -0.98984  -0.96116  -0.94980
 Alpha  occ. eigenvalues --   -0.84047  -0.78519  -0.77811  -0.74759  -0.72506
 Alpha  occ. eigenvalues --   -0.72399  -0.67520  -0.66131  -0.61088  -0.60595
 Alpha  occ. eigenvalues --   -0.58273  -0.57475  -0.56657  -0.54888  -0.54219
 Alpha  occ. eigenvalues --   -0.52473  -0.50930  -0.49366  -0.48712  -0.46646
 Alpha  occ. eigenvalues --   -0.46604  -0.39191  -0.35022  -0.32604  -0.32064
 Alpha  occ. eigenvalues --   -0.30979
 Alpha virt. eigenvalues --    0.03041   0.03381   0.04531   0.04671   0.04773
 Alpha virt. eigenvalues --    0.06177   0.07864   0.08197   0.08394   0.08682
 Alpha virt. eigenvalues --    0.09378   0.09927   0.10362   0.10774   0.11454

 Mulliken charges:
               1
     1  C    0.594001
     2  C    0.183858
     3  C    0.376427
     4  C    0.048000
     5  S    0.417582
     6  H   -0.344003
     7  C    0.390872
     8  S    0.408004
     9  C   -0.768151
    10  C   -0.251006
    11  C    0.089985
    12  H   -0.422418
    13  S    0.652606
    14  C   -0.070495
    15  C    0.638755
    16  H   -0.376680
    17  H   -0.324332
    18  H   -0.524545
    19  O   -0.848345
    20  H    0.129885
 Sum of Mulliken charges =  -0.00000

 Dipole moment (field-independent basis, Debye):
    X=              1.1635    Y=             -0.6619    Z=             -1.6787  Tot=              2.1470
 Quadrupole moment (field-independent basis, Debye-Ang):
   XX=            -96.9290   YY=           -101.9221   ZZ=           -100.9411
   XY=              5.2438   XZ=              1.5862   YZ=              1.4343

 Normal termination of Gaussian 16 at Wed Oct 27 04:04:30 2021.
