 Gaussian 16, Revision C.01,
 Gaussian 16:  ES64L-G16RevC.01  3-Jul-2019

 ---------------------------------
 # opt=modredundant hf/aug-cc-pvdz
 ---------------------------------

 --------------
 pg2T_TT_85.pdb
 --------------
 Symbolic Z-matrix:
 Charge =  0 Multiplicity = 1

 SCF Done:  E(RHF) =  -1649.41928517     A.U. after   18 cycles
 SCF Done:  E(RHF) =  -1649.50131312     A.U. after   15 cycles
 SCF Done:  E(RHF) =  -1649.60603933     A.U. after   15 cycles
 SCF Done:  E(RHF) =  -1649.62349412     A.U. after   15 cycles
 SCF Done:  E(RHF) =  -1649.63686771     A.U. after   15 cycles
 SCF Done:  E(RHF) =  -1649.63829519     A.U. after   15 cycles
 SCF Done:  E(RHF) =  -1649.64098551     A.U. after   14 cycles
 SCF Done:  E(RHF) =  -1649.64035012     A.U. after   15 cycles
 SCF Done:  E(RHF) =  -1649.64145927     A.U. after   12 cycles
 SCF Done:  E(RHF) =  -1649.64145576     A.U. after   12 cycles
 SCF Done:  E(RHF) =  -1649.64149616     A.U. after   12 cycles
 SCF Done:  E(RHF) =  -1649.64151066     A.U. after   11 cycles
 SCF Done:  E(RHF) =  -1649.64151134     A.U. after    9 cycles
 SCF Done:  E(RHF) =  -1649.64151141     A.U. after    9 cycles
 Optimization completed.
    -- Stationary point found.

                         Standard orientation:
 ---------------------------------------------------------------------
 Center     Atomic      Atomic             Coordinates (Angstroms)
 Number     Number       Type             X           Y           Z
 ---------------------------------------------------------------------
      1          6           0       -3.802964    0.046720   -0.604027
      2          6           0       -2.428740    0.252817   -0.971513
      3          6           0       -1.569278   -0.068565    0.021182
      4          6           0       -3.951852   -0.422727    0.650864
      5         16           0       -2.416105   -0.629145    1.427775
      6          1           0       -4.872085   -0.658196    1.155225
      7          6           0       -0.095520    0.011481   -0.009554
      8         16           0        0.719852    1.522705    0.364170
      9          6           0        2.268152    0.773473    0.127860
     10          6           0        2.132030   -0.542405   -0.205816
     11          6           0        0.771491   -0.987537   -0.283089
     12          1           0        0.458403   -1.989510   -0.527220
     13         16           0        3.680800   -1.292343   -0.444746
     14          6           0        4.483758    0.213026   -0.083465
     15          6           0        3.630782    1.219076    0.200330
     16          1           0        5.559442    0.258894   -0.102556
     17          1           0        3.942847    2.220270    0.448628
     18          1           0       -2.109046    0.621697   -1.935003
     19          8           0       -4.850095    0.287935   -1.425785
     20          1           0       -4.558691    0.651755   -2.244614
 ---------------------------------------------------------------------

 The electronic state is 1-A.
 Alpha  occ. eigenvalues --  -91.99449 -91.99369 -91.98894 -20.60692 -11.31292
 Alpha  occ. eigenvalues --  -11.29317 -11.29238 -11.28131 -11.27699 -11.27523
 Alpha  occ. eigenvalues --  -11.26343 -11.26109 -11.25629 -11.25514  -8.99605
 Alpha  occ. eigenvalues --   -8.99551  -8.99077  -6.67767  -6.67717  -6.67686
 Alpha  occ. eigenvalues --   -6.67639  -6.67477  -6.67432  -6.67242  -6.67152
 Alpha  occ. eigenvalues --   -6.66954  -1.42543  -1.22163  -1.18590  -1.13186
 Alpha  occ. eigenvalues --   -1.03009  -1.02581  -0.99014  -0.96087  -0.94993
 Alpha  occ. eigenvalues --   -0.84043  -0.78485  -0.77842  -0.74823  -0.72573
 Alpha  occ. eigenvalues --   -0.72255  -0.67498  -0.66125  -0.61072  -0.60596
 Alpha  occ. eigenvalues --   -0.58323  -0.57478  -0.56693  -0.54861  -0.54219
 Alpha  occ. eigenvalues --   -0.52470  -0.50943  -0.49376  -0.48690  -0.46661
 Alpha  occ. eigenvalues --   -0.46582  -0.39209  -0.35006  -0.32681  -0.31954
 Alpha  occ. eigenvalues --   -0.31011
 Alpha virt. eigenvalues --    0.03066   0.03380   0.04486   0.04720   0.04763
 Alpha virt. eigenvalues --    0.06244   0.07704   0.08240   0.08421   0.08672
 Alpha virt. eigenvalues --    0.09413   0.09882   0.10356   0.10824   0.11419

 Mulliken charges:
               1
     1  C    0.591252
     2  C    0.204400
     3  C    0.361149
     4  C    0.055247
     5  S    0.407729
     6  H   -0.344931
     7  C    0.403507
     8  S    0.403896
     9  C   -0.763636
    10  C   -0.274867
    11  C    0.107197
    12  H   -0.427939
    13  S    0.652798
    14  C   -0.073770
    15  C    0.640360
    16  H   -0.376610
    17  H   -0.324006
    18  H   -0.525379
    19  O   -0.846596
    20  H    0.130202
 Sum of Mulliken charges =  -0.00000

 Dipole moment (field-independent basis, Debye):
    X=              1.1275    Y=              0.7170    Z=             -1.6613  Tot=              2.1319
 Quadrupole moment (field-independent basis, Debye-Ang):
   XX=            -96.7989   YY=           -101.9290   ZZ=           -100.9428
   XY=              2.6809   XZ=              4.2314   YZ=             -1.6291

 Normal termination of Gaussian 16 at Wed Oct 27 04:04:04 2021.
