 Gaussian 16, Revision C.01,
 Gaussian 16:  ES64L-G16RevC.01  3-Jul-2019

 ---------------------------------
 # opt=modredundant hf/aug-cc-pvdz
 ---------------------------------

 ---------------
 pg2T_TT_-95.pdb
 ---------------
 Symbolic Z-matrix:
 Charge =  0 Multiplicity = 1

 SCF Done:  E(RHF) =  -1649.41883657     A.U. after   18 cycles
 SCF Done:  E(RHF) =  -1649.50096559     A.U. after   15 cycles
 SCF Done:  E(RHF) =  -1649.60576881     A.U. after   15 cycles
 SCF Done:  E(RHF) =  -1649.62341660     A.U. after   15 cycles
 SCF Done:  E(RHF) =  -1649.63688297     A.U. after   15 cycles
 SCF Done:  E(RHF) =  -1649.63829491     A.U. after   15 cycles
 SCF Done:  E(RHF) =  -1649.64098743     A.U. after   14 cycles
 SCF Done:  E(RHF) =  -1649.64062749     A.U. after   15 cycles
 SCF Done:  E(RHF) =  -1649.64139319     A.U. after   13 cycles
 SCF Done:  E(RHF) =  -1649.64138920     A.U. after   12 cycles
 SCF Done:  E(RHF) =  -1649.64144557     A.U. after   12 cycles
 SCF Done:  E(RHF) =  -1649.64145685     A.U. after   11 cycles
 SCF Done:  E(RHF) =  -1649.64145723     A.U. after   10 cycles
 SCF Done:  E(RHF) =  -1649.64145790     A.U. after    9 cycles
 SCF Done:  E(RHF) =  -1649.64145792     A.U. after    9 cycles
 Optimization completed.
    -- Stationary point found.

                         Standard orientation:
 ---------------------------------------------------------------------
 Center     Atomic      Atomic             Coordinates (Angstroms)
 Number     Number       Type             X           Y           Z
 ---------------------------------------------------------------------
      1          6           0        3.789714    0.410226    0.504275
      2          6           0        2.406749    0.515722    0.881968
      3          6           0        1.568763    0.041369   -0.066682
      4          6           0        3.966512   -0.145184   -0.711111
      5         16           0        2.447504   -0.554152   -1.439525
      6          1           0        4.898258   -0.331245   -1.214963
      7          6           0        0.094720   -0.009254   -0.008318
      8         16           0       -0.728054   -1.466218    0.529592
      9          6           0       -2.272131   -0.701733    0.314718
     10          6           0       -2.129586    0.577575   -0.137116
     11          6           0       -0.766996    0.980942   -0.326906
     12          1           0       -0.448657    1.947118   -0.682824
     13         16           0       -3.674405    1.343110   -0.351010
     14          6           0       -4.484624   -0.105339    0.184675
     15          6           0       -3.636740   -1.105101    0.503751
     16          1           0       -5.560321   -0.126373    0.229295
     17          1           0       -3.953633   -2.074237    0.852705
     18          1           0        2.065485    0.925711    1.821174
     19          8           0        4.819027    0.823189    1.278763
     20          1           0        4.507637    1.154317    2.104072
 ---------------------------------------------------------------------

 The electronic state is 1-A.
 Alpha  occ. eigenvalues --  -91.99434 -91.99376 -91.98873 -20.60698 -11.31287
 Alpha  occ. eigenvalues --  -11.29320 -11.29240 -11.28135 -11.27701 -11.27520
 Alpha  occ. eigenvalues --  -11.26356 -11.26109 -11.25635 -11.25528  -8.99589
 Alpha  occ. eigenvalues --   -8.99558  -8.99057  -6.67751  -6.67724  -6.67671
 Alpha  occ. eigenvalues --   -6.67646  -6.67461  -6.67439  -6.67224  -6.67134
 Alpha  occ. eigenvalues --   -6.66935  -1.42550  -1.22162  -1.18585  -1.13186
 Alpha  occ. eigenvalues --   -1.03033  -1.02564  -0.98984  -0.96116  -0.94980
 Alpha  occ. eigenvalues --   -0.84047  -0.78519  -0.77811  -0.74760  -0.72506
 Alpha  occ. eigenvalues --   -0.72398  -0.67520  -0.66132  -0.61089  -0.60596
 Alpha  occ. eigenvalues --   -0.58272  -0.57475  -0.56656  -0.54888  -0.54220
 Alpha  occ. eigenvalues --   -0.52473  -0.50932  -0.49365  -0.48711  -0.46647
 Alpha  occ. eigenvalues --   -0.46604  -0.39191  -0.35022  -0.32604  -0.32063
 Alpha  occ. eigenvalues --   -0.30980
 Alpha virt. eigenvalues --    0.03041   0.03381   0.04531   0.04671   0.04773
 Alpha virt. eigenvalues --    0.06176   0.07865   0.08197   0.08394   0.08682
 Alpha virt. eigenvalues --    0.09378   0.09927   0.10363   0.10774   0.11453

 Mulliken charges:
               1
     1  C    0.594231
     2  C    0.183138
     3  C    0.376652
     4  C    0.047983
     5  S    0.417603
     6  H   -0.344023
     7  C    0.390926
     8  S    0.407984
     9  C   -0.768065
    10  C   -0.251256
    11  C    0.090204
    12  H   -0.422453
    13  S    0.652607
    14  C   -0.070499
    15  C    0.638774
    16  H   -0.376673
    17  H   -0.324344
    18  H   -0.524369
    19  O   -0.848340
    20  H    0.129921
 Sum of Mulliken charges =  -0.00000

 Dipole moment (field-independent basis, Debye):
    X=             -1.1636    Y=              0.6653    Z=              1.6785  Tot=              2.1480
 Quadrupole moment (field-independent basis, Debye-Ang):
   XX=            -96.9306   YY=           -101.9149   ZZ=           -100.9469
   XY=              5.2578   XZ=              1.5764   YZ=              1.4396

 Normal termination of Gaussian 16 at Wed Oct 27 02:24:49 2021.
