 Gaussian 16, Revision C.01,
 Gaussian 16:  ES64L-G16RevC.01  3-Jul-2019

 ---------------------------------
 # opt=modredundant hf/aug-cc-pvdz
 ---------------------------------

 ---------------
 pg2T_TT_140.pdb
 ---------------
 Symbolic Z-matrix:
 Charge =  0 Multiplicity = 1

 SCF Done:  E(RHF) =  -1649.42187569     A.U. after   18 cycles
 SCF Done:  E(RHF) =  -1649.50356786     A.U. after   15 cycles
 SCF Done:  E(RHF) =  -1649.60798612     A.U. after   16 cycles
 SCF Done:  E(RHF) =  -1649.62537619     A.U. after   16 cycles
 SCF Done:  E(RHF) =  -1649.63841609     A.U. after   15 cycles
 SCF Done:  E(RHF) =  -1649.63983185     A.U. after   15 cycles
 SCF Done:  E(RHF) =  -1649.64246257     A.U. after   15 cycles
 SCF Done:  E(RHF) =  -1649.64219704     A.U. after   15 cycles
 SCF Done:  E(RHF) =  -1649.64284235     A.U. after   13 cycles
 SCF Done:  E(RHF) =  -1649.64286011     A.U. after   13 cycles
 SCF Done:  E(RHF) =  -1649.64289901     A.U. after   12 cycles
 SCF Done:  E(RHF) =  -1649.64290895     A.U. after   11 cycles
 SCF Done:  E(RHF) =  -1649.64290967     A.U. after   10 cycles
 Optimization completed.
    -- Stationary point found.

                         Standard orientation:
 ---------------------------------------------------------------------
 Center     Atomic      Atomic             Coordinates (Angstroms)
 Number     Number       Type             X           Y           Z
 ---------------------------------------------------------------------
      1          6           0        3.762612    0.726131   -0.188808
      2          6           0        2.368813    1.012569   -0.382617
      3          6           0        1.565540   -0.002424    0.016924
      4          6           0        3.987503   -0.494013    0.338128
      5         16           0        2.497652   -1.329883    0.637050
      6          1           0        4.936704   -0.945259    0.565116
      7          6           0        0.099217   -0.028266   -0.013034
      8         16           0       -0.770237   -1.482049   -0.482360
      9          6           0       -2.290798   -0.675708   -0.253613
     10          6           0       -2.108383    0.616482    0.144390
     11          6           0       -0.735090    0.993165    0.293288
     12          1           0       -0.392146    1.956216    0.633692
     13         16           0       -3.630582    1.421190    0.375436
     14          6           0       -4.485712   -0.028967   -0.081529
     15          6           0       -3.667435   -1.057261   -0.387577
     16          1           0       -5.562418   -0.028546   -0.094973
     17          1           0       -4.013722   -2.031642   -0.691066
     18          1           0        1.998610    1.924949   -0.824974
     19          8           0        4.760885    1.579761   -0.510699
     20          1           0        4.418949    2.367829   -0.897523
 ---------------------------------------------------------------------

 The electronic state is 1-A.
 Alpha  occ. eigenvalues --  -91.99546 -91.99442 -91.98955 -20.60765 -11.31401
 Alpha  occ. eigenvalues --  -11.29569 -11.29485 -11.28168 -11.27785 -11.27639
 Alpha  occ. eigenvalues --  -11.26373 -11.26172 -11.25621 -11.25436  -8.99717
 Alpha  occ. eigenvalues --   -8.99624  -8.99156  -6.67881  -6.67801  -6.67791
 Alpha  occ. eigenvalues --   -6.67713  -6.67590  -6.67506  -6.67325  -6.67234
 Alpha  occ. eigenvalues --   -6.67034  -1.42630  -1.22298  -1.18690  -1.13269
 Alpha  occ. eigenvalues --   -1.03285  -1.02671  -0.99105  -0.96175  -0.94999
 Alpha  occ. eigenvalues --   -0.84303  -0.78811  -0.77812  -0.74623  -0.73042
 Alpha  occ. eigenvalues --   -0.72121  -0.67714  -0.66221  -0.61257  -0.60680
 Alpha  occ. eigenvalues --   -0.58270  -0.57500  -0.56355  -0.54979  -0.53894
 Alpha  occ. eigenvalues --   -0.52837  -0.51266  -0.50210  -0.48417  -0.46948
 Alpha  occ. eigenvalues --   -0.46572  -0.39479  -0.35768  -0.33301  -0.32703
 Alpha  occ. eigenvalues --   -0.29032
 Alpha virt. eigenvalues --    0.02908   0.03376   0.04496   0.04780   0.04874
 Alpha virt. eigenvalues --    0.05799   0.07029   0.08268   0.08297   0.09251
 Alpha virt. eigenvalues --    0.09574   0.10237   0.10701   0.11000   0.11595

 Mulliken charges:
               1
     1  C    0.435320
     2  C    0.240318
     3  C    0.478193
     4  C    0.082860
     5  S    0.498633
     6  H   -0.356219
     7  C    0.225090
     8  S    0.427189
     9  C   -0.749370
    10  C   -0.110116
    11  C    0.208936
    12  H   -0.446680
    13  S    0.596011
    14  C   -0.080921
    15  C    0.513658
    16  H   -0.379568
    17  H   -0.318872
    18  H   -0.551955
    19  O   -0.844915
    20  H    0.132407
 Sum of Mulliken charges =  -0.00000

 Dipole moment (field-independent basis, Debye):
    X=             -1.2703    Y=              1.4960    Z=             -0.7605  Tot=              2.1048
 Quadrupole moment (field-independent basis, Debye-Ang):
   XX=            -96.7012   YY=            -95.0212   ZZ=           -108.0446
   XY=              6.8448   XZ=             -0.0991   YZ=             -1.7233

 Normal termination of Gaussian 16 at Wed Oct 27 04:17:32 2021.
