 Gaussian 16, Revision C.01,
 Gaussian 16:  ES64L-G16RevC.01  3-Jul-2019

 ---------------------------------
 # opt=modredundant hf/aug-cc-pvdz
 ---------------------------------

 -------------
 pg2T_TT_5.pdb
 -------------
 Symbolic Z-matrix:
 Charge =  0 Multiplicity = 1

 SCF Done:  E(RHF) =  -1649.42292076     A.U. after   19 cycles
 SCF Done:  E(RHF) =  -1649.50457376     A.U. after   16 cycles
 SCF Done:  E(RHF) =  -1649.60897608     A.U. after   16 cycles
 SCF Done:  E(RHF) =  -1649.62615053     A.U. after   16 cycles
 SCF Done:  E(RHF) =  -1649.63928922     A.U. after   15 cycles
 SCF Done:  E(RHF) =  -1649.64070499     A.U. after   15 cycles
 SCF Done:  E(RHF) =  -1649.64332013     A.U. after   15 cycles
 SCF Done:  E(RHF) =  -1649.64337759     A.U. after   14 cycles
 SCF Done:  E(RHF) =  -1649.64354910     A.U. after   14 cycles
 SCF Done:  E(RHF) =  -1649.64370787     A.U. after   13 cycles
 SCF Done:  E(RHF) =  -1649.64370477     A.U. after   12 cycles
 SCF Done:  E(RHF) =  -1649.64371057     A.U. after   11 cycles
 SCF Done:  E(RHF) =  -1649.64371599     A.U. after   11 cycles
 SCF Done:  E(RHF) =  -1649.64371602     A.U. after    8 cycles
 SCF Done:  E(RHF) =  -1649.64371604     A.U. after    8 cycles
 Optimization completed.
    -- Stationary point found.

                         Standard orientation:
 ---------------------------------------------------------------------
 Center     Atomic      Atomic             Coordinates (Angstroms)
 Number     Number       Type             X           Y           Z
 ---------------------------------------------------------------------
      1          6           0       -3.827192    0.413247   -0.039137
      2          6           0       -2.471937    0.888933   -0.055534
      3          6           0       -1.560424   -0.112308   -0.001082
      4          6           0       -3.920675   -0.928470    0.028083
      5         16           0       -2.347347   -1.661260    0.078517
      6          1           0       -4.814392   -1.525498    0.051570
      7          6           0       -0.100877    0.002327    0.003686
      8         16           0        0.665549    1.586201    0.066082
      9          6           0        2.241283    0.856230    0.027218
     10          6           0        2.150859   -0.503268   -0.026020
     11          6           0        0.808775   -1.000329   -0.041042
     12          1           0        0.545737   -2.044396   -0.087873
     13         16           0        3.726053   -1.233610   -0.062686
     14          6           0        4.475644    0.339692   -0.003639
     15          6           0        3.585879    1.353888    0.040654
     16          1           0        5.549650    0.416727   -0.005604
     17          1           0        3.861715    2.394898    0.080811
     18          1           0       -2.213103    1.935807   -0.112497
     19          8           0       -4.909201    1.221787   -0.088106
     20          1           0       -4.652091    2.127211   -0.131287
 ---------------------------------------------------------------------

 The electronic state is 1-A.
 Alpha  occ. eigenvalues --  -91.99617 -91.99515 -91.98903 -20.60765 -11.31445
 Alpha  occ. eigenvalues --  -11.29746 -11.29666 -11.28250 -11.27923 -11.27754
 Alpha  occ. eigenvalues --  -11.26437 -11.26268 -11.25657 -11.25446  -8.99815
 Alpha  occ. eigenvalues --   -8.99696  -8.99123  -6.67985  -6.67907  -6.67861
 Alpha  occ. eigenvalues --   -6.67783  -6.67693  -6.67577  -6.67299  -6.67208
 Alpha  occ. eigenvalues --   -6.67003  -1.42659  -1.22421  -1.18738  -1.13349
 Alpha  occ. eigenvalues --   -1.03243  -1.02988  -0.99337  -0.95993  -0.95151
 Alpha  occ. eigenvalues --   -0.84477  -0.78779  -0.78106  -0.75295  -0.73073
 Alpha  occ. eigenvalues --   -0.71464  -0.67608  -0.66289  -0.61333  -0.60725
 Alpha  occ. eigenvalues --   -0.58628  -0.57556  -0.56801  -0.54789  -0.53320
 Alpha  occ. eigenvalues --   -0.53145  -0.52193  -0.50529  -0.48009  -0.47061
 Alpha  occ. eigenvalues --   -0.46602  -0.39730  -0.36413  -0.33625  -0.32771
 Alpha  occ. eigenvalues --   -0.28233
 Alpha virt. eigenvalues --    0.03121   0.03332   0.04307   0.04707   0.04985
 Alpha virt. eigenvalues --    0.05235   0.06723   0.08282   0.08971   0.09340
 Alpha virt. eigenvalues --    0.10255   0.10521   0.10866   0.11266   0.11760

 Mulliken charges:
               1
     1  C    0.370277
     2  C    0.199497
     3  C    0.636560
     4  C    0.092606
     5  S    0.525917
     6  H   -0.405660
     7  C    0.184259
     8  S    0.581518
     9  C   -0.659546
    10  C   -0.120046
    11  C    0.362395
    12  H   -0.508563
    13  S    0.527436
    14  C   -0.184222
    15  C    0.412872
    16  H   -0.382751
    17  H   -0.334081
    18  H   -0.582972
    19  O   -0.851545
    20  H    0.136050
 Sum of Mulliken charges =  -0.00000

 Dipole moment (field-independent basis, Debye):
    X=              1.1933    Y=              1.8220    Z=             -0.1035  Tot=              2.1805
 Quadrupole moment (field-independent basis, Debye-Ang):
   XX=            -96.1274   YY=            -92.7093   ZZ=           -110.6159
   XY=              0.0928   XZ=              0.3413   YZ=             -0.2134

 Normal termination of Gaussian 16 at Wed Oct 27 03:08:04 2021.
