 Gaussian 16, Revision C.01,
 Gaussian 16:  ES64L-G16RevC.01  3-Jul-2019

 ---------------------------------
 # opt=modredundant hf/aug-cc-pvdz
 ---------------------------------

 --------------
 pg2T_TT_65.pdb
 --------------
 Symbolic Z-matrix:
 Charge =  0 Multiplicity = 1

 SCF Done:  E(RHF) =  -1649.42038328     A.U. after   18 cycles
 SCF Done:  E(RHF) =  -1649.50237641     A.U. after   15 cycles
 SCF Done:  E(RHF) =  -1649.60715263     A.U. after   15 cycles
 SCF Done:  E(RHF) =  -1649.62459856     A.U. after   15 cycles
 SCF Done:  E(RHF) =  -1649.63794725     A.U. after   15 cycles
 SCF Done:  E(RHF) =  -1649.63937750     A.U. after   15 cycles
 SCF Done:  E(RHF) =  -1649.64205847     A.U. after   14 cycles
 SCF Done:  E(RHF) =  -1649.64134227     A.U. after   15 cycles
 SCF Done:  E(RHF) =  -1649.64257421     A.U. after   13 cycles
 SCF Done:  E(RHF) =  -1649.64258057     A.U. after   12 cycles
 SCF Done:  E(RHF) =  -1649.64260114     A.U. after   12 cycles
 SCF Done:  E(RHF) =  -1649.64261802     A.U. after   11 cycles
 SCF Done:  E(RHF) =  -1649.64261867     A.U. after    9 cycles
 Optimization completed.
    -- Stationary point found.

                         Standard orientation:
 ---------------------------------------------------------------------
 Center     Atomic      Atomic             Coordinates (Angstroms)
 Number     Number       Type             X           Y           Z
 ---------------------------------------------------------------------
      1          6           0        3.816421    0.304980    0.435593
      2          6           0        2.454608    0.701344    0.665297
      3          6           0        1.567375   -0.070086   -0.004133
      4          6           0        3.930059   -0.755163   -0.389723
      5         16           0        2.373305   -1.299804   -0.924025
      6          1           0        4.834979   -1.238870   -0.711687
      7          6           0        0.098028    0.023677    0.016620
      8         16           0       -0.702333    1.449812   -0.626007
      9          6           0       -2.258738    0.765322   -0.273501
     10          6           0       -2.135266   -0.476508    0.278383
     11          6           0       -0.779821   -0.911492    0.443731
     12          1           0       -0.478275   -1.856739    0.864413
     13         16           0       -3.691511   -1.162113    0.632924
     14          6           0       -4.479888    0.266402    0.016940
     15          6           0       -3.616745    1.203391   -0.427516
     16          1           0       -5.555217    0.323024    0.021189
     17          1           0       -3.918960    2.150693   -0.843148
     18          1           0        2.163842    1.516477    1.311348
     19          8           0        4.885818    0.915526    0.994930
     20          1           0        4.619506    1.663683    1.502031
 ---------------------------------------------------------------------

 The electronic state is 1-A.
 Alpha  occ. eigenvalues --  -91.99539 -91.99378 -91.98971 -20.60705 -11.31346
 Alpha  occ. eigenvalues --  -11.29407 -11.29326 -11.28136 -11.27728 -11.27571
 Alpha  occ. eigenvalues --  -11.26306 -11.26133 -11.25620 -11.25460  -8.99698
 Alpha  occ. eigenvalues --   -8.99561  -8.99156  -6.67860  -6.67780  -6.67727
 Alpha  occ. eigenvalues --   -6.67649  -6.67570  -6.67442  -6.67322  -6.67232
 Alpha  occ. eigenvalues --   -6.67033  -1.42566  -1.22213  -1.18645  -1.13220
 Alpha  occ. eigenvalues --   -1.03031  -1.02681  -0.99127  -0.96030  -0.95041
 Alpha  occ. eigenvalues --   -0.84138  -0.78508  -0.77918  -0.74953  -0.72730
 Alpha  occ. eigenvalues --   -0.71964  -0.67489  -0.66155  -0.61098  -0.60618
 Alpha  occ. eigenvalues --   -0.58452  -0.57479  -0.56751  -0.54806  -0.54148
 Alpha  occ. eigenvalues --   -0.52599  -0.51058  -0.49682  -0.48489  -0.46766
 Alpha  occ. eigenvalues --   -0.46620  -0.39320  -0.35272  -0.33004  -0.32405
 Alpha  occ. eigenvalues --   -0.30046
 Alpha virt. eigenvalues --    0.03107   0.03379   0.04417   0.04743   0.04843
 Alpha virt. eigenvalues --    0.06374   0.07194   0.08214   0.08310   0.08829
 Alpha virt. eigenvalues --    0.09720   0.10022   0.10443   0.10895   0.11361

 Mulliken charges:
               1
     1  C    0.520262
     2  C    0.234481
     3  C    0.426310
     4  C    0.088009
     5  S    0.417700
     6  H   -0.350595
     7  C    0.394457
     8  S    0.401159
     9  C   -0.738640
    10  C   -0.255341
    11  C    0.150532
    12  H   -0.448617
    13  S    0.631519
    14  C   -0.087022
    15  C    0.568251
    16  H   -0.375864
    17  H   -0.319688
    18  H   -0.543720
    19  O   -0.845434
    20  H    0.132242
 Sum of Mulliken charges =  -0.00000

 Dipole moment (field-independent basis, Debye):
    X=             -1.0933    Y=              1.4789    Z=              1.0588  Tot=              2.1221
 Quadrupole moment (field-independent basis, Debye-Ang):
   XX=            -96.5669   YY=            -97.6355   ZZ=           -105.3323
   XY=             -0.7191   XZ=              3.7688   YZ=              2.1016

 Normal termination of Gaussian 16 at Wed Oct 27 03:22:29 2021.
