 Gaussian 16, Revision C.01,
 Gaussian 16:  ES64L-G16RevC.01  3-Jul-2019

 ---------------------------------
 # opt=modredundant hf/aug-cc-pvdz
 ---------------------------------

 --------------
 pg2T_TT_60.pdb
 --------------
 Symbolic Z-matrix:
 Charge =  0 Multiplicity = 1

 SCF Done:  E(RHF) =  -1649.42080172     A.U. after   18 cycles
 SCF Done:  E(RHF) =  -1649.50275840     A.U. after   15 cycles
 SCF Done:  E(RHF) =  -1649.60753951     A.U. after   15 cycles
 SCF Done:  E(RHF) =  -1649.62500556     A.U. after   15 cycles
 SCF Done:  E(RHF) =  -1649.63832628     A.U. after   15 cycles
 SCF Done:  E(RHF) =  -1649.63975498     A.U. after   15 cycles
 SCF Done:  E(RHF) =  -1649.64242382     A.U. after   14 cycles
 SCF Done:  E(RHF) =  -1649.64171820     A.U. after   15 cycles
 SCF Done:  E(RHF) =  -1649.64293708     A.U. after   13 cycles
 SCF Done:  E(RHF) =  -1649.64294607     A.U. after   12 cycles
 SCF Done:  E(RHF) =  -1649.64296308     A.U. after   12 cycles
 SCF Done:  E(RHF) =  -1649.64297989     A.U. after   11 cycles
 SCF Done:  E(RHF) =  -1649.64298051     A.U. after    9 cycles
 Optimization completed.
    -- Stationary point found.

                         Standard orientation:
 ---------------------------------------------------------------------
 Center     Atomic      Atomic             Coordinates (Angstroms)
 Number     Number       Type             X           Y           Z
 ---------------------------------------------------------------------
      1          6           0        3.817114    0.326285    0.402586
      2          6           0        2.456590    0.739036    0.609064
      3          6           0        1.566402   -0.074207   -0.005408
      4          6           0        3.927535   -0.786668   -0.350484
      5         16           0        2.368646   -1.362386   -0.845119
      6          1           0        4.830899   -1.292081   -0.641925
      7          6           0        0.098468    0.020963    0.013543
      8         16           0       -0.697277    1.462040   -0.600943
      9          6           0       -2.256063    0.775461   -0.262727
     10          6           0       -2.136550   -0.478046    0.263023
     11          6           0       -0.782755   -0.920359    0.420869
     12          1           0       -0.484885   -1.873967    0.824904
     13         16           0       -3.695056   -1.166158    0.602202
     14          6           0       -4.478810    0.277203    0.015617
     15          6           0       -3.612517    1.220692   -0.408622
     16          1           0       -5.553966    0.336917    0.020331
     17          1           0       -3.911616    2.177355   -0.804607
     18          1           0        2.169057    1.594340    1.202418
     19          8           0        4.888591    0.971106    0.917450
     20          1           0        4.624307    1.750489    1.376286
 ---------------------------------------------------------------------

 The electronic state is 1-A.
 Alpha  occ. eigenvalues --  -91.99563 -91.99385 -91.98985 -20.60710 -11.31361
 Alpha  occ. eigenvalues --  -11.29440 -11.29359 -11.28142 -11.27742 -11.27589
 Alpha  occ. eigenvalues --  -11.26301 -11.26143 -11.25619 -11.25446  -8.99724
 Alpha  occ. eigenvalues --   -8.99569  -8.99172  -6.67887  -6.67807  -6.67735
 Alpha  occ. eigenvalues --   -6.67656  -6.67597  -6.67450  -6.67339  -6.67249
 Alpha  occ. eigenvalues --   -6.67049  -1.42576  -1.22233  -1.18661  -1.13233
 Alpha  occ. eigenvalues --   -1.03047  -1.02714  -0.99156  -0.96021  -0.95055
 Alpha  occ. eigenvalues --   -0.84174  -0.78529  -0.77937  -0.74985  -0.72766
 Alpha  occ. eigenvalues --   -0.71899  -0.67494  -0.66169  -0.61113  -0.60626
 Alpha  occ. eigenvalues --   -0.58479  -0.57483  -0.56765  -0.54791  -0.54116
 Alpha  occ. eigenvalues --   -0.52651  -0.51104  -0.49777  -0.48437  -0.46806
 Alpha  occ. eigenvalues --   -0.46632  -0.39359  -0.35378  -0.33079  -0.32499
 Alpha  occ. eigenvalues --   -0.29802
 Alpha virt. eigenvalues --    0.03114   0.03377   0.04403   0.04739   0.04869
 Alpha virt. eigenvalues --    0.06398   0.07024   0.08212   0.08313   0.08897
 Alpha virt. eigenvalues --    0.09701   0.10160   0.10476   0.10867   0.11435

 Mulliken charges:
               1
     1  C    0.508091
     2  C    0.232828
     3  C    0.455030
     4  C    0.091161
     5  S    0.421692
     6  H   -0.352418
     7  C    0.383100
     8  S    0.398172
     9  C   -0.728968
    10  C   -0.240580
    11  C    0.167620
    12  H   -0.454792
    13  S    0.624008
    14  C   -0.091895
    15  C    0.547909
    16  H   -0.375892
    17  H   -0.318948
    18  H   -0.552505
    19  O   -0.846224
    20  H    0.132610
 Sum of Mulliken charges =  -0.00000

 Dipole moment (field-independent basis, Debye):
    X=             -1.0964    Y=              1.5453    Z=              0.9684  Tot=              2.1279
 Quadrupole moment (field-independent basis, Debye-Ang):
   XX=            -96.5390   YY=            -96.8948   ZZ=           -106.1004
   XY=             -0.6114   XZ=              3.4798   YZ=              1.9816

 Normal termination of Gaussian 16 at Wed Oct 27 03:33:12 2021.
