 Gaussian 16, Revision C.01,
 Gaussian 16:  ES64L-G16RevC.01  3-Jul-2019

 ---------------------------------
 # opt=modredundant hf/aug-cc-pvdz
 ---------------------------------

 --------------
 pg2T_TT_75.pdb
 --------------
 Symbolic Z-matrix:
 Charge =  0 Multiplicity = 1

 SCF Done:  E(RHF) =  -1649.41973238     A.U. after   18 cycles
 SCF Done:  E(RHF) =  -1649.50173706     A.U. after   15 cycles
 SCF Done:  E(RHF) =  -1649.60648011     A.U. after   15 cycles
 SCF Done:  E(RHF) =  -1649.62391644     A.U. after   15 cycles
 SCF Done:  E(RHF) =  -1649.63727299     A.U. after   15 cycles
 SCF Done:  E(RHF) =  -1649.63870125     A.U. after   15 cycles
 SCF Done:  E(RHF) =  -1649.64138909     A.U. after   14 cycles
 SCF Done:  E(RHF) =  -1649.64069025     A.U. after   15 cycles
 SCF Done:  E(RHF) =  -1649.64189381     A.U. after   13 cycles
 SCF Done:  E(RHF) =  -1649.64189520     A.U. after   12 cycles
 SCF Done:  E(RHF) =  -1649.64192466     A.U. after   12 cycles
 SCF Done:  E(RHF) =  -1649.64194098     A.U. after   11 cycles
 SCF Done:  E(RHF) =  -1649.64194166     A.U. after    9 cycles
 Optimization completed.
    -- Stationary point found.

                         Standard orientation:
 ---------------------------------------------------------------------
 Center     Atomic      Atomic             Coordinates (Angstroms)
 Number     Number       Type             X           Y           Z
 ---------------------------------------------------------------------
      1          6           0        3.812159    0.239216    0.511741
      2          6           0        2.445561    0.581914    0.795006
      3          6           0        1.568823   -0.067176   -0.004148
      4          6           0        3.938755   -0.659534   -0.485196
      5         16           0        2.389830   -1.114593   -1.116506
      6          1           0        4.849454   -1.074610   -0.878842
      7          6           0        0.096824    0.022450    0.017267
      8         16           0       -0.711678    1.441243   -0.631592
      9          6           0       -2.263788    0.751717   -0.270946
     10          6           0       -2.133460   -0.484163    0.292439
     11          6           0       -0.775169   -0.911635    0.456485
     12          1           0       -0.467285   -1.853443    0.880426
     13         16           0       -3.685708   -1.174112    0.656379
     14          6           0       -4.482048    0.244892    0.028842
     15          6           0       -3.624398    1.181788   -0.426155
     16          1           0       -5.557623    0.296524    0.034988
     17          1           0       -3.931994    2.123724   -0.849938
     18          1           0        2.143704    1.275326    1.566050
     19          8           0        4.873377    0.749810    1.177265
     20          1           0        4.598070    1.396598    1.804696
 ---------------------------------------------------------------------

 The electronic state is 1-A.
 Alpha  occ. eigenvalues --  -91.99489 -91.99369 -91.98932 -20.60695 -11.31315
 Alpha  occ. eigenvalues --  -11.29350 -11.29270 -11.28131 -11.27708 -11.27542
 Alpha  occ. eigenvalues --  -11.26324 -11.26117 -11.25623 -11.25490  -8.99645
 Alpha  occ. eigenvalues --   -8.99552  -8.99115  -6.67808  -6.67727  -6.67718
 Alpha  occ. eigenvalues --   -6.67640  -6.67518  -6.67433  -6.67281  -6.67191
 Alpha  occ. eigenvalues --   -6.66992  -1.42548  -1.22181  -1.18613  -1.13198
 Alpha  occ. eigenvalues --   -1.03010  -1.02622  -0.99067  -0.96056  -0.95014
 Alpha  occ. eigenvalues --   -0.84077  -0.78482  -0.77879  -0.74888  -0.72654
 Alpha  occ. eigenvalues --   -0.72104  -0.67487  -0.66134  -0.61077  -0.60603
 Alpha  occ. eigenvalues --   -0.58388  -0.57478  -0.56723  -0.54834  -0.54194
 Alpha  occ. eigenvalues --   -0.52515  -0.50987  -0.49504  -0.48597  -0.46699
 Alpha  occ. eigenvalues --   -0.46596  -0.39255  -0.35097  -0.32834  -0.32181
 Alpha  occ. eigenvalues --   -0.30563
 Alpha virt. eigenvalues --    0.03089   0.03381   0.04448   0.04750   0.04784
 Alpha virt. eigenvalues --    0.06312   0.07491   0.08263   0.08312   0.08730
 Alpha virt. eigenvalues --    0.09622   0.09868   0.10385   0.10891   0.11338

 Mulliken charges:
               1
     1  C    0.554200
     2  C    0.226432
     3  C    0.378502
     4  C    0.074536
     5  S    0.412026
     6  H   -0.347330
     7  C    0.399443
     8  S    0.406304
     9  C   -0.753322
    10  C   -0.277051
    11  C    0.129162
    12  H   -0.436609
    13  S    0.644802
    14  C   -0.079433
    15  C    0.610583
    16  H   -0.376145
    17  H   -0.321917
    18  H   -0.530428
    19  O   -0.844955
    20  H    0.131201
 Sum of Mulliken charges =  -0.00000

 Dipole moment (field-independent basis, Debye):
    X=             -1.1014    Y=              1.2748    Z=              1.2880  Tot=              2.1207
 Quadrupole moment (field-independent basis, Debye-Ang):
   XX=            -96.6605   YY=            -99.4327   ZZ=           -103.4815
   XY=             -1.1851   XZ=              4.2812   YZ=              2.2363

 Normal termination of Gaussian 16 at Wed Oct 27 03:34:20 2021.
