 Gaussian 16, Revision C.01,
 Gaussian 16:  ES64L-G16RevC.01  3-Jul-2019

 ---------------------------------
 # opt=modredundant hf/aug-cc-pvdz
 ---------------------------------

 ----------------
 pg2T_TT_-160.pdb
 ----------------
 Symbolic Z-matrix:
 Charge =  0 Multiplicity = 1

 SCF Done:  E(RHF) =  -1649.42089899     A.U. after   18 cycles
 SCF Done:  E(RHF) =  -1649.50246484     A.U. after   16 cycles
 SCF Done:  E(RHF) =  -1649.60675160     A.U. after   16 cycles
 SCF Done:  E(RHF) =  -1649.62415614     A.U. after   16 cycles
 SCF Done:  E(RHF) =  -1649.63734568     A.U. after   15 cycles
 SCF Done:  E(RHF) =  -1649.63885067     A.U. after   15 cycles
 SCF Done:  E(RHF) =  -1649.64148519     A.U. after   15 cycles
 SCF Done:  E(RHF) =  -1649.64125247     A.U. after   14 cycles
 SCF Done:  E(RHF) =  -1649.64184991     A.U. after   13 cycles
 SCF Done:  E(RHF) =  -1649.64187773     A.U. after   12 cycles
 SCF Done:  E(RHF) =  -1649.64189508     A.U. after   12 cycles
 SCF Done:  E(RHF) =  -1649.64190775     A.U. after   11 cycles
 SCF Done:  E(RHF) =  -1649.64190767     A.U. after   10 cycles
 SCF Done:  E(RHF) =  -1649.64190833     A.U. after    9 cycles
 SCF Done:  E(RHF) =  -1649.64190833     A.U. after    9 cycles
 Optimization completed.
    -- Stationary point found.

                         Standard orientation:
 ---------------------------------------------------------------------
 Center     Atomic      Atomic             Coordinates (Angstroms)
 Number     Number       Type             X           Y           Z
 ---------------------------------------------------------------------
      1          6           0        3.762132    0.761695    0.089976
      2          6           0        2.368732    1.073394    0.228826
      3          6           0        1.566213   -0.001197    0.026392
      4          6           0        3.992628   -0.531834   -0.211737
      5         16           0        2.505754   -1.411717   -0.353096
      6          1           0        4.942607   -1.014033   -0.355890
      7          6           0        0.100152   -0.024994    0.046740
      8         16           0       -0.780156   -1.528315    0.285361
      9          6           0       -2.296139   -0.696695    0.138896
     10          6           0       -2.106621    0.637810   -0.071712
     11          6           0       -0.732380    1.029024   -0.136418
     12          1           0       -0.391001    2.031415   -0.334177
     13         16           0       -3.624826    1.469794   -0.218122
     14          6           0       -4.487507   -0.028543    0.015324
     15          6           0       -3.674336   -1.090816    0.192196
     16          1           0       -5.564242   -0.028101    0.006893
     17          1           0       -4.025521   -2.097318    0.350413
     18          1           0        2.002413    2.053336    0.495293
     19          8           0        4.756775    1.663125    0.251146
     20          1           0        4.411954    2.506449    0.491104
 ---------------------------------------------------------------------

 The electronic state is 1-A.
 Alpha  occ. eigenvalues --  -91.99564 -91.99475 -91.98975 -20.60781 -11.31431
 Alpha  occ. eigenvalues --  -11.29711 -11.29627 -11.28194 -11.27834 -11.27690
 Alpha  occ. eigenvalues --  -11.26402 -11.26210 -11.25604 -11.25380  -8.99751
 Alpha  occ. eigenvalues --   -8.99657  -8.99190  -6.67916  -6.67837  -6.67823
 Alpha  occ. eigenvalues --   -6.67745  -6.67625  -6.67539  -6.67361  -6.67270
 Alpha  occ. eigenvalues --   -6.67068  -1.42662  -1.22360  -1.18729  -1.13305
 Alpha  occ. eigenvalues --   -1.03374  -1.02722  -0.99179  -0.96193  -0.95002
 Alpha  occ. eigenvalues --   -0.84397  -0.78920  -0.77859  -0.74662  -0.73203
 Alpha  occ. eigenvalues --   -0.71989  -0.67817  -0.66248  -0.61346  -0.60723
 Alpha  occ. eigenvalues --   -0.58288  -0.57527  -0.56244  -0.55004  -0.53526
 Alpha  occ. eigenvalues --   -0.53011  -0.51736  -0.50549  -0.48370  -0.46995
 Alpha  occ. eigenvalues --   -0.46450  -0.39732  -0.36069  -0.33609  -0.32610
 Alpha  occ. eigenvalues --   -0.28437
 Alpha virt. eigenvalues --    0.02846   0.03372   0.04463   0.04776   0.04969
 Alpha virt. eigenvalues --    0.05445   0.07027   0.08319   0.08439   0.09168
 Alpha virt. eigenvalues --    0.10028   0.10068   0.10782   0.11087   0.11797

 Mulliken charges:
               1
     1  C    0.363745
     2  C    0.405303
     3  C    0.403479
     4  C    0.064053
     5  S    0.526383
     6  H   -0.372466
     7  C    0.013135
     8  S    0.467316
     9  C   -0.691841
    10  C   -0.074950
    11  C    0.506933
    12  H   -0.493112
    13  S    0.545407
    14  C   -0.140491
    15  C    0.455998
    16  H   -0.379704
    17  H   -0.321103
    18  H   -0.560462
    19  O   -0.850348
    20  H    0.132726
 Sum of Mulliken charges =  -0.00000

 Dipole moment (field-independent basis, Debye):
    X=             -1.3098    Y=              1.5862    Z=              0.4207  Tot=              2.0997
 Quadrupole moment (field-independent basis, Debye-Ang):
   XX=            -96.5883   YY=            -93.3360   ZZ=           -109.7619
   XY=              7.1960   XZ=              0.3497   YZ=              1.2929

 Normal termination of Gaussian 16 at Wed Oct 27 01:48:50 2021.
