 Gaussian 16, Revision C.01,
 Gaussian 16:  ES64L-G16RevC.01  3-Jul-2019

 ---------------------------------
 # opt=modredundant hf/aug-cc-pvdz
 ---------------------------------

 ----------------
 pg2T_TT_-150.pdb
 ----------------
 Symbolic Z-matrix:
 Charge =  0 Multiplicity = 1

 SCF Done:  E(RHF) =  -1649.42096708     A.U. after   18 cycles
 SCF Done:  E(RHF) =  -1649.50266270     A.U. after   16 cycles
 SCF Done:  E(RHF) =  -1649.60713520     A.U. after   16 cycles
 SCF Done:  E(RHF) =  -1649.62467619     A.U. after   16 cycles
 SCF Done:  E(RHF) =  -1649.63799506     A.U. after   15 cycles
 SCF Done:  E(RHF) =  -1649.63948987     A.U. after   15 cycles
 SCF Done:  E(RHF) =  -1649.64214084     A.U. after   15 cycles
 SCF Done:  E(RHF) =  -1649.64192049     A.U. after   14 cycles
 SCF Done:  E(RHF) =  -1649.64250413     A.U. after   12 cycles
 SCF Done:  E(RHF) =  -1649.64252587     A.U. after   12 cycles
 SCF Done:  E(RHF) =  -1649.64255439     A.U. after   12 cycles
 SCF Done:  E(RHF) =  -1649.64256617     A.U. after   11 cycles
 SCF Done:  E(RHF) =  -1649.64256610     A.U. after   10 cycles
 SCF Done:  E(RHF) =  -1649.64256678     A.U. after    9 cycles
 SCF Done:  E(RHF) =  -1649.64256680     A.U. after    9 cycles
 Optimization completed.
    -- Stationary point found.

                         Standard orientation:
 ---------------------------------------------------------------------
 Center     Atomic      Atomic             Coordinates (Angstroms)
 Number     Number       Type             X           Y           Z
 ---------------------------------------------------------------------
      1          6           0        3.762608    0.745526    0.138746
      2          6           0        2.369639    1.045364    0.311784
      3          6           0        1.565817   -0.003536    0.009951
      4          6           0        3.988728   -0.514959   -0.282287
      5         16           0        2.499533   -1.375894   -0.500654
      6          1           0        4.937681   -0.983037   -0.472906
      7          6           0        0.100066   -0.026412    0.036082
      8         16           0       -0.776843   -1.507929    0.391932
      9          6           0       -2.294060   -0.687042    0.198520
     10          6           0       -2.106223    0.628997   -0.108347
     11          6           0       -0.731794    1.013409   -0.213685
     12          1           0       -0.387723    1.996778   -0.488172
     13         16           0       -3.625332    1.449276   -0.302528
     14          6           0       -4.486389   -0.027693    0.044602
     15          6           0       -3.672089   -1.075261    0.290258
     16          1           0       -5.563165   -0.026994    0.044952
     17          1           0       -4.022245   -2.067646    0.522617
     18          1           0        2.002357    1.993841    0.674069
     19          8           0        4.759977    1.625718    0.380798
     20          1           0        4.417728    2.443706    0.699324
 ---------------------------------------------------------------------

 The electronic state is 1-A.
 Alpha  occ. eigenvalues --  -91.99560 -91.99460 -91.98968 -20.60775 -11.31419
 Alpha  occ. eigenvalues --  -11.29640 -11.29555 -11.28181 -11.27812 -11.27668
 Alpha  occ. eigenvalues --  -11.26388 -11.26192 -11.25608 -11.25404  -8.99739
 Alpha  occ. eigenvalues --   -8.99642  -8.99175  -6.67903  -6.67823  -6.67809
 Alpha  occ. eigenvalues --   -6.67730  -6.67612  -6.67524  -6.67346  -6.67255
 Alpha  occ. eigenvalues --   -6.67054  -1.42652  -1.22331  -1.18711  -1.13288
 Alpha  occ. eigenvalues --   -1.03334  -1.02699  -0.99143  -0.96182  -0.95003
 Alpha  occ. eigenvalues --   -0.84355  -0.78869  -0.77834  -0.74636  -0.73130
 Alpha  occ. eigenvalues --   -0.72049  -0.67766  -0.66236  -0.61300  -0.60706
 Alpha  occ. eigenvalues --   -0.58279  -0.57517  -0.56290  -0.54992  -0.53734
 Alpha  occ. eigenvalues --   -0.52929  -0.51468  -0.50396  -0.48385  -0.46981
 Alpha  occ. eigenvalues --   -0.46520  -0.39603  -0.35930  -0.33459  -0.32676
 Alpha  occ. eigenvalues --   -0.28707
 Alpha virt. eigenvalues --    0.02877   0.03375   0.04480   0.04780   0.04924
 Alpha virt. eigenvalues --    0.05634   0.06937   0.08295   0.08347   0.09207
 Alpha virt. eigenvalues --    0.09799   0.10157   0.10728   0.11062   0.11698

 Mulliken charges:
               1
     1  C    0.401934
     2  C    0.298026
     3  C    0.452933
     4  C    0.077313
     5  S    0.519626
     6  H   -0.363354
     7  C    0.127509
     8  S    0.447883
     9  C   -0.715049
    10  C   -0.104462
    11  C    0.341019
    12  H   -0.464573
    13  S    0.572656
    14  C   -0.105819
    15  C    0.482448
    16  H   -0.379606
    17  H   -0.319442
    18  H   -0.555369
    19  O   -0.846674
    20  H    0.133001
 Sum of Mulliken charges =  -0.00000

 Dipole moment (field-independent basis, Debye):
    X=             -1.2897    Y=              1.5439    Z=              0.5943  Tot=              2.0977
 Quadrupole moment (field-independent basis, Debye-Ang):
   XX=            -96.6184   YY=            -94.1181   ZZ=           -108.9750
   XY=              7.0579   XZ=              0.2504   YZ=              1.5677

 Normal termination of Gaussian 16 at Wed Oct 27 02:10:23 2021.
