 Gaussian 16, Revision C.01,
 Gaussian 16:  ES64L-G16RevC.01  3-Jul-2019

 ---------------------------------
 # opt=modredundant hf/aug-cc-pvdz
 ---------------------------------

 --------------
 pg2T_TT_10.pdb
 --------------
 Symbolic Z-matrix:
 Charge =  0 Multiplicity = 1

 SCF Done:  E(RHF) =  -1649.42289590     A.U. after   19 cycles
 SCF Done:  E(RHF) =  -1649.50456482     A.U. after   16 cycles
 SCF Done:  E(RHF) =  -1649.60900840     A.U. after   16 cycles
 SCF Done:  E(RHF) =  -1649.62623215     A.U. after   16 cycles
 SCF Done:  E(RHF) =  -1649.63937592     A.U. after   15 cycles
 SCF Done:  E(RHF) =  -1649.64079227     A.U. after   15 cycles
 SCF Done:  E(RHF) =  -1649.64339918     A.U. after   15 cycles
 SCF Done:  E(RHF) =  -1649.64339669     A.U. after   14 cycles
 SCF Done:  E(RHF) =  -1649.64364810     A.U. after   14 cycles
 SCF Done:  E(RHF) =  -1649.64378552     A.U. after   14 cycles
 SCF Done:  E(RHF) =  -1649.64378060     A.U. after   12 cycles
 SCF Done:  E(RHF) =  -1649.64378935     A.U. after   11 cycles
 SCF Done:  E(RHF) =  -1649.64379451     A.U. after   11 cycles
 SCF Done:  E(RHF) =  -1649.64379453     A.U. after    8 cycles
 SCF Done:  E(RHF) =  -1649.64379456     A.U. after    8 cycles
 Optimization completed.
    -- Stationary point found.

                         Standard orientation:
 ---------------------------------------------------------------------
 Center     Atomic      Atomic             Coordinates (Angstroms)
 Number     Number       Type             X           Y           Z
 ---------------------------------------------------------------------
      1          6           0       -3.826198    0.412032   -0.077531
      2          6           0       -2.470638    0.885962   -0.109939
      3          6           0       -1.560374   -0.112035   -0.001694
      4          6           0       -3.920871   -0.924776    0.055684
      5         16           0       -2.348426   -1.654152    0.155461
      6          1           0       -4.815188   -1.519564    0.102391
      7          6           0       -0.100760    0.001468    0.006876
      8         16           0        0.665776    1.581379    0.130460
      9          6           0        2.241237    0.853833    0.053968
     10          6           0        2.150451   -0.502665   -0.051443
     11          6           0        0.808243   -0.998866   -0.081333
     12          1           0        0.544112   -2.039625   -0.173597
     13         16           0        3.725406   -1.230880   -0.123954
     14          6           0        4.475431    0.339002   -0.007169
     15          6           0        3.586007    1.350621    0.080649
     16          1           0        5.549430    0.416115   -0.010955
     17          1           0        3.862183    2.389281    0.160119
     18          1           0       -2.210048    1.927891   -0.222448
     19          8           0       -4.907507    1.217186   -0.174433
     20          1           0       -4.649700    2.119406   -0.259918
 ---------------------------------------------------------------------

 The electronic state is 1-A.
 Alpha  occ. eigenvalues --  -91.99621 -91.99509 -91.98909 -20.60762 -11.31441
 Alpha  occ. eigenvalues --  -11.29734 -11.29653 -11.28245 -11.27916 -11.27748
 Alpha  occ. eigenvalues --  -11.26427 -11.26263 -11.25653 -11.25439  -8.99817
 Alpha  occ. eigenvalues --   -8.99690  -8.99128  -6.67987  -6.67909  -6.67856
 Alpha  occ. eigenvalues --   -6.67778  -6.67694  -6.67572  -6.67304  -6.67212
 Alpha  occ. eigenvalues --   -6.67008  -1.42656  -1.22415  -1.18736  -1.13345
 Alpha  occ. eigenvalues --   -1.03236  -1.02980  -0.99330  -0.95993  -0.95149
 Alpha  occ. eigenvalues --   -0.84468  -0.78767  -0.78100  -0.75282  -0.73060
 Alpha  occ. eigenvalues --   -0.71476  -0.67602  -0.66286  -0.61321  -0.60721
 Alpha  occ. eigenvalues --   -0.58623  -0.57555  -0.56802  -0.54783  -0.53371
 Alpha  occ. eigenvalues --   -0.53152  -0.52097  -0.50507  -0.48024  -0.47057
 Alpha  occ. eigenvalues --   -0.46608  -0.39716  -0.36374  -0.33602  -0.32779
 Alpha  occ. eigenvalues --   -0.28276
 Alpha virt. eigenvalues --    0.03122   0.03335   0.04311   0.04711   0.04983
 Alpha virt. eigenvalues --    0.05298   0.06719   0.08286   0.08934   0.09337
 Alpha virt. eigenvalues --    0.10200   0.10526   0.10788   0.11158   0.11723

 Mulliken charges:
               1
     1  C    0.373547
     2  C    0.223018
     3  C    0.619823
     4  C    0.088224
     5  S    0.508746
     6  H   -0.401196
     7  C    0.204740
     8  S    0.546713
     9  C   -0.667900
    10  C   -0.124028
    11  C    0.372311
    12  H   -0.507014
    13  S    0.533801
    14  C   -0.174081
    15  C    0.416171
    16  H   -0.381295
    17  H   -0.331915
    18  H   -0.584715
    19  O   -0.850283
    20  H    0.135332
 Sum of Mulliken charges =  -0.00000

 Dipole moment (field-independent basis, Debye):
    X=              1.1911    Y=              1.8166    Z=             -0.2037  Tot=              2.1818
 Quadrupole moment (field-independent basis, Debye-Ang):
   XX=            -96.1604   YY=            -92.8219   ZZ=           -110.4855
   XY=              0.1239   XZ=              0.6750   YZ=             -0.4207

 Normal termination of Gaussian 16 at Wed Oct 27 03:08:49 2021.
