 Gaussian 16, Revision C.01,
 Gaussian 16:  ES64L-G16RevC.01  3-Jul-2019

 ---------------------------------
 # opt=modredundant hf/aug-cc-pvdz
 ---------------------------------

 --------------
 pg2T_TT_20.pdb
 --------------
 Symbolic Z-matrix:
 Charge =  0 Multiplicity = 1

 SCF Done:  E(RHF) =  -1649.42294455     A.U. after   18 cycles
 SCF Done:  E(RHF) =  -1649.50463459     A.U. after   16 cycles
 SCF Done:  E(RHF) =  -1649.60911687     A.U. after   16 cycles
 SCF Done:  E(RHF) =  -1649.62642605     A.U. after   16 cycles
 SCF Done:  E(RHF) =  -1649.63959070     A.U. after   15 cycles
 SCF Done:  E(RHF) =  -1649.64100638     A.U. after   15 cycles
 SCF Done:  E(RHF) =  -1649.64360505     A.U. after   15 cycles
 SCF Done:  E(RHF) =  -1649.64342017     A.U. after   14 cycles
 SCF Done:  E(RHF) =  -1649.64395310     A.U. after   13 cycles
 SCF Done:  E(RHF) =  -1649.64399224     A.U. after   12 cycles
 SCF Done:  E(RHF) =  -1649.64400199     A.U. after   12 cycles
 SCF Done:  E(RHF) =  -1649.64401421     A.U. after   11 cycles
 SCF Done:  E(RHF) =  -1649.64401439     A.U. after   10 cycles
 SCF Done:  E(RHF) =  -1649.64401483     A.U. after    9 cycles
 SCF Done:  E(RHF) =  -1649.64401483     A.U. after    8 cycles
 Optimization completed.
    -- Stationary point found.

                         Standard orientation:
 ---------------------------------------------------------------------
 Center     Atomic      Atomic             Coordinates (Angstroms)
 Number     Number       Type             X           Y           Z
 ---------------------------------------------------------------------
      1          6           0       -3.823095    0.406811   -0.150545
      2          6           0       -2.466536    0.874658   -0.213654
      3          6           0       -1.560453   -0.110037   -0.000339
      4          6           0       -3.921565   -0.911349    0.109231
      5         16           0       -2.352033   -1.627485    0.301749
      6          1           0       -4.817844   -1.497908    0.201402
      7          6           0       -0.100377   -0.000255    0.010725
      8         16           0        0.667431    1.564596    0.250796
      9          6           0        2.241602    0.844946    0.104888
     10          6           0        2.148821   -0.500306   -0.099524
     11          6           0        0.805876   -0.992572   -0.157778
     12          1           0        0.537558   -2.021570   -0.332681
     13         16           0        3.722550   -1.221410   -0.239645
     14          6           0        4.474932    0.335370   -0.013189
     15          6           0        3.587246    1.337855    0.156883
     16          1           0        5.548945    0.412212   -0.019950
     17          1           0        3.865115    2.367657    0.310893
     18          1           0       -2.200092    1.898415   -0.430699
     19          8           0       -4.902160    1.198718   -0.339110
     20          1           0       -4.642268    2.089510   -0.502673
 ---------------------------------------------------------------------

 The electronic state is 1-A.
 Alpha  occ. eigenvalues --  -91.99631 -91.99489 -91.98934 -20.60753 -11.31433
 Alpha  occ. eigenvalues --  -11.29693 -11.29612 -11.28229 -11.27890 -11.27729
 Alpha  occ. eigenvalues --  -11.26395 -11.26246 -11.25639 -11.25421  -8.99821
 Alpha  occ. eigenvalues --   -8.99671  -8.99147  -6.67990  -6.67911  -6.67837
 Alpha  occ. eigenvalues --   -6.67759  -6.67698  -6.67552  -6.67321  -6.67230
 Alpha  occ. eigenvalues --   -6.67026  -1.42645  -1.22393  -1.18731  -1.13332
 Alpha  occ. eigenvalues --   -1.03209  -1.02949  -0.99310  -0.95992  -0.95139
 Alpha  occ. eigenvalues --   -0.84434  -0.78727  -0.78078  -0.75237  -0.73016
 Alpha  occ. eigenvalues --   -0.71521  -0.67582  -0.66274  -0.61281  -0.60706
 Alpha  occ. eigenvalues --   -0.58608  -0.57547  -0.56808  -0.54766  -0.53557
 Alpha  occ. eigenvalues --   -0.53102  -0.51838  -0.50425  -0.48080  -0.47038
 Alpha  occ. eigenvalues --   -0.46628  -0.39669  -0.36236  -0.33523  -0.32798
 Alpha  occ. eigenvalues --   -0.28435
 Alpha virt. eigenvalues --    0.03125   0.03343   0.04323   0.04717   0.04979
 Alpha virt. eigenvalues --    0.05515   0.06697   0.08297   0.08752   0.09371
 Alpha virt. eigenvalues --    0.09937   0.10551   0.10633   0.11008   0.11685

 Mulliken charges:
               1
     1  C    0.407234
     2  C    0.231017
     3  C    0.590912
     4  C    0.078206
     5  S    0.483102
     6  H   -0.387601
     7  C    0.263405
     8  S    0.486840
     9  C   -0.681985
    10  C   -0.129008
    11  C    0.333298
    12  H   -0.500553
    13  S    0.552472
    14  C   -0.155674
    15  C    0.439192
    16  H   -0.379069
    17  H   -0.326719
    18  H   -0.590204
    19  O   -0.849140
    20  H    0.134272
 Sum of Mulliken charges =  -0.00000

 Dipole moment (field-independent basis, Debye):
    X=              1.1808    Y=              1.7956    Z=             -0.3839  Tot=              2.1831
 Quadrupole moment (field-independent basis, Debye-Ang):
   XX=            -96.2630   YY=            -93.2297   ZZ=           -110.0179
   XY=              0.2230   XZ=              1.2862   YZ=             -0.7965

 Normal termination of Gaussian 16 at Wed Oct 27 03:16:06 2021.
