 Gaussian 16, Revision C.01,
 Gaussian 16:  ES64L-G16RevC.01  3-Jul-2019

 ---------------------------------
 # opt=modredundant hf/aug-cc-pvdz
 ---------------------------------

 ---------------
 pg2T_TT_-30.pdb
 ---------------
 Symbolic Z-matrix:
 Charge =  0 Multiplicity = 1

 SCF Done:  E(RHF) =  -1649.42373963     A.U. after   18 cycles
 SCF Done:  E(RHF) =  -1649.50526430     A.U. after   16 cycles
 SCF Done:  E(RHF) =  -1649.60944992     A.U. after   16 cycles
 SCF Done:  E(RHF) =  -1649.62662917     A.U. after   16 cycles
 SCF Done:  E(RHF) =  -1649.63969699     A.U. after   15 cycles
 SCF Done:  E(RHF) =  -1649.64112162     A.U. after   15 cycles
 SCF Done:  E(RHF) =  -1649.64373106     A.U. after   15 cycles
 SCF Done:  E(RHF) =  -1649.64372845     A.U. after   15 cycles
 SCF Done:  E(RHF) =  -1649.64400883     A.U. after   14 cycles
 SCF Done:  E(RHF) =  -1649.64413388     A.U. after   13 cycles
 SCF Done:  E(RHF) =  -1649.64412583     A.U. after   13 cycles
 SCF Done:  E(RHF) =  -1649.64414019     A.U. after   11 cycles
 SCF Done:  E(RHF) =  -1649.64414638     A.U. after   11 cycles
 SCF Done:  E(RHF) =  -1649.64414641     A.U. after    9 cycles
 SCF Done:  E(RHF) =  -1649.64414646     A.U. after    8 cycles
 Optimization completed.
    -- Stationary point found.

                         Standard orientation:
 ---------------------------------------------------------------------
 Center     Atomic      Atomic             Coordinates (Angstroms)
 Number     Number       Type             X           Y           Z
 ---------------------------------------------------------------------
      1          6           0       -3.820036    0.396925    0.217621
      2          6           0       -2.462428    0.856415    0.311768
      3          6           0       -1.561108   -0.104907   -0.002957
      4          6           0       -3.922390   -0.891757   -0.162817
      5         16           0       -2.356076   -1.586455   -0.438111
      6          1           0       -4.820826   -1.466006   -0.300802
      7          6           0       -0.099947    0.000500   -0.008990
      8         16           0        0.671407    1.542059   -0.357203
      9          6           0        2.243175    0.831805   -0.151620
     10          6           0        2.146290   -0.496284    0.144389
     11          6           0        0.801731   -0.980963    0.230273
     12          1           0        0.527298   -1.993731    0.475900
     13         16           0        3.717623   -1.208706    0.344181
     14          6           0        4.474831    0.327631    0.016337
     15          6           0        3.590549    1.317427   -0.228409
     16          1           0        5.548962    0.402808    0.024430
     17          1           0        3.871744    2.333637   -0.451318
     18          1           0       -2.189338    1.853231    0.624801
     19          8           0       -4.896770    1.167227    0.490649
     20          1           0       -4.634946    2.041117    0.726355
 ---------------------------------------------------------------------

 The electronic state is 1-A.
 Alpha  occ. eigenvalues --  -91.99637 -91.99462 -91.98965 -20.60743 -11.31423
 Alpha  occ. eigenvalues --  -11.29638 -11.29557 -11.28205 -11.27855 -11.27700
 Alpha  occ. eigenvalues --  -11.26357 -11.26222 -11.25628 -11.25409  -8.99818
 Alpha  occ. eigenvalues --   -8.99645  -8.99171  -6.67985  -6.67906  -6.67810
 Alpha  occ. eigenvalues --   -6.67732  -6.67694  -6.67526  -6.67343  -6.67252
 Alpha  occ. eigenvalues --   -6.67049  -1.42633  -1.22360  -1.18722  -1.13313
 Alpha  occ. eigenvalues --   -1.03171  -1.02904  -0.99283  -0.95994  -0.95125
 Alpha  occ. eigenvalues --   -0.84384  -0.78679  -0.78047  -0.75178  -0.72960
 Alpha  occ. eigenvalues --   -0.71588  -0.67558  -0.66255  -0.61234  -0.60689
 Alpha  occ. eigenvalues --   -0.58587  -0.57532  -0.56810  -0.54753  -0.53750
 Alpha  occ. eigenvalues --   -0.53006  -0.51585  -0.50302  -0.48157  -0.47005
 Alpha  occ. eigenvalues --   -0.46646  -0.39601  -0.36049  -0.33420  -0.32798
 Alpha  occ. eigenvalues --   -0.28675
 Alpha virt. eigenvalues --    0.03127   0.03353   0.04339   0.04721   0.04968
 Alpha virt. eigenvalues --    0.05812   0.06661   0.08304   0.08540   0.09426
 Alpha virt. eigenvalues --    0.09628   0.10512   0.10631   0.10909   0.11693

 Mulliken charges:
               1
     1  C    0.445585
     2  C    0.220343
     3  C    0.571351
     4  C    0.076490
     5  S    0.468216
     6  H   -0.374021
     7  C    0.295571
     8  S    0.448895
     9  C   -0.686683
    10  C   -0.149736
    11  C    0.282011
    12  H   -0.490182
    13  S    0.572964
    14  C   -0.139145
    15  C    0.464727
    16  H   -0.377700
    17  H   -0.322553
    18  H   -0.591051
    19  O   -0.848733
    20  H    0.133651
 Sum of Mulliken charges =  -0.00000

 Dipole moment (field-independent basis, Debye):
    X=              1.1617    Y=              1.7609    Z=              0.5386  Tot=              2.1773
 Quadrupole moment (field-independent basis, Debye-Ang):
   XX=            -96.3687   YY=            -93.8434   ZZ=           -109.3333
   XY=              0.3316   XZ=             -1.8481   YZ=              1.1274

 Normal termination of Gaussian 16 at Wed Oct 27 02:58:56 2021.
