 Gaussian 16, Revision C.01,
 Gaussian 16:  ES64L-G16RevC.01  3-Jul-2019

 ---------------------------------
 # opt=modredundant hf/aug-cc-pvdz
 ---------------------------------

 ---------------
 pg2T_TT_100.pdb
 ---------------
 Symbolic Z-matrix:
 Charge =  0 Multiplicity = 1

 SCF Done:  E(RHF) =  -1649.41944747     A.U. after   18 cycles
 SCF Done:  E(RHF) =  -1649.50144292     A.U. after   15 cycles
 SCF Done:  E(RHF) =  -1649.60611412     A.U. after   15 cycles
 SCF Done:  E(RHF) =  -1649.62363847     A.U. after   15 cycles
 SCF Done:  E(RHF) =  -1649.63699368     A.U. after   15 cycles
 SCF Done:  E(RHF) =  -1649.63842383     A.U. after   15 cycles
 SCF Done:  E(RHF) =  -1649.64109892     A.U. after   14 cycles
 SCF Done:  E(RHF) =  -1649.64061013     A.U. after   15 cycles
 SCF Done:  E(RHF) =  -1649.64151401     A.U. after   12 cycles
 SCF Done:  E(RHF) =  -1649.64151120     A.U. after   12 cycles
 SCF Done:  E(RHF) =  -1649.64156129     A.U. after   12 cycles
 SCF Done:  E(RHF) =  -1649.64157231     A.U. after   11 cycles
 SCF Done:  E(RHF) =  -1649.64157289     A.U. after    9 cycles
 SCF Done:  E(RHF) =  -1649.64157314     A.U. after    9 cycles
 SCF Done:  E(RHF) =  -1649.64157318     A.U. after    8 cycles
 Optimization completed.
    -- Stationary point found.

                         Standard orientation:
 ---------------------------------------------------------------------
 Center     Atomic      Atomic             Coordinates (Angstroms)
 Number     Number       Type             X           Y           Z
 ---------------------------------------------------------------------
      1          6           0        3.782754    0.513181   -0.431939
      2          6           0        2.395793    0.687814   -0.766926
      3          6           0        1.568209    0.030094    0.075709
      4          6           0        3.973029   -0.275957    0.644064
      5         16           0        2.462261   -0.828614    1.290449
      6          1           0        4.910174   -0.557428    1.090327
      7          6           0        0.094623   -0.014787    0.018066
      8         16           0       -0.732062   -1.402196   -0.675497
      9          6           0       -2.273890   -0.659287   -0.382449
     10          6           0       -2.127873    0.564592    0.202229
     11          6           0       -0.764343    0.940089    0.436852
     12          1           0       -0.443396    1.861071    0.895367
     13         16           0       -3.670551    1.307913    0.495144
     14          6           0       -4.484732   -0.073710   -0.190216
     15          6           0       -3.639520   -1.036481   -0.613259
     16          1           0       -5.560455   -0.086690   -0.237168
     17          1           0       -3.959024   -1.962394   -1.062729
     18          1           0        2.044303    1.274317   -1.602954
     19          8           0        4.803386    1.076747   -1.117931
     20          1           0        4.482641    1.570211   -1.853706
 ---------------------------------------------------------------------

 The electronic state is 1-A.
 Alpha  occ. eigenvalues --  -91.99436 -91.99381 -91.98873 -20.60704 -11.31292
 Alpha  occ. eigenvalues --  -11.29334 -11.29254 -11.28137 -11.27704 -11.27525
 Alpha  occ. eigenvalues --  -11.26358 -11.26112 -11.25638 -11.25530  -8.99592
 Alpha  occ. eigenvalues --   -8.99563  -8.99058  -6.67754  -6.67730  -6.67674
 Alpha  occ. eigenvalues --   -6.67651  -6.67464  -6.67444  -6.67224  -6.67135
 Alpha  occ. eigenvalues --   -6.66935  -1.42555  -1.22168  -1.18590  -1.13190
 Alpha  occ. eigenvalues --   -1.03054  -1.02565  -0.98980  -0.96129  -0.94978
 Alpha  occ. eigenvalues --   -0.84062  -0.78546  -0.77800  -0.74730  -0.72530
 Alpha  occ. eigenvalues --   -0.72414  -0.67535  -0.66139  -0.61103  -0.60599
 Alpha  occ. eigenvalues --   -0.58257  -0.57471  -0.56634  -0.54902  -0.54209
 Alpha  occ. eigenvalues --   -0.52492  -0.50936  -0.49416  -0.48687  -0.46649
 Alpha  occ. eigenvalues --   -0.46626  -0.39193  -0.35068  -0.32600  -0.32241
 Alpha  occ. eigenvalues --   -0.30781
 Alpha virt. eigenvalues --    0.03028   0.03382   0.04550   0.04658   0.04778
 Alpha virt. eigenvalues --    0.06143   0.07932   0.08166   0.08299   0.08739
 Alpha virt. eigenvalues --    0.09413   0.09974   0.10373   0.10762   0.11450

 Mulliken charges:
               1
     1  C    0.578998
     2  C    0.177788
     3  C    0.394774
     4  C    0.050796
     5  S    0.427743
     6  H   -0.344352
     7  C    0.377372
     8  S    0.412186
     9  C   -0.770866
    10  C   -0.231455
    11  C    0.085643
    12  H   -0.421148
    13  S    0.649831
    14  C   -0.069721
    15  C    0.626648
    16  H   -0.376562
    17  H   -0.323767
    18  H   -0.525558
    19  O   -0.848434
    20  H    0.130085
 Sum of Mulliken charges =  -0.00000

 Dipole moment (field-independent basis, Debye):
    X=             -1.1814    Y=              0.9829    Z=             -1.5065  Tot=              2.1520
 Quadrupole moment (field-independent basis, Debye-Ang):
   XX=            -96.9739   YY=           -100.6945   ZZ=           -102.1767
   XY=              5.6416   XZ=             -0.7203   YZ=             -1.9046

 Normal termination of Gaussian 16 at Wed Oct 27 03:53:38 2021.
