 Gaussian 16, Revision C.01,
 Gaussian 16:  ES64L-G16RevC.01  3-Jul-2019

 ---------------------------------
 # opt=modredundant hf/aug-cc-pvdz
 ---------------------------------

 ----------------
 pg2T_TT_-105.pdb
 ----------------
 Symbolic Z-matrix:
 Charge =  0 Multiplicity = 1

 SCF Done:  E(RHF) =  -1649.41907353     A.U. after   18 cycles
 SCF Done:  E(RHF) =  -1649.50118692     A.U. after   15 cycles
 SCF Done:  E(RHF) =  -1649.60600192     A.U. after   15 cycles
 SCF Done:  E(RHF) =  -1649.62365482     A.U. after   15 cycles
 SCF Done:  E(RHF) =  -1649.63714081     A.U. after   15 cycles
 SCF Done:  E(RHF) =  -1649.63857467     A.U. after   15 cycles
 SCF Done:  E(RHF) =  -1649.64129105     A.U. after   14 cycles
 SCF Done:  E(RHF) =  -1649.64102832     A.U. after   15 cycles
 SCF Done:  E(RHF) =  -1649.64169532     A.U. after   13 cycles
 SCF Done:  E(RHF) =  -1649.64169820     A.U. after   12 cycles
 SCF Done:  E(RHF) =  -1649.64175118     A.U. after   12 cycles
 SCF Done:  E(RHF) =  -1649.64176284     A.U. after   11 cycles
 SCF Done:  E(RHF) =  -1649.64176316     A.U. after   10 cycles
 SCF Done:  E(RHF) =  -1649.64176382     A.U. after    9 cycles
 SCF Done:  E(RHF) =  -1649.64176382     A.U. after    9 cycles
 Optimization completed.
    -- Stationary point found.

                         Standard orientation:
 ---------------------------------------------------------------------
 Center     Atomic      Atomic             Coordinates (Angstroms)
 Number     Number       Type             X           Y           Z
 ---------------------------------------------------------------------
      1          6           0        3.776490    0.571651    0.384849
      2          6           0        2.386308    0.780197    0.685116
      3          6           0        1.567584    0.023165   -0.079512
      4          6           0        3.978292   -0.342476   -0.584833
      5         16           0        2.474586   -0.974382   -1.172792
      6          1           0        4.919988   -0.673698   -0.984931
      7          6           0        0.094779   -0.020115   -0.025929
      8         16           0       -0.736070   -1.383777    0.708691
      9          6           0       -2.275557   -0.644091    0.395437
     10          6           0       -2.125830    0.562867   -0.222506
     11          6           0       -0.761319    0.926749   -0.468915
     12          1           0       -0.437736    1.832802   -0.954447
     13         16           0       -3.666311    1.301965   -0.536827
     14          6           0       -4.484639   -0.057514    0.186901
     15          6           0       -3.642279   -1.011011    0.635871
     16          1           0       -5.560373   -0.065737    0.234599
     17          1           0       -3.964524   -1.923273    1.110593
     18          1           0        2.026305    1.459556    1.443601
     19          8           0        4.789655    1.216709    1.007003
     20          1           0        4.460855    1.799242    1.670542
 ---------------------------------------------------------------------

 The electronic state is 1-A.
 Alpha  occ. eigenvalues --  -91.99445 -91.99387 -91.98877 -20.60712 -11.31301
 Alpha  occ. eigenvalues --  -11.29354 -11.29274 -11.28139 -11.27709 -11.27534
 Alpha  occ. eigenvalues --  -11.26358 -11.26117 -11.25641 -11.25529  -8.99601
 Alpha  occ. eigenvalues --   -8.99569  -8.99063  -6.67764  -6.67736  -6.67683
 Alpha  occ. eigenvalues --   -6.67657  -6.67473  -6.67450  -6.67230  -6.67140
 Alpha  occ. eigenvalues --   -6.66941  -1.42566  -1.22178  -1.18599  -1.13196
 Alpha  occ. eigenvalues --   -1.03079  -1.02571  -0.98983  -0.96139  -0.94977
 Alpha  occ. eigenvalues --   -0.84085  -0.78578  -0.77791  -0.74704  -0.72598
 Alpha  occ. eigenvalues --   -0.72383  -0.67552  -0.66150  -0.61122  -0.60604
 Alpha  occ. eigenvalues --   -0.58247  -0.57468  -0.56606  -0.54915  -0.54194
 Alpha  occ. eigenvalues --   -0.52521  -0.50949  -0.49490  -0.48648  -0.46674
 Alpha  occ. eigenvalues --   -0.46636  -0.39204  -0.35134  -0.32623  -0.32413
 Alpha  occ. eigenvalues --   -0.30544
 Alpha virt. eigenvalues --    0.03013   0.03383   0.04559   0.04660   0.04783
 Alpha virt. eigenvalues --    0.06108   0.07956   0.08119   0.08235   0.08813
 Alpha virt. eigenvalues --    0.09443   0.10046   0.10384   0.10760   0.11438

 Mulliken charges:
               1
     1  C    0.559521
     2  C    0.175801
     3  C    0.418127
     4  C    0.055110
     5  S    0.437033
     6  H   -0.345225
     7  C    0.367277
     8  S    0.413491
     9  C   -0.776329
    10  C   -0.206874
    11  C    0.081304
    12  H   -0.421632
    13  S    0.645764
    14  C   -0.069442
    15  C    0.611537
    16  H   -0.376468
    17  H   -0.322950
    18  H   -0.528421
    19  O   -0.848035
    20  H    0.130408
 Sum of Mulliken charges =  -0.00000

 Dipole moment (field-independent basis, Debye):
    X=             -1.1973    Y=              1.1515    Z=              1.3707  Tot=              2.1537
 Quadrupole moment (field-independent basis, Debye-Ang):
   XX=            -96.9975   YY=            -99.6352   ZZ=           -103.2495
   XY=              5.8712   XZ=              0.2582   YZ=              2.0134

 Normal termination of Gaussian 16 at Wed Oct 27 02:20:29 2021.
