 Gaussian 16, Revision C.01,
 Gaussian 16:  ES64L-G16RevC.01  3-Jul-2019

 ---------------------------------
 # opt=modredundant hf/aug-cc-pvdz
 ---------------------------------

 ---------------
 pg2T_TT_115.pdb
 ---------------
 Symbolic Z-matrix:
 Charge =  0 Multiplicity = 1

 SCF Done:  E(RHF) =  -1649.42022137     A.U. after   18 cycles
 SCF Done:  E(RHF) =  -1649.50217639     A.U. after   15 cycles
 SCF Done:  E(RHF) =  -1649.60687313     A.U. after   15 cycles
 SCF Done:  E(RHF) =  -1649.62444948     A.U. after   15 cycles
 SCF Done:  E(RHF) =  -1649.63774248     A.U. after   15 cycles
 SCF Done:  E(RHF) =  -1649.63916392     A.U. after   15 cycles
 SCF Done:  E(RHF) =  -1649.64181985     A.U. after   14 cycles
 SCF Done:  E(RHF) =  -1649.64143493     A.U. after   15 cycles
 SCF Done:  E(RHF) =  -1649.64220725     A.U. after   13 cycles
 SCF Done:  E(RHF) =  -1649.64221056     A.U. after   12 cycles
 SCF Done:  E(RHF) =  -1649.64226047     A.U. after   12 cycles
 SCF Done:  E(RHF) =  -1649.64227022     A.U. after   11 cycles
 SCF Done:  E(RHF) =  -1649.64227083     A.U. after   10 cycles
 SCF Done:  E(RHF) =  -1649.64227116     A.U. after    9 cycles
 SCF Done:  E(RHF) =  -1649.64227118     A.U. after    8 cycles
 Optimization completed.
    -- Stationary point found.

                         Standard orientation:
 ---------------------------------------------------------------------
 Center     Atomic      Atomic             Coordinates (Angstroms)
 Number     Number       Type             X           Y           Z
 ---------------------------------------------------------------------
      1          6           0        3.767588    0.641797   -0.319924
      2          6           0        2.373483    0.885589   -0.570442
      3          6           0        1.566456    0.013224    0.075595
      4          6           0        3.984739   -0.411922    0.491924
      5         16           0        2.490504   -1.137020    0.990538
      6          1           0        4.932237   -0.797369    0.823818
      7          6           0        0.095709   -0.027302    0.031230
      8         16           0       -0.745224   -1.399808   -0.674908
      9          6           0       -2.279383   -0.644528   -0.372384
     10          6           0       -2.120762    0.574670    0.218813
     11          6           0       -0.753914    0.934632    0.455975
     12          1           0       -0.424431    1.846125    0.927011
     13         16           0       -3.656123    1.328243    0.523426
     14          6           0       -4.484540   -0.042559   -0.166934
     15          6           0       -3.648800   -1.009565   -0.599150
     16          1           0       -5.560478   -0.046137   -0.210208
     17          1           0       -3.977632   -1.930133   -1.052870
     18          1           0        2.002801    1.668669   -1.215083
     19          8           0        4.770719    1.381514   -0.845176
     20          1           0        4.431791    2.059869   -1.404371
 ---------------------------------------------------------------------

 The electronic state is 1-A.
 Alpha  occ. eigenvalues --  -91.99474 -91.99400 -91.98896 -20.60730 -11.31329
 Alpha  occ. eigenvalues --  -11.29408 -11.29327 -11.28143 -11.27723 -11.27559
 Alpha  occ. eigenvalues --  -11.26357 -11.26128 -11.25641 -11.25517  -8.99632
 Alpha  occ. eigenvalues --   -8.99582  -8.99086  -6.67795  -6.67749  -6.67714
 Alpha  occ. eigenvalues --   -6.67671  -6.67504  -6.67464  -6.67254  -6.67164
 Alpha  occ. eigenvalues --   -6.66964  -1.42588  -1.22206  -1.18624  -1.13213
 Alpha  occ. eigenvalues --   -1.03137  -1.02593  -0.99007  -0.96154  -0.94981
 Alpha  occ. eigenvalues --   -0.84145  -0.78646  -0.77784  -0.74661  -0.72744
 Alpha  occ. eigenvalues --   -0.72305  -0.67591  -0.66173  -0.61161  -0.60622
 Alpha  occ. eigenvalues --   -0.58244  -0.57466  -0.56541  -0.54938  -0.54142
 Alpha  occ. eigenvalues --   -0.52598  -0.50993  -0.49684  -0.48562  -0.46762
 Alpha  occ. eigenvalues --   -0.46631  -0.39249  -0.35304  -0.32807  -0.32594
 Alpha  occ. eigenvalues --   -0.30057
 Alpha virt. eigenvalues --    0.02984   0.03383   0.04546   0.04703   0.04793
 Alpha virt. eigenvalues --    0.06038   0.07707   0.08176   0.08212   0.08986
 Alpha virt. eigenvalues --    0.09452   0.10233   0.10424   0.10788   0.11424

 Mulliken charges:
               1
     1  C    0.521707
     2  C    0.180270
     3  C    0.466121
     4  C    0.063583
     5  S    0.448905
     6  H   -0.347808
     7  C    0.363516
     8  S    0.404694
     9  C   -0.792459
    10  C   -0.151114
    11  C    0.071277
    12  H   -0.426677
    13  S    0.635038
    14  C   -0.068292
    15  C    0.582277
    16  H   -0.376847
    17  H   -0.321084
    18  H   -0.537676
    19  O   -0.846579
    20  H    0.131147
 Sum of Mulliken charges =  -0.00000

 Dipole moment (field-independent basis, Debye):
    X=             -1.2220    Y=              1.3225    Z=             -1.1651  Tot=              2.1447
 Quadrupole moment (field-independent basis, Debye-Ang):
   XX=            -96.9717   YY=            -97.9466   ZZ=           -104.9846
   XY=              6.1892   XZ=              0.1059   YZ=             -1.9664

 Normal termination of Gaussian 16 at Wed Oct 27 03:53:08 2021.
