 Gaussian 16, Revision C.01,
 Gaussian 16:  ES64L-G16RevC.01  3-Jul-2019

 ---------------------------------
 # opt=modredundant hf/aug-cc-pvdz
 ---------------------------------

 ---------------
 pg2T_TT_-60.pdb
 ---------------
 Symbolic Z-matrix:
 Charge =  0 Multiplicity = 1

 SCF Done:  E(RHF) =  -1649.42118785     A.U. after   18 cycles
 SCF Done:  E(RHF) =  -1649.50306633     A.U. after   15 cycles
 SCF Done:  E(RHF) =  -1649.60764691     A.U. after   15 cycles
 SCF Done:  E(RHF) =  -1649.62520522     A.U. after   15 cycles
 SCF Done:  E(RHF) =  -1649.63851122     A.U. after   15 cycles
 SCF Done:  E(RHF) =  -1649.63992289     A.U. after   15 cycles
 SCF Done:  E(RHF) =  -1649.64253878     A.U. after   14 cycles
 SCF Done:  E(RHF) =  -1649.64212786     A.U. after   15 cycles
 SCF Done:  E(RHF) =  -1649.64292205     A.U. after   14 cycles
 SCF Done:  E(RHF) =  -1649.64291875     A.U. after   13 cycles
 SCF Done:  E(RHF) =  -1649.64297221     A.U. after   12 cycles
 SCF Done:  E(RHF) =  -1649.64298218     A.U. after   11 cycles
 SCF Done:  E(RHF) =  -1649.64298262     A.U. after   10 cycles
 SCF Done:  E(RHF) =  -1649.64298324     A.U. after    9 cycles
 SCF Done:  E(RHF) =  -1649.64298325     A.U. after    9 cycles
 Optimization completed.
    -- Stationary point found.

                         Standard orientation:
 ---------------------------------------------------------------------
 Center     Atomic      Atomic             Coordinates (Angstroms)
 Number     Number       Type             X           Y           Z
 ---------------------------------------------------------------------
      1          6           0       -3.817259    0.326289    0.402057
      2          6           0       -2.456849    0.739337    0.608693
      3          6           0       -1.566417   -0.074110   -0.005125
      4          6           0       -3.927313   -0.787140   -0.350462
      5         16           0       -2.368213   -1.362873   -0.844373
      6          1           0       -4.830569   -1.292788   -0.641793
      7          6           0       -0.098507    0.021163    0.013977
      8         16           0        0.697181    1.462366   -0.600292
      9          6           0        2.255995    0.775587   -0.262558
     10          6           0        2.136519   -0.477944    0.263049
     11          6           0        0.782722   -0.920107    0.421320
     12          1           0        0.484923   -1.873809    0.825175
     13         16           0        3.695084   -1.166387    0.601436
     14          6           0        4.478759    0.277326    0.015626
     15          6           0        3.612464    1.220717   -0.408749
     16          1           0        5.553906    0.337147    0.020415
     17          1           0        3.911510    2.177399   -0.804714
     18          1           0       -2.169619    1.595170    1.201670
     19          8           0       -4.888891    0.971305    0.916004
     20          1           0       -4.624542    1.750036    1.375904
 ---------------------------------------------------------------------

 The electronic state is 1-A.
 Alpha  occ. eigenvalues --  -91.99563 -91.99385 -91.98984 -20.60712 -11.31361
 Alpha  occ. eigenvalues --  -11.29440 -11.29358 -11.28141 -11.27741 -11.27588
 Alpha  occ. eigenvalues --  -11.26301 -11.26143 -11.25618 -11.25447  -8.99724
 Alpha  occ. eigenvalues --   -8.99568  -8.99172  -6.67887  -6.67807  -6.67734
 Alpha  occ. eigenvalues --   -6.67656  -6.67597  -6.67450  -6.67339  -6.67249
 Alpha  occ. eigenvalues --   -6.67049  -1.42584  -1.22233  -1.18660  -1.13233
 Alpha  occ. eigenvalues --   -1.03046  -1.02714  -0.99156  -0.96021  -0.95055
 Alpha  occ. eigenvalues --   -0.84175  -0.78530  -0.77937  -0.74986  -0.72765
 Alpha  occ. eigenvalues --   -0.71897  -0.67494  -0.66171  -0.61113  -0.60630
 Alpha  occ. eigenvalues --   -0.58479  -0.57482  -0.56765  -0.54792  -0.54115
 Alpha  occ. eigenvalues --   -0.52651  -0.51106  -0.49776  -0.48437  -0.46808
 Alpha  occ. eigenvalues --   -0.46630  -0.39358  -0.35379  -0.33078  -0.32499
 Alpha  occ. eigenvalues --   -0.29800
 Alpha virt. eigenvalues --    0.03114   0.03377   0.04403   0.04739   0.04869
 Alpha virt. eigenvalues --    0.06398   0.07023   0.08213   0.08313   0.08898
 Alpha virt. eigenvalues --    0.09701   0.10160   0.10477   0.10867   0.11434

 Mulliken charges:
               1
     1  C    0.508070
     2  C    0.232088
     3  C    0.455645
     4  C    0.091296
     5  S    0.421694
     6  H   -0.352491
     7  C    0.382802
     8  S    0.398214
     9  C   -0.728917
    10  C   -0.240578
    11  C    0.167776
    12  H   -0.454893
    13  S    0.624059
    14  C   -0.091812
    15  C    0.547815
    16  H   -0.375892
    17  H   -0.318983
    18  H   -0.552375
    19  O   -0.846187
    20  H    0.132667
 Sum of Mulliken charges =  -0.00000

 Dipole moment (field-independent basis, Debye):
    X=              1.0959    Y=              1.5448    Z=              0.9700  Tot=              2.1280
 Quadrupole moment (field-independent basis, Debye-Ang):
   XX=            -96.5379   YY=            -96.8956   ZZ=           -106.0983
   XY=              0.6147   XZ=             -3.4920   YZ=              1.9830

 Normal termination of Gaussian 16 at Wed Oct 27 02:44:15 2021.
