 Gaussian 16, Revision C.01,
 Gaussian 16:  ES64L-G16RevC.01  3-Jul-2019

 ---------------------------------
 # opt=modredundant hf/aug-cc-pvdz
 ---------------------------------

 ---------------
 pg2T_TT_110.pdb
 ---------------
 Symbolic Z-matrix:
 Charge =  0 Multiplicity = 1

 SCF Done:  E(RHF) =  -1649.42016637     A.U. after   18 cycles
 SCF Done:  E(RHF) =  -1649.50207230     A.U. after   15 cycles
 SCF Done:  E(RHF) =  -1649.60664905     A.U. after   15 cycles
 SCF Done:  E(RHF) =  -1649.62417703     A.U. after   15 cycles
 SCF Done:  E(RHF) =  -1649.63747675     A.U. after   15 cycles
 SCF Done:  E(RHF) =  -1649.63890069     A.U. after   15 cycles
 SCF Done:  E(RHF) =  -1649.64155522     A.U. after   14 cycles
 SCF Done:  E(RHF) =  -1649.64113965     A.U. after   15 cycles
 SCF Done:  E(RHF) =  -1649.64194522     A.U. after   13 cycles
 SCF Done:  E(RHF) =  -1649.64194752     A.U. after   12 cycles
 SCF Done:  E(RHF) =  -1649.64199646     A.U. after   12 cycles
 SCF Done:  E(RHF) =  -1649.64200649     A.U. after   11 cycles
 SCF Done:  E(RHF) =  -1649.64200707     A.U. after    9 cycles
 SCF Done:  E(RHF) =  -1649.64200739     A.U. after    9 cycles
 SCF Done:  E(RHF) =  -1649.64200742     A.U. after    8 cycles
 Optimization completed.
    -- Stationary point found.

                         Standard orientation:
 ---------------------------------------------------------------------
 Center     Atomic      Atomic             Coordinates (Angstroms)
 Number     Number       Type             X           Y           Z
 ---------------------------------------------------------------------
      1          6           0        3.771320    0.611704   -0.349781
      2          6           0        2.378717    0.841106   -0.621945
      3          6           0        1.566975    0.017773    0.079494
      4          6           0        3.982203   -0.383260    0.534615
      5         16           0        2.484119   -1.068794    1.075385
      6          1           0        4.927383   -0.745999    0.897368
      7          6           0        0.095146   -0.024469    0.030682
      8         16           0       -0.740458   -1.387076   -0.700532
      9          6           0       -2.277368   -0.641442   -0.388417
     10          6           0       -2.123418    0.567301    0.225010
     11          6           0       -0.757821    0.927134    0.470533
     12          1           0       -0.431380    1.832475    0.955412
     13         16           0       -3.661423    1.311752    0.538678
     14          6           0       -4.484561   -0.048483   -0.178249
     15          6           0       -3.645354   -1.005609   -0.625440
     16          1           0       -5.560381   -0.053995   -0.224288
     17          1           0       -3.970737   -1.918717   -1.096389
     18          1           0        2.012190    1.580577   -1.318442
     19          8           0        4.778546    1.311450   -0.920224
     20          1           0        4.443711    1.949421   -1.527364
 ---------------------------------------------------------------------

 The electronic state is 1-A.
 Alpha  occ. eigenvalues --  -91.99458 -91.99393 -91.98885 -20.60721 -11.31314
 Alpha  occ. eigenvalues --  -11.29380 -11.29299 -11.28141 -11.27715 -11.27545
 Alpha  occ. eigenvalues --  -11.26357 -11.26122 -11.25642 -11.25525  -8.99615
 Alpha  occ. eigenvalues --   -8.99576  -8.99074  -6.67778  -6.67742  -6.67697
 Alpha  occ. eigenvalues --   -6.67664  -6.67487  -6.67457  -6.67241  -6.67151
 Alpha  occ. eigenvalues --   -6.66951  -1.42576  -1.22191  -1.18611  -1.13204
 Alpha  occ. eigenvalues --   -1.03107  -1.02581  -0.98993  -0.96147  -0.94979
 Alpha  occ. eigenvalues --   -0.84113  -0.78611  -0.77786  -0.74680  -0.72672
 Alpha  occ. eigenvalues --   -0.72345  -0.67571  -0.66161  -0.61141  -0.60612
 Alpha  occ. eigenvalues --   -0.58244  -0.57465  -0.56576  -0.54927  -0.54170
 Alpha  occ. eigenvalues --   -0.52557  -0.50967  -0.49583  -0.48605  -0.46717
 Alpha  occ. eigenvalues --   -0.46634  -0.39223  -0.35215  -0.32692  -0.32534
 Alpha  occ. eigenvalues --   -0.30299
 Alpha virt. eigenvalues --    0.02999   0.03383   0.04556   0.04677   0.04788
 Alpha virt. eigenvalues --    0.06074   0.07860   0.08131   0.08215   0.08897
 Alpha virt. eigenvalues --    0.09455   0.10141   0.10398   0.10769   0.11427

 Mulliken charges:
               1
     1  C    0.539970
     2  C    0.176939
     3  C    0.443560
     4  C    0.059250
     5  S    0.443764
     6  H   -0.346426
     7  C    0.364178
     8  S    0.410426
     9  C   -0.784205
    10  C   -0.178743
    11  C    0.075198
    12  H   -0.423689
    13  S    0.640780
    14  C   -0.069068
    15  C    0.596086
    16  H   -0.376533
    17  H   -0.322016
    18  H   -0.532880
    19  O   -0.847366
    20  H    0.130774
 Sum of Mulliken charges =  -0.00000

 Dipole moment (field-independent basis, Debye):
    X=             -1.2107    Y=              1.2524    Z=             -1.2612  Tot=              2.1506
 Quadrupole moment (field-independent basis, Debye-Ang):
   XX=            -96.9953   YY=            -98.7385   ZZ=           -104.1683
   XY=              6.0351   XZ=             -0.0194   YZ=             -2.0085

 Normal termination of Gaussian 16 at Wed Oct 27 03:50:32 2021.
