 Gaussian 16, Revision C.01,
 Gaussian 16:  ES64L-G16RevC.01  3-Jul-2019

 ---------------------------------
 # opt=modredundant hf/aug-cc-pvdz
 ---------------------------------

 ---------------
 pg2T_TT_-75.pdb
 ---------------
 Symbolic Z-matrix:
 Charge =  0 Multiplicity = 1

 SCF Done:  E(RHF) =  -1649.41960124     A.U. after   18 cycles
 SCF Done:  E(RHF) =  -1649.50164159     A.U. after   15 cycles
 SCF Done:  E(RHF) =  -1649.60636489     A.U. after   15 cycles
 SCF Done:  E(RHF) =  -1649.62402125     A.U. after   15 cycles
 SCF Done:  E(RHF) =  -1649.63743281     A.U. after   15 cycles
 SCF Done:  E(RHF) =  -1649.63883809     A.U. after   15 cycles
 SCF Done:  E(RHF) =  -1649.64148168     A.U. after   14 cycles
 SCF Done:  E(RHF) =  -1649.64099917     A.U. after   15 cycles
 SCF Done:  E(RHF) =  -1649.64188272     A.U. after   13 cycles
 SCF Done:  E(RHF) =  -1649.64187438     A.U. after   13 cycles
 SCF Done:  E(RHF) =  -1649.64193003     A.U. after   12 cycles
 SCF Done:  E(RHF) =  -1649.64194102     A.U. after   11 cycles
 SCF Done:  E(RHF) =  -1649.64194142     A.U. after   10 cycles
 SCF Done:  E(RHF) =  -1649.64194212     A.U. after    9 cycles
 SCF Done:  E(RHF) =  -1649.64194216     A.U. after    9 cycles
 Optimization completed.
    -- Stationary point found.

                         Standard orientation:
 ---------------------------------------------------------------------
 Center     Atomic      Atomic             Coordinates (Angstroms)
 Number     Number       Type             X           Y           Z
 ---------------------------------------------------------------------
      1          6           0       -3.812341    0.239125    0.511383
      2          6           0       -2.445893    0.582220    0.794888
      3          6           0       -1.568850   -0.066945   -0.003831
      4          6           0       -3.938483   -0.659971   -0.485386
      5         16           0       -2.389296   -1.114918   -1.116093
      6          1           0       -4.849043   -1.075283   -0.879073
      7          6           0       -0.096868    0.022751    0.017718
      8         16           0        0.711642    1.441477   -0.631271
      9          6           0        2.263741    0.751734   -0.270953
     10          6           0        2.133391   -0.484039    0.292558
     11          6           0        0.775077   -0.911240    0.457113
     12          1           0        0.467214   -1.853028    0.881101
     13         16           0        3.685667   -1.174299    0.655948
     14          6           0        4.481989    0.244948    0.028954
     15          6           0        3.624385    1.181638   -0.426464
     16          1           0        5.557555    0.296692    0.035267
     17          1           0        3.931967    2.123491   -0.850423
     18          1           0       -2.144418    1.276105    1.565870
     19          8           0       -4.873739    0.749806    1.176231
     20          1           0       -4.598474    1.396099    1.804176
 ---------------------------------------------------------------------

 The electronic state is 1-A.
 Alpha  occ. eigenvalues --  -91.99489 -91.99369 -91.98931 -20.60697 -11.31315
 Alpha  occ. eigenvalues --  -11.29350 -11.29270 -11.28130 -11.27707 -11.27542
 Alpha  occ. eigenvalues --  -11.26323 -11.26116 -11.25622 -11.25491  -8.99645
 Alpha  occ. eigenvalues --   -8.99551  -8.99115  -6.67807  -6.67727  -6.67718
 Alpha  occ. eigenvalues --   -6.67639  -6.67517  -6.67432  -6.67280  -6.67190
 Alpha  occ. eigenvalues --   -6.66992  -1.42557  -1.22181  -1.18613  -1.13199
 Alpha  occ. eigenvalues --   -1.03009  -1.02621  -0.99067  -0.96055  -0.95014
 Alpha  occ. eigenvalues --   -0.84078  -0.78483  -0.77879  -0.74890  -0.72652
 Alpha  occ. eigenvalues --   -0.72102  -0.67488  -0.66135  -0.61078  -0.60607
 Alpha  occ. eigenvalues --   -0.58389  -0.57477  -0.56722  -0.54834  -0.54194
 Alpha  occ. eigenvalues --   -0.52514  -0.50987  -0.49504  -0.48597  -0.46701
 Alpha  occ. eigenvalues --   -0.46594  -0.39254  -0.35098  -0.32834  -0.32179
 Alpha  occ. eigenvalues --   -0.30563
 Alpha virt. eigenvalues --    0.03088   0.03381   0.04448   0.04750   0.04785
 Alpha virt. eigenvalues --    0.06312   0.07491   0.08265   0.08312   0.08730
 Alpha virt. eigenvalues --    0.09622   0.09867   0.10385   0.10890   0.11338

 Mulliken charges:
               1
     1  C    0.554210
     2  C    0.225680
     3  C    0.379144
     4  C    0.074736
     5  S    0.411962
     6  H   -0.347401
     7  C    0.399056
     8  S    0.406271
     9  C   -0.753359
    10  C   -0.277151
    11  C    0.129366
    12  H   -0.436696
    13  S    0.644842
    14  C   -0.079344
    15  C    0.610586
    16  H   -0.376146
    17  H   -0.321961
    18  H   -0.530165
    19  O   -0.844871
    20  H    0.131242
 Sum of Mulliken charges =  -0.00000

 Dipole moment (field-independent basis, Debye):
    X=              1.1005    Y=              1.2745    Z=              1.2891  Tot=              2.1207
 Quadrupole moment (field-independent basis, Debye-Ang):
   XX=            -96.6577   YY=            -99.4344   ZZ=           -103.4789
   XY=              1.1867   XZ=             -4.2900   YZ=              2.2360

 Normal termination of Gaussian 16 at Wed Oct 27 02:33:06 2021.
