 Gaussian 16, Revision C.01,
 Gaussian 16:  ES64L-G16RevC.01  3-Jul-2019

 ---------------------------------
 # opt=modredundant hf/aug-cc-pvdz
 ---------------------------------

 ----------------
 pg2T_TT_-145.pdb
 ----------------
 Symbolic Z-matrix:
 Charge =  0 Multiplicity = 1

 SCF Done:  E(RHF) =  -1649.42100477     A.U. after   18 cycles
 SCF Done:  E(RHF) =  -1649.50274604     A.U. after   15 cycles
 SCF Done:  E(RHF) =  -1649.60726239     A.U. after   16 cycles
 SCF Done:  E(RHF) =  -1649.62483938     A.U. after   16 cycles
 SCF Done:  E(RHF) =  -1649.63820624     A.U. after   15 cycles
 SCF Done:  E(RHF) =  -1649.63969557     A.U. after   15 cycles
 SCF Done:  E(RHF) =  -1649.64235758     A.U. after   15 cycles
 SCF Done:  E(RHF) =  -1649.64215504     A.U. after   14 cycles
 SCF Done:  E(RHF) =  -1649.64271979     A.U. after   13 cycles
 SCF Done:  E(RHF) =  -1649.64274039     A.U. after   12 cycles
 SCF Done:  E(RHF) =  -1649.64277431     A.U. after   12 cycles
 SCF Done:  E(RHF) =  -1649.64278537     A.U. after   11 cycles
 SCF Done:  E(RHF) =  -1649.64278531     A.U. after   10 cycles
 SCF Done:  E(RHF) =  -1649.64278602     A.U. after    9 cycles
 SCF Done:  E(RHF) =  -1649.64278603     A.U. after    9 cycles
 Optimization completed.
    -- Stationary point found.

                         Standard orientation:
 ---------------------------------------------------------------------
 Center     Atomic      Atomic             Coordinates (Angstroms)
 Number     Number       Type             X           Y           Z
 ---------------------------------------------------------------------
      1          6           0        3.762685    0.736245    0.163882
      2          6           0        2.369381    1.029685    0.347980
      3          6           0        1.565662   -0.003319   -0.002948
      4          6           0        3.987868   -0.504874   -0.311541
      5         16           0        2.498163   -1.354167   -0.569805
      6          1           0        4.936833   -0.964819   -0.521172
      7          6           0        0.099737   -0.027272    0.025255
      8         16           0       -0.773857   -1.495565    0.438716
      9          6           0       -2.292550   -0.681597    0.226508
     10          6           0       -2.107049    0.623116   -0.126739
     11          6           0       -0.733035    1.003809   -0.253788
     12          1           0       -0.389124    1.977086   -0.562522
     13         16           0       -3.627499    1.436048   -0.340089
     14          6           0       -4.486033   -0.028156    0.062646
     15          6           0       -3.670019   -1.066536    0.339502
     16          1           0       -5.562793   -0.027561    0.069320
     17          1           0       -4.018528   -2.050372    0.607912
     18          1           0        2.000749    1.960785    0.751716
     19          8           0        4.760682    1.603658    0.446350
     20          1           0        4.418628    2.407939    0.798257
 ---------------------------------------------------------------------

 The electronic state is 1-A.
 Alpha  occ. eigenvalues --  -91.99554 -91.99451 -91.98962 -20.60771 -11.31410
 Alpha  occ. eigenvalues --  -11.29604 -11.29520 -11.28174 -11.27798 -11.27654
 Alpha  occ. eigenvalues --  -11.26380 -11.26182 -11.25613 -11.25421  -8.99729
 Alpha  occ. eigenvalues --   -8.99633  -8.99166  -6.67893  -6.67813  -6.67800
 Alpha  occ. eigenvalues --   -6.67722  -6.67602  -6.67515  -6.67336  -6.67245
 Alpha  occ. eigenvalues --   -6.67044  -1.42646  -1.22314  -1.18700  -1.13279
 Alpha  occ. eigenvalues --   -1.03310  -1.02685  -0.99123  -0.96178  -0.95002
 Alpha  occ. eigenvalues --   -0.84331  -0.78841  -0.77822  -0.74628  -0.73087
 Alpha  occ. eigenvalues --   -0.72082  -0.67740  -0.66229  -0.61278  -0.60695
 Alpha  occ. eigenvalues --   -0.58274  -0.57509  -0.56319  -0.54985  -0.53820
 Alpha  occ. eigenvalues --   -0.52883  -0.51359  -0.50306  -0.48397  -0.46968
 Alpha  occ. eigenvalues --   -0.46549  -0.39539  -0.35851  -0.33380  -0.32695
 Alpha  occ. eigenvalues --   -0.28863
 Alpha virt. eigenvalues --    0.02892   0.03376   0.04488   0.04781   0.04900
 Alpha virt. eigenvalues --    0.05721   0.06964   0.08282   0.08319   0.09230
 Alpha virt. eigenvalues --    0.09682   0.10200   0.10715   0.11038   0.11650

 Mulliken charges:
               1
     1  C    0.418999
     2  C    0.263563
     3  C    0.468475
     4  C    0.081268
     5  S    0.510314
     6  H   -0.359484
     7  C    0.177545
     8  S    0.437937
     9  C   -0.730822
    10  C   -0.109627
    11  C    0.270479
    12  H   -0.454383
    13  S    0.584957
    14  C   -0.091948
    15  C    0.497371
    16  H   -0.379629
    17  H   -0.319060
    18  H   -0.553223
    19  O   -0.845519
    20  H    0.132785
 Sum of Mulliken charges =  -0.00000

 Dipole moment (field-independent basis, Debye):
    X=             -1.2796    Y=              1.5220    Z=              0.6760  Tot=              2.1002
 Quadrupole moment (field-independent basis, Debye-Ang):
   XX=            -96.6547   YY=            -94.5495   ZZ=           -108.5314
   XY=              6.9655   XZ=              0.1636   YZ=              1.6485

 Normal termination of Gaussian 16 at Wed Oct 27 01:55:32 2021.
