 Gaussian 16, Revision C.01,
 Gaussian 16:  ES64L-G16RevC.01  3-Jul-2019

 ---------------------------------
 # opt=modredundant hf/aug-cc-pvdz
 ---------------------------------

 ---------------
 pg2T_TT_125.pdb
 ---------------
 Symbolic Z-matrix:
 Charge =  0 Multiplicity = 1

 SCF Done:  E(RHF) =  -1649.42102445     A.U. after   18 cycles
 SCF Done:  E(RHF) =  -1649.50288737     A.U. after   15 cycles
 SCF Done:  E(RHF) =  -1649.60749773     A.U. after   15 cycles
 SCF Done:  E(RHF) =  -1649.62503318     A.U. after   16 cycles
 SCF Done:  E(RHF) =  -1649.63823038     A.U. after   15 cycles
 SCF Done:  E(RHF) =  -1649.63964335     A.U. after   15 cycles
 SCF Done:  E(RHF) =  -1649.64228393     A.U. after   14 cycles
 SCF Done:  E(RHF) =  -1649.64194793     A.U. after   15 cycles
 SCF Done:  E(RHF) =  -1649.64266545     A.U. after   13 cycles
 SCF Done:  E(RHF) =  -1649.64267324     A.U. after   12 cycles
 SCF Done:  E(RHF) =  -1649.64272050     A.U. after   12 cycles
 SCF Done:  E(RHF) =  -1649.64273001     A.U. after   11 cycles
 SCF Done:  E(RHF) =  -1649.64273069     A.U. after   10 cycles
 SCF Done:  E(RHF) =  -1649.64273100     A.U. after    9 cycles
 SCF Done:  E(RHF) =  -1649.64273102     A.U. after    8 cycles
 Optimization completed.
    -- Stationary point found.

                         Standard orientation:
 ---------------------------------------------------------------------
 Center     Atomic      Atomic             Coordinates (Angstroms)
 Number     Number       Type             X           Y           Z
 ---------------------------------------------------------------------
      1          6           0        3.763757    0.684654   -0.266101
      2          6           0        2.368733    0.948791   -0.487164
      3          6           0        1.565782    0.005360    0.057674
      4          6           0        3.986918   -0.452117    0.422830
      5         16           0        2.496259   -1.233591    0.841216
      6          1           0        4.936350   -0.869843    0.706424
      7          6           0        0.097157   -0.029491    0.020444
      8         16           0       -0.755659   -1.433578   -0.604569
      9          6           0       -2.284012   -0.656501   -0.329107
     10          6           0       -2.115209    0.592071    0.194220
     11          6           0       -0.745544    0.957388    0.402217
     12          1           0       -0.409765    1.888282    0.828640
     13         16           0       -3.644937    1.367146    0.471942
     14          6           0       -4.484845   -0.035111   -0.136831
     15          6           0       -3.656585   -1.027329   -0.524071
     16          1           0       -5.561119   -0.036317   -0.170543
     17          1           0       -3.992923   -1.969414   -0.925069
     18          1           0        1.995325    1.794701   -1.044889
     19          8           0        4.763002    1.481423   -0.708339
     20          1           0        4.420597    2.215284   -1.189943
 ---------------------------------------------------------------------

 The electronic state is 1-A.
 Alpha  occ. eigenvalues --  -91.99507 -91.99415 -91.98921 -20.60747 -11.31360
 Alpha  occ. eigenvalues --  -11.29470 -11.29387 -11.28150 -11.27744 -11.27591
 Alpha  occ. eigenvalues --  -11.26358 -11.26144 -11.25635 -11.25491  -8.99669
 Alpha  occ. eigenvalues --   -8.99598  -8.99115  -6.67832  -6.67765  -6.67752
 Alpha  occ. eigenvalues --   -6.67686  -6.67542  -6.67480  -6.67283  -6.67193
 Alpha  occ. eigenvalues --   -6.66993  -1.42611  -1.22241  -1.18651  -1.13235
 Alpha  occ. eigenvalues --   -1.03198  -1.02623  -0.99043  -0.96163  -0.94989
 Alpha  occ. eigenvalues --   -0.84211  -0.78716  -0.77789  -0.74635  -0.72876
 Alpha  occ. eigenvalues --   -0.72228  -0.67637  -0.66195  -0.61200  -0.60647
 Alpha  occ. eigenvalues --   -0.58252  -0.57475  -0.56465  -0.54956  -0.54066
 Alpha  occ. eigenvalues --   -0.52691  -0.51071  -0.49896  -0.48489  -0.46851
 Alpha  occ. eigenvalues --   -0.46618  -0.39324  -0.35494  -0.33032  -0.32663
 Alpha  occ. eigenvalues --   -0.29608
 Alpha virt. eigenvalues --    0.02954   0.03380   0.04525   0.04753   0.04810
 Alpha virt. eigenvalues --    0.05960   0.07391   0.08226   0.08243   0.09164
 Alpha virt. eigenvalues --    0.09430   0.10299   0.10571   0.10851   0.11458

 Mulliken charges:
               1
     1  C    0.487335
     2  C    0.193498
     3  C    0.489837
     4  C    0.073833
     5  S    0.462842
     6  H   -0.350485
     7  C    0.339110
     8  S    0.400356
     9  C   -0.794856
    10  C   -0.114011
    11  C    0.089263
    12  H   -0.433126
    13  S    0.621825
    14  C   -0.066714
    15  C    0.557559
    16  H   -0.378137
    17  H   -0.319532
    18  H   -0.545168
    19  O   -0.845181
    20  H    0.131754
 Sum of Mulliken charges =  -0.00000

 Dipole moment (field-independent basis, Debye):
    X=             -1.2413    Y=              1.4130    Z=             -0.9951  Tot=              2.1278
 Quadrupole moment (field-independent basis, Debye-Ang):
   XX=            -96.8761   YY=            -96.6133   ZZ=           -106.3737
   XY=              6.4752   XZ=              0.1340   YZ=             -1.8652

 Normal termination of Gaussian 16 at Wed Oct 27 04:06:32 2021.
