 Gaussian 16, Revision C.01,
 Gaussian 16:  ES64L-G16RevC.01  3-Jul-2019

 ---------------------------------
 # opt=modredundant hf/aug-cc-pvdz
 ---------------------------------

 -------------
 pg2T_TT_0.pdb
 -------------
 Symbolic Z-matrix:
 Charge =  0 Multiplicity = 1

 SCF Done:  E(RHF) =  -1649.42299806     A.U. after   19 cycles
 SCF Done:  E(RHF) =  -1649.50462703     A.U. after   16 cycles
 SCF Done:  E(RHF) =  -1649.60900282     A.U. after   16 cycles
 SCF Done:  E(RHF) =  -1649.62615334     A.U. after   16 cycles
 SCF Done:  E(RHF) =  -1649.63926269     A.U. after   15 cycles
 SCF Done:  E(RHF) =  -1649.64067449     A.U. after   15 cycles
 SCF Done:  E(RHF) =  -1649.64328835     A.U. after   15 cycles
 SCF Done:  E(RHF) =  -1649.64338591     A.U. after   15 cycles
 SCF Done:  E(RHF) =  -1649.64351364     A.U. after   13 cycles
 SCF Done:  E(RHF) =  -1649.64367936     A.U. after   14 cycles
 SCF Done:  E(RHF) =  -1649.64367674     A.U. after   12 cycles
 SCF Done:  E(RHF) =  -1649.64368183     A.U. after   11 cycles
 SCF Done:  E(RHF) =  -1649.64368702     A.U. after   11 cycles
 SCF Done:  E(RHF) =  -1649.64368705     A.U. after    8 cycles
 SCF Done:  E(RHF) =  -1649.64368707     A.U. after    8 cycles
 Optimization completed.
    -- Stationary point found.

                         Standard orientation:
 ---------------------------------------------------------------------
 Center     Atomic      Atomic             Coordinates (Angstroms)
 Number     Number       Type             X           Y           Z
 ---------------------------------------------------------------------
      1          6           0       -3.827559    0.413633    0.000044
      2          6           0       -2.472416    0.889951    0.000254
      3          6           0       -1.560452   -0.112361    0.000190
      4          6           0       -3.920606   -0.929753   -0.000114
      5         16           0       -2.346960   -1.663683   -0.000123
      6          1           0       -4.814106   -1.527558   -0.000297
      7          6           0       -0.100919    0.002681    0.000164
      8         16           0        0.665507    1.587897   -0.000015
      9          6           0        2.241322    0.857050   -0.000063
     10          6           0        2.150994   -0.503471    0.000064
     11          6           0        0.808940   -1.000795    0.000234
     12          1           0        0.546261   -2.046001    0.000449
     13         16           0        3.726256   -1.234572   -0.000005
     14          6           0        4.475731    0.339886   -0.000086
     15          6           0        3.585868    1.354980   -0.000154
     16          1           0        5.549742    0.416872   -0.000152
     17          1           0        3.861604    2.396789   -0.000222
     18          1           0       -2.214208    1.938523    0.000327
     19          8           0       -4.909823    1.223308   -0.000139
     20          1           0       -4.652977    2.129837    0.000088
 ---------------------------------------------------------------------

 The electronic state is 1-A.
 Alpha  occ. eigenvalues --  -91.99616 -91.99516 -91.98900 -20.60766 -11.31446
 Alpha  occ. eigenvalues --  -11.29751 -11.29670 -11.28252 -11.27926 -11.27756
 Alpha  occ. eigenvalues --  -11.26440 -11.26269 -11.25659 -11.25449  -8.99814
 Alpha  occ. eigenvalues --   -8.99698  -8.99121  -6.67985  -6.67907  -6.67863
 Alpha  occ. eigenvalues --   -6.67785  -6.67692  -6.67579  -6.67298  -6.67206
 Alpha  occ. eigenvalues --   -6.67001  -1.42660  -1.22423  -1.18739  -1.13350
 Alpha  occ. eigenvalues --   -1.03246  -1.02991  -0.99339  -0.95994  -0.95152
 Alpha  occ. eigenvalues --   -0.84480  -0.78783  -0.78108  -0.75299  -0.73077
 Alpha  occ. eigenvalues --   -0.71461  -0.67610  -0.66290  -0.61337  -0.60726
 Alpha  occ. eigenvalues --   -0.58629  -0.57557  -0.56800  -0.54791  -0.53306
 Alpha  occ. eigenvalues --   -0.53135  -0.52230  -0.50536  -0.48003  -0.47063
 Alpha  occ. eigenvalues --   -0.46600  -0.39734  -0.36426  -0.33633  -0.32768
 Alpha  occ. eigenvalues --   -0.28219
 Alpha virt. eigenvalues --    0.03120   0.03331   0.04305   0.04705   0.04986
 Alpha virt. eigenvalues --    0.05213   0.06724   0.08280   0.08978   0.09344
 Alpha virt. eigenvalues --    0.10269   0.10520   0.10894   0.11322   0.11782

 Mulliken charges:
               1
     1  C    0.372529
     2  C    0.182916
     3  C    0.644712
     4  C    0.094097
     5  S    0.534953
     6  H   -0.407220
     7  C    0.179051
     8  S    0.599389
     9  C   -0.655867
    10  C   -0.116449
    11  C    0.348799
    12  H   -0.509039
    13  S    0.525046
    14  C   -0.189419
    15  C    0.413526
    16  H   -0.383537
    17  H   -0.334986
    18  H   -0.582593
    19  O   -0.852351
    20  H    0.136444
 Sum of Mulliken charges =  -0.00000

 Dipole moment (field-independent basis, Debye):
    X=              1.1939    Y=              1.8238    Z=              0.0003  Tot=              2.1799
 Quadrupole moment (field-independent basis, Debye-Ang):
   XX=            -96.1154   YY=            -92.6701   ZZ=           -110.6614
   XY=              0.0817   XZ=             -0.0019   YZ=              0.0007

 Normal termination of Gaussian 16 at Wed Oct 27 03:07:10 2021.
