 Gaussian 16, Revision C.01,
 Gaussian 16:  ES64L-G16RevC.01  3-Jul-2019

 ---------------------------------
 # opt=modredundant hf/aug-cc-pvdz
 ---------------------------------

 ---------------
 pg2T_TT_-25.pdb
 ---------------
 Symbolic Z-matrix:
 Charge =  0 Multiplicity = 1

 SCF Done:  E(RHF) =  -1649.42358631     A.U. after   18 cycles
 SCF Done:  E(RHF) =  -1649.50515494     A.U. after   16 cycles
 SCF Done:  E(RHF) =  -1649.60940687     A.U. after   16 cycles
 SCF Done:  E(RHF) =  -1649.62656758     A.U. after   16 cycles
 SCF Done:  E(RHF) =  -1649.63965043     A.U. after   15 cycles
 SCF Done:  E(RHF) =  -1649.64107162     A.U. after   15 cycles
 SCF Done:  E(RHF) =  -1649.64368944     A.U. after   15 cycles
 SCF Done:  E(RHF) =  -1649.64373198     A.U. after   15 cycles
 SCF Done:  E(RHF) =  -1649.64395487     A.U. after   14 cycles
 SCF Done:  E(RHF) =  -1649.64409513     A.U. after   13 cycles
 SCF Done:  E(RHF) =  -1649.64408911     A.U. after   13 cycles
 SCF Done:  E(RHF) =  -1649.64409617     A.U. after   11 cycles
 SCF Done:  E(RHF) =  -1649.64410399     A.U. after   11 cycles
 SCF Done:  E(RHF) =  -1649.64410405     A.U. after    9 cycles
 SCF Done:  E(RHF) =  -1649.64410408     A.U. after    8 cycles
 Optimization completed.
    -- Stationary point found.

                         Standard orientation:
 ---------------------------------------------------------------------
 Center     Atomic      Atomic             Coordinates (Angstroms)
 Number     Number       Type             X           Y           Z
 ---------------------------------------------------------------------
      1          6           0       -3.821479    0.402504    0.184767
      2          6           0       -2.464377    0.866409    0.263312
      3          6           0       -1.560692   -0.107946   -0.001049
      4          6           0       -3.921961   -0.902256   -0.135918
      5         16           0       -2.354058   -1.608697   -0.370875
      6          1           0       -4.819347   -1.483095   -0.251002
      7          6           0       -0.100158   -0.000330   -0.010385
      8         16           0        0.669055    1.553818   -0.305598
      9          6           0        2.242187    0.838840   -0.128790
     10          6           0        2.147668   -0.498501    0.122328
     11          6           0        0.804041   -0.987459    0.194638
     12          1           0        0.532878   -2.008731    0.406436
     13         16           0        3.720371   -1.215329    0.293104
     14          6           0        4.474799    0.332110    0.015047
     15          6           0        3.588578    1.328576   -0.193260
     16          1           0        5.548853    0.408352    0.022627
     17          1           0        3.867867    2.352135   -0.382358
     18          1           0       -2.194576    1.877721    0.529151
     19          8           0       -4.899353    1.184711    0.416032
     20          1           0       -4.638370    2.067556    0.616646
 ---------------------------------------------------------------------

 The electronic state is 1-A.
 Alpha  occ. eigenvalues --  -91.99635 -91.99476 -91.98949 -20.60748 -11.31428
 Alpha  occ. eigenvalues --  -11.29667 -11.29586 -11.28218 -11.27873 -11.27716
 Alpha  occ. eigenvalues --  -11.26376 -11.26235 -11.25633 -11.25414  -8.99821
 Alpha  occ. eigenvalues --   -8.99658  -8.99159  -6.67989  -6.67910  -6.67824
 Alpha  occ. eigenvalues --   -6.67746  -6.67697  -6.67540  -6.67332  -6.67241
 Alpha  occ. eigenvalues --   -6.67038  -1.42640  -1.22378  -1.18727  -1.13323
 Alpha  occ. eigenvalues --   -1.03191  -1.02928  -0.99297  -0.95993  -0.95133
 Alpha  occ. eigenvalues --   -0.84411  -0.78703  -0.78064  -0.75209  -0.72989
 Alpha  occ. eigenvalues --   -0.71552  -0.67570  -0.66265  -0.61258  -0.60698
 Alpha  occ. eigenvalues --   -0.58598  -0.57540  -0.56809  -0.54758  -0.53656
 Alpha  occ. eigenvalues --   -0.53058  -0.51707  -0.50368  -0.48117  -0.47024
 Alpha  occ. eigenvalues --   -0.46638  -0.39637  -0.36147  -0.33473  -0.32803
 Alpha  occ. eigenvalues --   -0.28546
 Alpha virt. eigenvalues --    0.03126   0.03348   0.04331   0.04719   0.04975
 Alpha virt. eigenvalues --    0.05656   0.06680   0.08301   0.08642   0.09400
 Alpha virt. eigenvalues --    0.09777   0.10539   0.10619   0.10956   0.11685

 Mulliken charges:
               1
     1  C    0.427448
     2  C    0.225268
     3  C    0.580995
     4  C    0.076026
     5  S    0.475148
     6  H   -0.380519
     7  C    0.283418
     8  S    0.465679
     9  C   -0.685128
    10  C   -0.137119
    11  C    0.305959
    12  H   -0.495743
    13  S    0.562812
    14  C   -0.147359
    15  C    0.452416
    16  H   -0.378318
    17  H   -0.324442
    18  H   -0.591554
    19  O   -0.848892
    20  H    0.133907
 Sum of Mulliken charges =  -0.00000

 Dipole moment (field-independent basis, Debye):
    X=              1.1723    Y=              1.7799    Z=              0.4645  Tot=              2.1813
 Quadrupole moment (field-independent basis, Debye-Ang):
   XX=            -96.3188   YY=            -93.5136   ZZ=           -109.6985
   XY=              0.2793   XZ=             -1.5751   YZ=              0.9681

 Normal termination of Gaussian 16 at Wed Oct 27 03:15:52 2021.
