 Gaussian 16, Revision C.01,
 Gaussian 16:  ES64L-G16RevC.01  3-Jul-2019

 ---------------------------------
 # opt=modredundant hf/aug-cc-pvdz
 ---------------------------------

 ----------------
 pg2T_TT_-130.pdb
 ----------------
 Symbolic Z-matrix:
 Charge =  0 Multiplicity = 1

 SCF Done:  E(RHF) =  -1649.42056187     A.U. after   18 cycles
 SCF Done:  E(RHF) =  -1649.50247709     A.U. after   15 cycles
 SCF Done:  E(RHF) =  -1649.60716984     A.U. after   15 cycles
 SCF Done:  E(RHF) =  -1649.62480747     A.U. after   15 cycles
 SCF Done:  E(RHF) =  -1649.63825729     A.U. after   15 cycles
 SCF Done:  E(RHF) =  -1649.63972993     A.U. after   15 cycles
 SCF Done:  E(RHF) =  -1649.64243048     A.U. after   14 cycles
 SCF Done:  E(RHF) =  -1649.64226947     A.U. after   14 cycles
 SCF Done:  E(RHF) =  -1649.64280230     A.U. after   13 cycles
 SCF Done:  E(RHF) =  -1649.64281952     A.U. after   12 cycles
 SCF Done:  E(RHF) =  -1649.64286274     A.U. after   12 cycles
 SCF Done:  E(RHF) =  -1649.64287367     A.U. after   11 cycles
 SCF Done:  E(RHF) =  -1649.64287369     A.U. after   10 cycles
 SCF Done:  E(RHF) =  -1649.64287444     A.U. after    9 cycles
 SCF Done:  E(RHF) =  -1649.64287444     A.U. after    9 cycles
 Optimization completed.
    -- Stationary point found.

                         Standard orientation:
 ---------------------------------------------------------------------
 Center     Atomic      Atomic             Coordinates (Angstroms)
 Number     Number       Type             X           Y           Z
 ---------------------------------------------------------------------
      1          6           0        3.763168    0.700464    0.240201
      2          6           0        2.368399    0.972863    0.451088
      3          6           0        1.565615    0.002369   -0.045301
      4          6           0        3.987148   -0.467676   -0.393846
      5         16           0        2.496894   -1.270026   -0.772426
      6          1           0        4.936650   -0.897964   -0.657603
      7          6           0        0.097916   -0.029195   -0.010507
      8         16           0       -0.760757   -1.450489    0.565691
      9          6           0       -2.286359   -0.663092    0.304991
     10          6           0       -2.112690    0.600758   -0.178673
     11          6           0       -0.741664    0.969982   -0.368003
     12          1           0       -0.403100    1.911636   -0.767700
     13         16           0       -3.639764    1.386072   -0.441928
     14          6           0       -4.485130   -0.032620    0.119557
     15          6           0       -3.660431   -1.037566    0.480830
     16          1           0       -5.561573   -0.033140    0.147138
     17          1           0       -4.000338   -1.990925    0.850992
     18          1           0        1.995638    1.843254    0.970176
     19          8           0        4.761951    1.518352    0.642955
     20          1           0        4.419313    2.273684    1.089944
 ---------------------------------------------------------------------

 The electronic state is 1-A.
 Alpha  occ. eigenvalues --  -91.99523 -91.99424 -91.98933 -20.60755 -11.31374
 Alpha  occ. eigenvalues --  -11.29503 -11.29420 -11.28156 -11.27757 -11.27608
 Alpha  occ. eigenvalues --  -11.26362 -11.26153 -11.25630 -11.25475  -8.99687
 Alpha  occ. eigenvalues --   -8.99607  -8.99129  -6.67850  -6.67773  -6.67770
 Alpha  occ. eigenvalues --   -6.67695  -6.67560  -6.67488  -6.67298  -6.67207
 Alpha  occ. eigenvalues --   -6.67007  -1.42621  -1.22259  -1.18665  -1.13246
 Alpha  occ. eigenvalues --   -1.03228  -1.02639  -0.99063  -0.96166  -0.94993
 Alpha  occ. eigenvalues --   -0.84244  -0.78748  -0.77794  -0.74627  -0.72935
 Alpha  occ. eigenvalues --   -0.72190  -0.67662  -0.66205  -0.61219  -0.60659
 Alpha  occ. eigenvalues --   -0.58257  -0.57484  -0.56425  -0.54963  -0.54019
 Alpha  occ. eigenvalues --   -0.52739  -0.51125  -0.50003  -0.48459  -0.46889
 Alpha  occ. eigenvalues --   -0.46608  -0.39370  -0.35588  -0.33128  -0.32686
 Alpha  occ. eigenvalues --   -0.29402
 Alpha virt. eigenvalues --    0.02939   0.03379   0.04515   0.04769   0.04827
 Alpha virt. eigenvalues --    0.05914   0.07249   0.08239   0.08263   0.09232
 Alpha virt. eigenvalues --    0.09435   0.10288   0.10641   0.10896   0.11496

 Mulliken charges:
               1
     1  C    0.470354
     2  C    0.204628
     3  C    0.490612
     4  C    0.078614
     5  S    0.473585
     6  H   -0.351911
     7  C    0.308359
     8  S    0.406177
     9  C   -0.784363
    10  C   -0.108161
    11  C    0.117088
    12  H   -0.436647
    13  S    0.614151
    14  C   -0.068160
    15  C    0.543909
    16  H   -0.378825
    17  H   -0.319064
    18  H   -0.547564
    19  O   -0.844787
    20  H    0.132006
 Sum of Mulliken charges =  -0.00000

 Dipole moment (field-independent basis, Debye):
    X=             -1.2505    Y=              1.4461    Z=              0.9138  Tot=              2.1189
 Quadrupole moment (field-independent basis, Debye-Ang):
   XX=            -96.8175   YY=            -96.0328   ZZ=           -106.9807
   XY=              6.6157   XZ=             -0.0918   YZ=              1.8132

 Normal termination of Gaussian 16 at Wed Oct 27 01:58:24 2021.
