 Gaussian 16, Revision C.01,
 Gaussian 16:  ES64L-G16RevC.01  3-Jul-2019

 ---------------------------------
 # opt=modredundant hf/aug-cc-pvdz
 ---------------------------------

 ---------------
 pg2T_TT_-15.pdb
 ---------------
 Symbolic Z-matrix:
 Charge =  0 Multiplicity = 1

 SCF Done:  E(RHF) =  -1649.42349496     A.U. after   18 cycles
 SCF Done:  E(RHF) =  -1649.50504985     A.U. after   16 cycles
 SCF Done:  E(RHF) =  -1649.60928245     A.U. after   16 cycles
 SCF Done:  E(RHF) =  -1649.62637667     A.U. after   16 cycles
 SCF Done:  E(RHF) =  -1649.63945529     A.U. after   15 cycles
 SCF Done:  E(RHF) =  -1649.64087051     A.U. after   15 cycles
 SCF Done:  E(RHF) =  -1649.64349264     A.U. after   15 cycles
 SCF Done:  E(RHF) =  -1649.64360903     A.U. after   15 cycles
 SCF Done:  E(RHF) =  -1649.64373581     A.U. after   14 cycles
 SCF Done:  E(RHF) =  -1649.64389666     A.U. after   13 cycles
 SCF Done:  E(RHF) =  -1649.64389392     A.U. after   12 cycles
 SCF Done:  E(RHF) =  -1649.64389692     A.U. after   11 cycles
 SCF Done:  E(RHF) =  -1649.64390306     A.U. after   11 cycles
 SCF Done:  E(RHF) =  -1649.64390310     A.U. after    8 cycles
 SCF Done:  E(RHF) =  -1649.64390312     A.U. after    8 cycles
 Optimization completed.
    -- Stationary point found.

                         Standard orientation:
 ---------------------------------------------------------------------
 Center     Atomic      Atomic             Coordinates (Angstroms)
 Number     Number       Type             X           Y           Z
 ---------------------------------------------------------------------
      1          6           0       -3.824761    0.409884    0.114968
      2          6           0       -2.468749    0.881145    0.162944
      3          6           0       -1.560363   -0.111344    0.001576
      4          6           0       -3.921163   -0.918948   -0.082851
      5         16           0       -2.350029   -1.642698   -0.230268
      6          1           0       -4.816376   -1.510154   -0.152630
      7          6           0       -0.100582    0.000475   -0.009236
      8         16           0        0.666341    1.573931   -0.192458
      9          6           0        2.241296    0.849989   -0.080083
     10          6           0        2.149767   -0.501675    0.076049
     11          6           0        0.807288   -0.996291    0.120560
     12          1           0        0.541355   -2.031830    0.256132
     13         16           0        3.724258   -1.226675    0.183246
     14          6           0        4.475160    0.337640    0.010436
     15          6           0        3.586403    1.345227   -0.119619
     16          1           0        5.549157    0.414743    0.015858
     17          1           0        3.863225    2.380100   -0.237182
     18          1           0       -2.205507    1.915233    0.329024
     19          8           0       -4.905066    1.209478    0.258369
     20          1           0       -4.646242    2.106537    0.385070
 ---------------------------------------------------------------------

 The electronic state is 1-A.
 Alpha  occ. eigenvalues --  -91.99626 -91.99500 -91.98920 -20.60758 -11.31438
 Alpha  occ. eigenvalues --  -11.29716 -11.29635 -11.28238 -11.27904 -11.27740
 Alpha  occ. eigenvalues --  -11.26413 -11.26256 -11.25646 -11.25430  -8.99819
 Alpha  occ. eigenvalues --   -8.99682  -8.99136  -6.67989  -6.67910  -6.67847
 Alpha  occ. eigenvalues --   -6.67769  -6.67697  -6.67563  -6.67312  -6.67220
 Alpha  occ. eigenvalues --   -6.67016  -1.42651  -1.22406  -1.18734  -1.13340
 Alpha  occ. eigenvalues --   -1.03224  -1.02966  -0.99321  -0.95992  -0.95145
 Alpha  occ. eigenvalues --   -0.84453  -0.78749  -0.78090  -0.75262  -0.73040
 Alpha  occ. eigenvalues --   -0.71495  -0.67593  -0.66281  -0.61303  -0.60714
 Alpha  occ. eigenvalues --   -0.58617  -0.57551  -0.56805  -0.54775  -0.53457
 Alpha  occ. eigenvalues --   -0.53136  -0.51972  -0.50471  -0.48049  -0.47050
 Alpha  occ. eigenvalues --   -0.46618  -0.39696  -0.36313  -0.33566  -0.32789
 Alpha  occ. eigenvalues --   -0.28344
 Alpha virt. eigenvalues --    0.03123   0.03339   0.04317   0.04714   0.04981
 Alpha virt. eigenvalues --    0.05394   0.06710   0.08291   0.08855   0.09348
 Alpha virt. eigenvalues --    0.10088   0.10539   0.10696   0.11071   0.11697

 Mulliken charges:
               1
     1  C    0.387686
     2  C    0.232237
     3  C    0.603711
     4  C    0.082651
     5  S    0.493828
     6  H   -0.394745
     7  C    0.235431
     8  S    0.513821
     9  C   -0.676309
    10  C   -0.125613
    11  C    0.358819
    12  H   -0.504307
    13  S    0.542643
    14  C   -0.164270
    15  C    0.426064
    16  H   -0.380035
    17  H   -0.329283
    18  H   -0.587537
    19  O   -0.849496
    20  H    0.134704
 Sum of Mulliken charges =  -0.00000

 Dipole moment (field-independent basis, Debye):
    X=              1.1871    Y=              1.8076    Z=              0.2994  Tot=              2.1831
 Quadrupole moment (field-independent basis, Debye-Ang):
   XX=            -96.2093   YY=            -93.0002   ZZ=           -110.2797
   XY=              0.1710   XZ=             -0.9978   YZ=              0.6198

 Normal termination of Gaussian 16 at Wed Oct 27 03:01:28 2021.
