 Gaussian 16, Revision C.01,
 Gaussian 16:  ES64L-G16RevC.01  3-Jul-2019

 ---------------------------------
 # opt=modredundant hf/aug-cc-pvdz
 ---------------------------------

 ---------------
 pg2T_TT_-90.pdb
 ---------------
 Symbolic Z-matrix:
 Charge =  0 Multiplicity = 1

 SCF Done:  E(RHF) =  -1649.41898621     A.U. after   18 cycles
 SCF Done:  E(RHF) =  -1649.50107825     A.U. after   15 cycles
 SCF Done:  E(RHF) =  -1649.60581741     A.U. after   15 cycles
 SCF Done:  E(RHF) =  -1649.62344216     A.U. after   15 cycles
 SCF Done:  E(RHF) =  -1649.63688940     A.U. after   15 cycles
 SCF Done:  E(RHF) =  -1649.63829127     A.U. after   15 cycles
 SCF Done:  E(RHF) =  -1649.64096756     A.U. after   14 cycles
 SCF Done:  E(RHF) =  -1649.64055620     A.U. after   15 cycles
 SCF Done:  E(RHF) =  -1649.64137359     A.U. after   13 cycles
 SCF Done:  E(RHF) =  -1649.64136758     A.U. after   12 cycles
 SCF Done:  E(RHF) =  -1649.64142293     A.U. after   12 cycles
 SCF Done:  E(RHF) =  -1649.64143455     A.U. after   11 cycles
 SCF Done:  E(RHF) =  -1649.64143494     A.U. after   10 cycles
 SCF Done:  E(RHF) =  -1649.64143562     A.U. after    9 cycles
 SCF Done:  E(RHF) =  -1649.64143565     A.U. after    9 cycles
 Optimization completed.
    -- Stationary point found.

                         Standard orientation:
 ---------------------------------------------------------------------
 Center     Atomic      Atomic             Coordinates (Angstroms)
 Number     Number       Type             X           Y           Z
 ---------------------------------------------------------------------
      1          6           0        3.796605    0.200022    0.595469
      2          6           0        2.417973    0.159026    1.000377
      3          6           0        1.569142    0.058607   -0.046771
      4          6           0        3.959309    0.125874   -0.740619
      5         16           0        2.431799    0.006259   -1.551358
      6          1           0        4.885304    0.138153   -1.287457
      7          6           0        0.095030   -0.007032    0.001475
      8         16           0       -0.724014   -1.557549    0.118706
      9          6           0       -2.270232   -0.767757    0.115252
     10          6           0       -2.130953    0.586478    0.026550
     11          6           0       -0.769349    1.029963   -0.042007
     12          1           0       -0.453615    2.057415   -0.120818
     13         16           0       -3.677786    1.377417    0.025219
     14          6           0       -4.484308   -0.163984    0.147677
     15          6           0       -3.633856   -1.210636    0.186087
     16          1           0       -5.559997   -0.199048    0.182669
     17          1           0       -3.948291   -2.238827    0.259367
     18          1           0        2.087538    0.203203    2.027803
     19          8           0        4.834924    0.306224    1.455969
     20          1           0        4.533528    0.307925    2.348666
 ---------------------------------------------------------------------

 The electronic state is 1-A.
 Alpha  occ. eigenvalues --  -91.99438 -91.99371 -91.98880 -20.60694 -11.31287
 Alpha  occ. eigenvalues --  -11.29314 -11.29235 -11.28133 -11.27699 -11.27519
 Alpha  occ. eigenvalues --  -11.26351 -11.26108 -11.25631 -11.25523  -8.99593
 Alpha  occ. eigenvalues --   -8.99554  -8.99063  -6.67755  -6.67720  -6.67675
 Alpha  occ. eigenvalues --   -6.67642  -6.67465  -6.67435  -6.67230  -6.67140
 Alpha  occ. eigenvalues --   -6.66941  -1.42546  -1.22160  -1.18585  -1.13184
 Alpha  occ. eigenvalues --   -1.03018  -1.02569  -0.98995  -0.96102  -0.94985
 Alpha  occ. eigenvalues --   -0.84041  -0.78498  -0.77825  -0.74791  -0.72534
 Alpha  occ. eigenvalues --   -0.72331  -0.67508  -0.66127  -0.61078  -0.60596
 Alpha  occ. eigenvalues --   -0.58295  -0.57477  -0.56675  -0.54874  -0.54223
 Alpha  occ. eigenvalues --   -0.52466  -0.50934  -0.49352  -0.48713  -0.46651
 Alpha  occ. eigenvalues --   -0.46588  -0.39196  -0.35001  -0.32632  -0.31945
 Alpha  occ. eigenvalues --   -0.31078
 Alpha virt. eigenvalues --    0.03054   0.03380   0.04508   0.04694   0.04768
 Alpha virt. eigenvalues --    0.06210   0.07788   0.08220   0.08444   0.08659
 Alpha virt. eigenvalues --    0.09370   0.09900   0.10356   0.10795   0.11444

 Mulliken charges:
               1
     1  C    0.599184
     2  C    0.192176
     3  C    0.365499
     4  C    0.049028
     5  S    0.410244
     6  H   -0.344237
     7  C    0.400943
     8  S    0.404438
     9  C   -0.766267
    10  C   -0.265542
    11  C    0.096960
    12  H   -0.424884
    13  S    0.653708
    14  C   -0.071835
    15  C    0.643961
    16  H   -0.376706
    17  H   -0.324457
    18  H   -0.524497
    19  O   -0.847672
    20  H    0.129957
 Sum of Mulliken charges =  -0.00000

 Dipole moment (field-independent basis, Debye):
    X=             -1.1452    Y=              0.0105    Z=              1.8090  Tot=              2.1410
 Quadrupole moment (field-independent basis, Debye-Ang):
   XX=            -96.8701   YY=           -102.7936   ZZ=           -100.0684
   XY=              4.2588   XZ=              3.0918   YZ=             -0.0121

 Normal termination of Gaussian 16 at Wed Oct 27 02:33:02 2021.
