 Gaussian 16, Revision C.01,
 Gaussian 16:  ES64L-G16RevC.01  3-Jul-2019

 ---------------------------------
 # opt=modredundant hf/aug-cc-pvdz
 ---------------------------------

 --------------
 pg2T_TT_50.pdb
 --------------
 Symbolic Z-matrix:
 Charge =  0 Multiplicity = 1

 SCF Done:  E(RHF) =  -1649.42182370     A.U. after   18 cycles
 SCF Done:  E(RHF) =  -1649.50367075     A.U. after   15 cycles
 SCF Done:  E(RHF) =  -1649.60833590     A.U. after   15 cycles
 SCF Done:  E(RHF) =  -1649.62577604     A.U. after   15 cycles
 SCF Done:  E(RHF) =  -1649.63903697     A.U. after   15 cycles
 SCF Done:  E(RHF) =  -1649.64045435     A.U. after   15 cycles
 SCF Done:  E(RHF) =  -1649.64309345     A.U. after   15 cycles
 SCF Done:  E(RHF) =  -1649.64243686     A.U. after   15 cycles
 SCF Done:  E(RHF) =  -1649.64358004     A.U. after   13 cycles
 SCF Done:  E(RHF) =  -1649.64359421     A.U. after   12 cycles
 SCF Done:  E(RHF) =  -1649.64360566     A.U. after   12 cycles
 SCF Done:  E(RHF) =  -1649.64362102     A.U. after   11 cycles
 SCF Done:  E(RHF) =  -1649.64362158     A.U. after    9 cycles
 Optimization completed.
    -- Stationary point found.

                         Standard orientation:
 ---------------------------------------------------------------------
 Center     Atomic      Atomic             Coordinates (Angstroms)
 Number     Number       Type             X           Y           Z
 ---------------------------------------------------------------------
      1          6           0        3.817412    0.358606    0.340684
      2          6           0        2.458225    0.793586    0.504561
      3          6           0        1.564312   -0.085071   -0.007337
      4          6           0        3.924732   -0.833295   -0.280199
      5         16           0        2.363291   -1.459364   -0.701979
      6          1           0        4.826316   -1.369944   -0.515688
      7          6           0        0.099096    0.012792    0.004803
      8         16           0       -0.687181    1.489501   -0.533172
      9          6           0       -2.250832    0.796329   -0.231692
     10          6           0       -2.139670   -0.484174    0.226330
     11          6           0       -0.789339   -0.942749    0.362728
     12          1           0       -0.499403   -1.916453    0.722044
     13         16           0       -3.702892   -1.179558    0.526177
     14          6           0       -4.476867    0.297754    0.016174
     15          6           0       -3.603957    1.257113   -0.356033
     16          1           0       -5.551631    0.363844    0.022683
     17          1           0       -3.896473    2.235356   -0.700918
     18          1           0        2.175110    1.710124    1.000456
     19          8           0        4.890974    1.057642    0.773374
     20          1           0        4.628118    1.881316    1.147908
 ---------------------------------------------------------------------

 The electronic state is 1-A.
 Alpha  occ. eigenvalues --  -91.99604 -91.99407 -91.98998 -20.60722 -11.31389
 Alpha  occ. eigenvalues --  -11.29509 -11.29427 -11.28158 -11.27776 -11.27626
 Alpha  occ. eigenvalues --  -11.26304 -11.26168 -11.25619 -11.25422  -8.99770
 Alpha  occ. eigenvalues --   -8.99590  -8.99190  -6.67934  -6.67854  -6.67756
 Alpha  occ. eigenvalues --   -6.67678  -6.67643  -6.67471  -6.67359  -6.67268
 Alpha  occ. eigenvalues --   -6.67068  -1.42595  -1.22276  -1.18689  -1.13261
 Alpha  occ. eigenvalues --   -1.03085  -1.02784  -0.99208  -0.96007  -0.95082
 Alpha  occ. eigenvalues --   -0.84249  -0.78577  -0.77975  -0.75049  -0.72835
 Alpha  occ. eigenvalues --   -0.71779  -0.67510  -0.66200  -0.61147  -0.60645
 Alpha  occ. eigenvalues --   -0.58525  -0.57496  -0.56789  -0.54766  -0.54031
 Alpha  occ. eigenvalues --   -0.52769  -0.51221  -0.49969  -0.48338  -0.46886
 Alpha  occ. eigenvalues --   -0.46649  -0.39441  -0.35607  -0.33207  -0.32653
 Alpha  occ. eigenvalues --   -0.29358
 Alpha virt. eigenvalues --    0.03123   0.03371   0.04378   0.04733   0.04914
 Alpha virt. eigenvalues --    0.06386   0.06715   0.08259   0.08316   0.09075
 Alpha virt. eigenvalues --    0.09629   0.10383   0.10557   0.10814   0.11620

 Mulliken charges:
               1
     1  C    0.490143
     2  C    0.224840
     3  C    0.507629
     4  C    0.090652
     5  S    0.435445
     6  H   -0.356805
     7  C    0.343206
     8  S    0.403345
     9  C   -0.707129
    10  C   -0.211804
    11  C    0.209846
    12  H   -0.466462
    13  S    0.608350
    14  C   -0.105314
    15  C    0.513699
    16  H   -0.376199
    17  H   -0.318650
    18  H   -0.570152
    19  O   -0.847639
    20  H    0.132998
 Sum of Mulliken charges =  -0.00000

 Dipole moment (field-independent basis, Debye):
    X=             -1.1131    Y=              1.6444    Z=              0.8112  Tot=              2.1450
 Quadrupole moment (field-independent basis, Debye-Ang):
   XX=            -96.4959   YY=            -95.6347   ZZ=           -107.4178
   XY=             -0.4914   XZ=              2.8993   YZ=              1.7061

 Normal termination of Gaussian 16 at Wed Oct 27 03:19:34 2021.
