 Gaussian 16, Revision C.01,
 Gaussian 16:  ES64L-G16RevC.01  3-Jul-2019

 ---------------------------------
 # opt=modredundant hf/aug-cc-pvdz
 ---------------------------------

 ---------------
 pg2T_TT_-70.pdb
 ---------------
 Symbolic Z-matrix:
 Charge =  0 Multiplicity = 1

 SCF Done:  E(RHF) =  -1649.42022204     A.U. after   18 cycles
 SCF Done:  E(RHF) =  -1649.50217314     A.U. after   15 cycles
 SCF Done:  E(RHF) =  -1649.60679249     A.U. after   15 cycles
 SCF Done:  E(RHF) =  -1649.62440599     A.U. after   15 cycles
 SCF Done:  E(RHF) =  -1649.63777558     A.U. after   15 cycles
 SCF Done:  E(RHF) =  -1649.63918101     A.U. after   15 cycles
 SCF Done:  E(RHF) =  -1649.64180859     A.U. after   14 cycles
 SCF Done:  E(RHF) =  -1649.64133478     A.U. after   15 cycles
 SCF Done:  E(RHF) =  -1649.64220287     A.U. after   14 cycles
 SCF Done:  E(RHF) =  -1649.64219623     A.U. after   13 cycles
 SCF Done:  E(RHF) =  -1649.64225062     A.U. after   12 cycles
 SCF Done:  E(RHF) =  -1649.64226131     A.U. after   11 cycles
 SCF Done:  E(RHF) =  -1649.64226171     A.U. after   10 cycles
 SCF Done:  E(RHF) =  -1649.64226240     A.U. after    9 cycles
 SCF Done:  E(RHF) =  -1649.64226241     A.U. after    9 cycles
 Optimization completed.
    -- Stationary point found.

                         Standard orientation:
 ---------------------------------------------------------------------
 Center     Atomic      Atomic             Coordinates (Angstroms)
 Number     Number       Type             X           Y           Z
 ---------------------------------------------------------------------
      1          6           0       -3.815052    0.277517    0.471201
      2          6           0       -2.451395    0.651912    0.726347
      3          6           0       -1.568231   -0.067436   -0.003031
      4          6           0       -3.933488   -0.714934   -0.433801
      5         16           0       -2.379709   -1.221287   -1.012102
      6          1           0       -4.840657   -1.170140   -0.789300
      7          6           0       -0.097516    0.024672    0.018506
      8         16           0        0.707124    1.441334   -0.639593
      9          6           0        2.261288    0.756654   -0.278152
     10          6           0        2.134183   -0.477486    0.289768
     11          6           0        0.777208   -0.906693    0.458923
     12          1           0        0.472340   -1.846753    0.888799
     13         16           0        3.688370   -1.163029    0.653722
     14          6           0        4.480934    0.255683    0.020737
     15          6           0        3.620722    1.188955   -0.436852
     16          1           0        5.556397    0.309668    0.025378
     17          1           0        3.925765    2.129968   -0.864505
     18          1           0       -2.156348    1.416117    1.430374
     19          8           0       -4.881311    0.845554    1.079121
     20          1           0       -4.611462    1.551352    1.641993
 ---------------------------------------------------------------------

 The electronic state is 1-A.
 Alpha  occ. eigenvalues --  -91.99514 -91.99372 -91.98952 -20.60701 -11.31330
 Alpha  occ. eigenvalues --  -11.29376 -11.29296 -11.28132 -11.27716 -11.27555
 Alpha  occ. eigenvalues --  -11.26313 -11.26123 -11.25620 -11.25477  -8.99670
 Alpha  occ. eigenvalues --   -8.99555  -8.99136  -6.67833  -6.67753  -6.67721
 Alpha  occ. eigenvalues --   -6.67643  -6.67543  -6.67436  -6.67302  -6.67212
 Alpha  occ. eigenvalues --   -6.67013  -1.42565  -1.22196  -1.18628  -1.13208
 Alpha  occ. eigenvalues --   -1.03018  -1.02649  -0.99097  -0.96042  -0.95027
 Alpha  occ. eigenvalues --   -0.84106  -0.78494  -0.77899  -0.74922  -0.72691
 Alpha  occ. eigenvalues --   -0.72031  -0.67487  -0.66145  -0.61087  -0.60614
 Alpha  occ. eigenvalues --   -0.58421  -0.57477  -0.56737  -0.54821  -0.54173
 Alpha  occ. eigenvalues --   -0.52552  -0.51020  -0.49589  -0.48543  -0.46732
 Alpha  occ. eigenvalues --   -0.46606  -0.39285  -0.35177  -0.32920  -0.32298
 Alpha  occ. eigenvalues --   -0.30302
 Alpha virt. eigenvalues --    0.03098   0.03381   0.04432   0.04747   0.04814
 Alpha virt. eigenvalues --    0.06344   0.07352   0.08237   0.08305   0.08774
 Alpha virt. eigenvalues --    0.09706   0.09909   0.10411   0.10906   0.11326

 Mulliken charges:
               1
     1  C    0.535702
     2  C    0.231861
     3  C    0.400225
     4  C    0.082648
     5  S    0.414741
     6  H   -0.348948
     7  C    0.398156
     8  S    0.404679
     9  C   -0.746654
    10  C   -0.268541
    11  C    0.138662
    12  H   -0.442470
    13  S    0.638660
    14  C   -0.082848
    15  C    0.589758
    16  H   -0.375952
    17  H   -0.320768
    18  H   -0.535852
    19  O   -0.844859
    20  H    0.131800
 Sum of Mulliken charges =  -0.00000

 Dipole moment (field-independent basis, Debye):
    X=              1.0940    Y=              1.3928    Z=              1.1642  Tot=              2.1194
 Quadrupole moment (field-independent basis, Debye-Ang):
   XX=            -96.6041   YY=            -98.4761   ZZ=           -104.4633
   XY=              0.8956   XZ=             -4.0543   YZ=              2.1959

 Normal termination of Gaussian 16 at Wed Oct 27 02:34:22 2021.
