 Gaussian 16, Revision C.01,
 Gaussian 16:  ES64L-G16RevC.01  3-Jul-2019

 ---------------------------------
 # opt=modredundant hf/aug-cc-pvdz
 ---------------------------------

 ----------------
 pg2T_TT_-155.pdb
 ----------------
 Symbolic Z-matrix:
 Charge =  0 Multiplicity = 1

 SCF Done:  E(RHF) =  -1649.42095388     A.U. after   18 cycles
 SCF Done:  E(RHF) =  -1649.50259030     A.U. after   16 cycles
 SCF Done:  E(RHF) =  -1649.60696756     A.U. after   16 cycles
 SCF Done:  E(RHF) =  -1649.62443258     A.U. after   16 cycles
 SCF Done:  E(RHF) =  -1649.63769993     A.U. after   15 cycles
 SCF Done:  E(RHF) =  -1649.63919857     A.U. after   15 cycles
 SCF Done:  E(RHF) =  -1649.64184048     A.U. after   15 cycles
 SCF Done:  E(RHF) =  -1649.64160816     A.U. after   14 cycles
 SCF Done:  E(RHF) =  -1649.64220408     A.U. after   13 cycles
 SCF Done:  E(RHF) =  -1649.64222909     A.U. after   12 cycles
 SCF Done:  E(RHF) =  -1649.64225097     A.U. after   12 cycles
 SCF Done:  E(RHF) =  -1649.64226348     A.U. after   11 cycles
 SCF Done:  E(RHF) =  -1649.64226340     A.U. after   10 cycles
 SCF Done:  E(RHF) =  -1649.64226407     A.U. after    9 cycles
 SCF Done:  E(RHF) =  -1649.64226408     A.U. after    9 cycles
 Optimization completed.
    -- Stationary point found.

                         Standard orientation:
 ---------------------------------------------------------------------
 Center     Atomic      Atomic             Coordinates (Angstroms)
 Number     Number       Type             X           Y           Z
 ---------------------------------------------------------------------
      1          6           0        3.762398    0.754050    0.113983
      2          6           0        2.369413    1.060019    0.272298
      3          6           0        1.566009   -0.002812    0.020183
      4          6           0        3.990313   -0.523997   -0.249289
      5         16           0        2.502088   -1.395145   -0.428478
      6          1           0        4.939602   -0.999532   -0.418313
      7          6           0        0.100204   -0.025665    0.043698
      8         16           0       -0.778950   -1.518936    0.340942
      9          6           0       -2.295252   -0.692113    0.169291
     10          6           0       -2.106078    0.633906   -0.089932
     11          6           0       -0.731585    1.021824   -0.174352
     12          1           0       -0.388378    2.014977   -0.411952
     13         16           0       -3.624430    1.460615   -0.261872
     14          6           0       -4.486861   -0.027838    0.028409
     15          6           0       -3.673512   -1.083387    0.240952
     16          1           0       -5.563621   -0.027204    0.023457
     17          1           0       -4.024557   -2.083367    0.436475
     18          1           0        2.002927    2.024888    0.589089
     19          8           0        4.758618    1.645635    0.315417
     20          1           0        4.415458    2.476680    0.597008
 ---------------------------------------------------------------------

 The electronic state is 1-A.
 Alpha  occ. eigenvalues --  -91.99563 -91.99468 -91.98973 -20.60778 -11.31426
 Alpha  occ. eigenvalues --  -11.29676 -11.29591 -11.28188 -11.27824 -11.27680
 Alpha  occ. eigenvalues --  -11.26395 -11.26202 -11.25605 -11.25391  -8.99746
 Alpha  occ. eigenvalues --   -8.99650  -8.99183  -6.67911  -6.67831  -6.67817
 Alpha  occ. eigenvalues --   -6.67738  -6.67619  -6.67532  -6.67354  -6.67263
 Alpha  occ. eigenvalues --   -6.67062  -1.42657  -1.22346  -1.18720  -1.13297
 Alpha  occ. eigenvalues --   -1.03355  -1.02711  -0.99162  -0.96188  -0.95003
 Alpha  occ. eigenvalues --   -0.84377  -0.78895  -0.77847  -0.74647  -0.73169
 Alpha  occ. eigenvalues --   -0.72017  -0.67792  -0.66242  -0.61323  -0.60715
 Alpha  occ. eigenvalues --   -0.58284  -0.57523  -0.56264  -0.54998  -0.53635
 Alpha  occ. eigenvalues --   -0.52972  -0.51595  -0.50477  -0.48376  -0.46990
 Alpha  occ. eigenvalues --   -0.46486  -0.39668  -0.36003  -0.33536  -0.32646
 Alpha  occ. eigenvalues --   -0.28564
 Alpha virt. eigenvalues --    0.02861   0.03374   0.04471   0.04779   0.04947
 Alpha virt. eigenvalues --    0.05540   0.06956   0.08308   0.08384   0.09186
 Alpha virt. eigenvalues --    0.09922   0.10108   0.10749   0.11078   0.11745

 Mulliken charges:
               1
     1  C    0.384182
     2  C    0.344674
     3  C    0.431044
     4  C    0.071253
     5  S    0.525416
     6  H   -0.367759
     7  C    0.073548
     8  S    0.457527
     9  C   -0.702203
    10  C   -0.093067
    11  C    0.420002
    12  H   -0.477587
    13  S    0.559345
    14  C   -0.122088
    15  C    0.468505
    16  H   -0.379592
    17  H   -0.320091
    18  H   -0.557818
    19  O   -0.848341
    20  H    0.133050
 Sum of Mulliken charges =   0.00000

 Dipole moment (field-independent basis, Debye):
    X=             -1.2999    Y=              1.5654    Z=              0.5093  Tot=              2.0976
 Quadrupole moment (field-independent basis, Debye-Ang):
   XX=            -96.5960   YY=            -93.7112   ZZ=           -109.3877
   XY=              7.1350   XZ=              0.3168   YZ=              1.4531

 Normal termination of Gaussian 16 at Wed Oct 27 01:54:07 2021.
