 Gaussian 16, Revision C.01,
 Gaussian 16:  ES64L-G16RevC.01  3-Jul-2019

 ---------------------------------
 # opt=modredundant hf/aug-cc-pvdz
 ---------------------------------

 ---------------
 pg2T_TT_180.pdb
 ---------------
 Symbolic Z-matrix:
 Charge =  0 Multiplicity = 1

 SCF Done:  E(RHF) =  -1649.42070691     A.U. after   18 cycles
 SCF Done:  E(RHF) =  -1649.50218168     A.U. after   16 cycles
 SCF Done:  E(RHF) =  -1649.60631813     A.U. after   16 cycles
 SCF Done:  E(RHF) =  -1649.62347347     A.U. after   16 cycles
 SCF Done:  E(RHF) =  -1649.63640283     A.U. after   15 cycles
 SCF Done:  E(RHF) =  -1649.63784983     A.U. after   16 cycles
 SCF Done:  E(RHF) =  -1649.64045784     A.U. after   15 cycles
 SCF Done:  E(RHF) =  -1649.64022526     A.U. after   17 cycles
 SCF Done:  E(RHF) =  -1649.64083891     A.U. after   13 cycles
 SCF Done:  E(RHF) =  -1649.64087047     A.U. after   12 cycles
 SCF Done:  E(RHF) =  -1649.64088249     A.U. after   12 cycles
 SCF Done:  E(RHF) =  -1649.64089358     A.U. after   11 cycles
 SCF Done:  E(RHF) =  -1649.64089386     A.U. after    9 cycles
 SCF Done:  E(RHF) =  -1649.64089426     A.U. after    8 cycles
 SCF Done:  E(RHF) =  -1649.64089427     A.U. after    8 cycles
 Optimization completed.
    -- Stationary point found.

                         Standard orientation:
 ---------------------------------------------------------------------
 Center     Atomic      Atomic             Coordinates (Angstroms)
 Number     Number       Type             X           Y           Z
 ---------------------------------------------------------------------
      1          6           0        3.761305    0.779086   -0.000019
      2          6           0        2.364842    1.103552   -0.000315
      3          6           0        1.566713    0.005715   -0.000215
      4          6           0        4.002113   -0.547338    0.000230
      5         16           0        2.520375   -1.445847    0.000222
      6          1           0        4.955575   -1.043723    0.000503
      7          6           0        0.099310   -0.024027   -0.000201
      8         16           0       -0.780378   -1.547223   -0.000334
      9          6           0       -2.297696   -0.706886    0.000005
     10          6           0       -2.110576    0.644322   -0.000030
     11          6           0       -0.737930    1.043065   -0.000168
     12          1           0       -0.404494    2.067129   -0.000103
     13         16           0       -3.630652    1.486093    0.000159
     14          6           0       -4.490288   -0.032224    0.000119
     15          6           0       -3.674874   -1.107486    0.000260
     16          1           0       -5.567046   -0.032651   -0.000019
     17          1           0       -4.023915   -2.127064    0.000307
     18          1           0        1.995612    2.117680   -0.000469
     19          8           0        4.750038    1.701125    0.000193
     20          1           0        4.396937    2.574605   -0.000512
 ---------------------------------------------------------------------

 The electronic state is 1-A.
 Alpha  occ. eigenvalues --  -91.99562 -91.99490 -91.98978 -20.60787 -11.31440
 Alpha  occ. eigenvalues --  -11.29800 -11.29718 -11.28206 -11.27854 -11.27710
 Alpha  occ. eigenvalues --  -11.26411 -11.26229 -11.25609 -11.25363  -8.99759
 Alpha  occ. eigenvalues --   -8.99671  -8.99203  -6.67926  -6.67847  -6.67838
 Alpha  occ. eigenvalues --   -6.67759  -6.67634  -6.67553  -6.67376  -6.67285
 Alpha  occ. eigenvalues --   -6.67083  -1.42672  -1.22387  -1.18750  -1.13321
 Alpha  occ. eigenvalues --   -1.03413  -1.02745  -0.99223  -0.96213  -0.95000
 Alpha  occ. eigenvalues --   -0.84437  -0.78979  -0.77894  -0.74710  -0.73281
 Alpha  occ. eigenvalues --   -0.71929  -0.67879  -0.66263  -0.61410  -0.60738
 Alpha  occ. eigenvalues --   -0.58295  -0.57530  -0.56212  -0.55018  -0.53207
 Alpha  occ. eigenvalues --   -0.53035  -0.52220  -0.50701  -0.48364  -0.47001
 Alpha  occ. eigenvalues --   -0.46350  -0.39894  -0.36215  -0.33782  -0.32495
 Alpha  occ. eigenvalues --   -0.28165
 Alpha virt. eigenvalues --    0.02804   0.03364   0.04437   0.04765   0.05090
 Alpha virt. eigenvalues --    0.05162   0.07516   0.08335   0.09131   0.09181
 Alpha virt. eigenvalues --    0.09675   0.10360   0.10879   0.11324   0.12108

 Mulliken charges:
               1
     1  C    0.207333
     2  C    0.642974
     3  C    0.384366
     4  C    0.067335
     5  S    0.487133
     6  H   -0.386837
     7  C   -0.391917
     8  S    0.518061
     9  C   -0.637808
    10  C    0.027897
    11  C    0.874778
    12  H   -0.532214
    13  S    0.510121
    14  C   -0.228784
    15  C    0.461340
    16  H   -0.381389
    17  H   -0.328619
    18  H   -0.564906
    19  O   -0.855369
    20  H    0.126503
 Sum of Mulliken charges =  -0.00000

 Dipole moment (field-independent basis, Debye):
    X=             -1.3341    Y=              1.6383    Z=             -0.0010  Tot=              2.1128
 Quadrupole moment (field-independent basis, Debye-Ang):
   XX=            -96.6311   YY=            -92.4569   ZZ=           -110.6133
   XY=              7.2921   XZ=             -0.0038   YZ=             -0.0047

 Normal termination of Gaussian 16 at Wed Oct 27 04:20:32 2021.
