 Gaussian 16, Revision C.01,
 Gaussian 16:  ES64L-G16RevC.01  3-Jul-2019

 ---------------------------------
 # opt=modredundant hf/aug-cc-pvdz
 ---------------------------------

 ---------------
 pg2T_TT_-65.pdb
 ---------------
 Symbolic Z-matrix:
 Charge =  0 Multiplicity = 1

 SCF Done:  E(RHF) =  -1649.42043546     A.U. after   18 cycles
 SCF Done:  E(RHF) =  -1649.50241972     A.U. after   15 cycles
 SCF Done:  E(RHF) =  -1649.60713948     A.U. after   15 cycles
 SCF Done:  E(RHF) =  -1649.62476395     A.U. after   15 cycles
 SCF Done:  E(RHF) =  -1649.63812678     A.U. after   15 cycles
 SCF Done:  E(RHF) =  -1649.63953586     A.U. after   15 cycles
 SCF Done:  E(RHF) =  -1649.64216550     A.U. after   14 cycles
 SCF Done:  E(RHF) =  -1649.64171081     A.U. after   15 cycles
 SCF Done:  E(RHF) =  -1649.64255931     A.U. after   14 cycles
 SCF Done:  E(RHF) =  -1649.64255280     A.U. after   13 cycles
 SCF Done:  E(RHF) =  -1649.64260791     A.U. after   12 cycles
 SCF Done:  E(RHF) =  -1649.64261838     A.U. after   11 cycles
 SCF Done:  E(RHF) =  -1649.64261882     A.U. after   10 cycles
 SCF Done:  E(RHF) =  -1649.64261946     A.U. after    9 cycles
 SCF Done:  E(RHF) =  -1649.64261948     A.U. after    9 cycles
 Optimization completed.
    -- Stationary point found.

                         Standard orientation:
 ---------------------------------------------------------------------
 Center     Atomic      Atomic             Coordinates (Angstroms)
 Number     Number       Type             X           Y           Z
 ---------------------------------------------------------------------
      1          6           0       -3.816571    0.304865    0.435264
      2          6           0       -2.454879    0.701510    0.665205
      3          6           0       -1.567397   -0.069928   -0.003850
      4          6           0       -3.929831   -0.755498   -0.389918
      5         16           0       -2.372861   -1.300001   -0.923685
      6          1           0       -4.834641   -1.239354   -0.711931
      7          6           0       -0.098066    0.023920    0.017049
      8         16           0        0.702277    1.450073   -0.625560
      9          6           0        2.258686    0.765381   -0.273418
     10          6           0        2.135215   -0.476395    0.278489
     11          6           0        0.779754   -0.911163    0.444295
     12          1           0        0.478248   -1.856441    0.864925
     13         16           0        3.691500   -1.162328    0.632374
     14          6           0        4.479837    0.266468    0.017008
     15          6           0        3.616721    1.203303   -0.427746
     16          1           0        5.555157    0.323188    0.021360
     17          1           0        3.918909    2.150563   -0.843477
     18          1           0       -2.164429    1.517000    1.311168
     19          8           0       -4.886119    0.915427    0.993957
     20          1           0       -4.619779    1.662953    1.501962
 ---------------------------------------------------------------------

 The electronic state is 1-A.
 Alpha  occ. eigenvalues --  -91.99539 -91.99377 -91.98970 -20.60706 -11.31346
 Alpha  occ. eigenvalues --  -11.29406 -11.29326 -11.28136 -11.27727 -11.27571
 Alpha  occ. eigenvalues --  -11.26305 -11.26132 -11.25618 -11.25462  -8.99697
 Alpha  occ. eigenvalues --   -8.99561  -8.99156  -6.67860  -6.67780  -6.67727
 Alpha  occ. eigenvalues --   -6.67648  -6.67570  -6.67442  -6.67322  -6.67232
 Alpha  occ. eigenvalues --   -6.67033  -1.42574  -1.22214  -1.18644  -1.13220
 Alpha  occ. eigenvalues --   -1.03030  -1.02680  -0.99127  -0.96030  -0.95041
 Alpha  occ. eigenvalues --   -0.84139  -0.78510  -0.77918  -0.74954  -0.72728
 Alpha  occ. eigenvalues --   -0.71962  -0.67490  -0.66157  -0.61099  -0.60621
 Alpha  occ. eigenvalues --   -0.58452  -0.57478  -0.56751  -0.54806  -0.54147
 Alpha  occ. eigenvalues --   -0.52598  -0.51059  -0.49681  -0.48489  -0.46768
 Alpha  occ. eigenvalues --   -0.46619  -0.39320  -0.35272  -0.33003  -0.32404
 Alpha  occ. eigenvalues --   -0.30045
 Alpha virt. eigenvalues --    0.03107   0.03379   0.04417   0.04743   0.04843
 Alpha virt. eigenvalues --    0.06373   0.07194   0.08215   0.08310   0.08829
 Alpha virt. eigenvalues --    0.09721   0.10022   0.10443   0.10895   0.11360

 Mulliken charges:
               1
     1  C    0.520270
     2  C    0.233802
     3  C    0.426802
     4  C    0.088166
     5  S    0.417661
     6  H   -0.350660
     7  C    0.394186
     8  S    0.401161
     9  C   -0.738670
    10  C   -0.255400
    11  C    0.150652
    12  H   -0.448694
    13  S    0.631592
    14  C   -0.086921
    15  C    0.568259
    16  H   -0.375864
    17  H   -0.319729
    18  H   -0.543524
    19  O   -0.845377
    20  H    0.132287
 Sum of Mulliken charges =  -0.00000

 Dipole moment (field-independent basis, Debye):
    X=              1.0926    Y=              1.4783    Z=              1.0603  Tot=              2.1221
 Quadrupole moment (field-independent basis, Debye-Ang):
   XX=            -96.5652   YY=            -97.6386   ZZ=           -105.3280
   XY=              0.7215   XZ=             -3.7794   YZ=              2.1026

 Normal termination of Gaussian 16 at Wed Oct 27 02:35:19 2021.
