 Gaussian 16, Revision C.01,
 Gaussian 16:  ES64L-G16RevC.01  3-Jul-2019

 ---------------------------------
 # opt=modredundant hf/aug-cc-pvdz
 ---------------------------------

 ---------------
 pg2T_TT_170.pdb
 ---------------
 Symbolic Z-matrix:
 Charge =  0 Multiplicity = 1

 SCF Done:  E(RHF) =  -1649.42109388     A.U. after   18 cycles
 SCF Done:  E(RHF) =  -1649.50255371     A.U. after   16 cycles
 SCF Done:  E(RHF) =  -1649.60667852     A.U. after   16 cycles
 SCF Done:  E(RHF) =  -1649.62381894     A.U. after   16 cycles
 SCF Done:  E(RHF) =  -1649.63669982     A.U. after   15 cycles
 SCF Done:  E(RHF) =  -1649.63814393     A.U. after   15 cycles
 SCF Done:  E(RHF) =  -1649.64075951     A.U. after   15 cycles
 SCF Done:  E(RHF) =  -1649.64054274     A.U. after   15 cycles
 SCF Done:  E(RHF) =  -1649.64114525     A.U. after   13 cycles
 SCF Done:  E(RHF) =  -1649.64117767     A.U. after   13 cycles
 SCF Done:  E(RHF) =  -1649.64119312     A.U. after   12 cycles
 SCF Done:  E(RHF) =  -1649.64120374     A.U. after   12 cycles
 SCF Done:  E(RHF) =  -1649.64120425     A.U. after   10 cycles
 Optimization completed.
    -- Stationary point found.

                         Standard orientation:
 ---------------------------------------------------------------------
 Center     Atomic      Atomic             Coordinates (Angstroms)
 Number     Number       Type             X           Y           Z
 ---------------------------------------------------------------------
      1          6           0        3.761594    0.774019   -0.043275
      2          6           0        2.366399    1.094992   -0.124162
      3          6           0        1.566538    0.003399   -0.022791
      4          6           0        3.998660   -0.543500    0.115947
      5         16           0        2.515077   -1.436603    0.185178
      6          1           0        4.950776   -1.036204    0.195380
      7          6           0        0.099622   -0.024030   -0.034102
      8         16           0       -0.780585   -1.542040   -0.153305
      9          6           0       -2.297271   -0.703975   -0.072349
     10          6           0       -2.109071    0.642830    0.035209
     11          6           0       -0.735872    1.039504    0.064937
     12          1           0       -0.399762    2.057422    0.169529
     13         16           0       -3.628305    1.482015    0.116603
     14          6           0       -4.489259   -0.030928   -0.001197
     15          6           0       -3.674828   -1.102805   -0.094860
     16          1           0       -5.565992   -0.031063    0.007071
     17          1           0       -4.024808   -2.118897   -0.175211
     18          1           0        1.998731    2.099271   -0.267951
     19          8           0        4.752503    1.690518   -0.122906
     20          1           0        4.402943    2.554353   -0.261322
 ---------------------------------------------------------------------

 The electronic state is 1-A.
 Alpha  occ. eigenvalues --  -91.99562 -91.99485 -91.98978 -20.60783 -11.31438
 Alpha  occ. eigenvalues --  -11.29774 -11.29691 -11.28203 -11.27849 -11.27705
 Alpha  occ. eigenvalues --  -11.26409 -11.26224 -11.25608 -11.25365  -8.99756
 Alpha  occ. eigenvalues --   -8.99666  -8.99200  -6.67923  -6.67844  -6.67833
 Alpha  occ. eigenvalues --   -6.67755  -6.67631  -6.67548  -6.67373  -6.67281
 Alpha  occ. eigenvalues --   -6.67079  -1.42662  -1.22380  -1.18744  -1.13317
 Alpha  occ. eigenvalues --   -1.03402  -1.02739  -0.99212  -0.96207  -0.95000
 Alpha  occ. eigenvalues --   -0.84425  -0.78961  -0.77883  -0.74693  -0.73259
 Alpha  occ. eigenvalues --   -0.71948  -0.67861  -0.66258  -0.61390  -0.60731
 Alpha  occ. eigenvalues --   -0.58293  -0.57531  -0.56219  -0.55014  -0.53296
 Alpha  occ. eigenvalues --   -0.53064  -0.52043  -0.50658  -0.48366  -0.47000
 Alpha  occ. eigenvalues --   -0.46380  -0.39846  -0.36174  -0.33733  -0.32532
 Alpha  occ. eigenvalues --   -0.28241
 Alpha virt. eigenvalues --    0.02819   0.03367   0.04446   0.04770   0.05022
 Alpha virt. eigenvalues --    0.05273   0.07326   0.08333   0.08721   0.09144
 Alpha virt. eigenvalues --    0.09887   0.10262   0.10870   0.11144   0.11958

 Mulliken charges:
               1
     1  C    0.294026
     2  C    0.564162
     3  C    0.351785
     4  C    0.054628
     5  S    0.510647
     6  H   -0.381759
     7  C   -0.164676
     8  S    0.490479
     9  C   -0.671512
    10  C   -0.020624
    11  C    0.715001
    12  H   -0.524716
    13  S    0.519361
    14  C   -0.186459
    15  C    0.443770
    16  H   -0.380574
    17  H   -0.324772
    18  H   -0.564515
    19  O   -0.853933
    20  H    0.129681
 Sum of Mulliken charges =  -0.00000

 Dipole moment (field-independent basis, Debye):
    X=             -1.3269    Y=              1.6212    Z=             -0.2301  Tot=              2.1076
 Quadrupole moment (field-independent basis, Debye-Ang):
   XX=            -96.6080   YY=            -92.7199   ZZ=           -110.3626
   XY=              7.2657   XZ=             -0.3043   YZ=             -0.7922

 Normal termination of Gaussian 16 at Wed Oct 27 04:17:26 2021.
