 Gaussian 16, Revision C.01,
 Gaussian 16:  ES64L-G16RevC.01  3-Jul-2019

 ---------------------------------
 # opt=modredundant hf/aug-cc-pvdz
 ---------------------------------

 ---------------
 pg2T_TT_145.pdb
 ---------------
 Symbolic Z-matrix:
 Charge =  0 Multiplicity = 1

 SCF Done:  E(RHF) =  -1649.42184502     A.U. after   18 cycles
 SCF Done:  E(RHF) =  -1649.50351847     A.U. after   16 cycles
 SCF Done:  E(RHF) =  -1649.60792373     A.U. after   16 cycles
 SCF Done:  E(RHF) =  -1649.62527801     A.U. after   16 cycles
 SCF Done:  E(RHF) =  -1649.63828828     A.U. after   15 cycles
 SCF Done:  E(RHF) =  -1649.63970733     A.U. after   15 cycles
 SCF Done:  E(RHF) =  -1649.64233883     A.U. after   15 cycles
 SCF Done:  E(RHF) =  -1649.64209223     A.U. after   15 cycles
 SCF Done:  E(RHF) =  -1649.64271838     A.U. after   13 cycles
 SCF Done:  E(RHF) =  -1649.64273965     A.U. after   13 cycles
 SCF Done:  E(RHF) =  -1649.64277468     A.U. after   12 cycles
 SCF Done:  E(RHF) =  -1649.64278491     A.U. after   11 cycles
 SCF Done:  E(RHF) =  -1649.64278563     A.U. after   10 cycles
 Optimization completed.
    -- Stationary point found.

                         Standard orientation:
 ---------------------------------------------------------------------
 Center     Atomic      Atomic             Coordinates (Angstroms)
 Number     Number       Type             X           Y           Z
 ---------------------------------------------------------------------
      1          6           0        3.762597    0.736410   -0.163552
      2          6           0        2.369318    1.029524   -0.348280
      3          6           0        1.565635   -0.003490    0.002804
      4          6           0        3.987884   -0.505098    0.310815
      5         16           0        2.498222   -1.354291    0.569717
      6          1           0        4.936875   -0.965203    0.520010
      7          6           0        0.099707   -0.027384   -0.025201
      8         16           0       -0.773965   -1.495700   -0.438456
      9          6           0       -2.292601   -0.681515   -0.226716
     10          6           0       -2.106980    0.623190    0.126428
     11          6           0       -0.732955    1.003722    0.253799
     12          1           0       -0.388966    1.977071    0.562211
     13         16           0       -3.627360    1.436147    0.340089
     14          6           0       -4.486018   -0.027994   -0.062654
     15          6           0       -3.670101   -1.066483   -0.339269
     16          1           0       -5.562783   -0.027345   -0.069211
     17          1           0       -4.018698   -2.050262   -0.607768
     18          1           0        2.000701    1.960370   -0.751726
     19          8           0        4.760593    1.604297   -0.445441
     20          1           0        4.418871    2.407208   -0.800627
 ---------------------------------------------------------------------

 The electronic state is 1-A.
 Alpha  occ. eigenvalues --  -91.99554 -91.99451 -91.98963 -20.60769 -11.31411
 Alpha  occ. eigenvalues --  -11.29603 -11.29519 -11.28174 -11.27798 -11.27654
 Alpha  occ. eigenvalues --  -11.26380 -11.26182 -11.25615 -11.25418  -8.99729
 Alpha  occ. eigenvalues --   -8.99633  -8.99167  -6.67893  -6.67813  -6.67800
 Alpha  occ. eigenvalues --   -6.67722  -6.67602  -6.67515  -6.67336  -6.67245
 Alpha  occ. eigenvalues --   -6.67045  -1.42638  -1.22315  -1.18701  -1.13280
 Alpha  occ. eigenvalues --   -1.03311  -1.02686  -0.99125  -0.96179  -0.95001
 Alpha  occ. eigenvalues --   -0.84330  -0.78840  -0.77822  -0.74627  -0.73088
 Alpha  occ. eigenvalues --   -0.72086  -0.67740  -0.66228  -0.61278  -0.60691
 Alpha  occ. eigenvalues --   -0.58275  -0.57509  -0.56321  -0.54985  -0.53819
 Alpha  occ. eigenvalues --   -0.52884  -0.51358  -0.50306  -0.48401  -0.46968
 Alpha  occ. eigenvalues --   -0.46548  -0.39539  -0.35851  -0.33382  -0.32695
 Alpha  occ. eigenvalues --   -0.28864
 Alpha virt. eigenvalues --    0.02893   0.03375   0.04488   0.04781   0.04899
 Alpha virt. eigenvalues --    0.05723   0.06965   0.08281   0.08319   0.09230
 Alpha virt. eigenvalues --    0.09682   0.10201   0.10713   0.11037   0.11648

 Mulliken charges:
               1
     1  C    0.418367
     2  C    0.265576
     3  C    0.467636
     4  C    0.081295
     5  S    0.510148
     6  H   -0.359422
     7  C    0.177942
     8  S    0.437920
     9  C   -0.731231
    10  C   -0.109678
    11  C    0.270215
    12  H   -0.454338
    13  S    0.585042
    14  C   -0.092020
    15  C    0.497980
    16  H   -0.379639
    17  H   -0.319066
    18  H   -0.553836
    19  O   -0.845568
    20  H    0.132677
 Sum of Mulliken charges =  -0.00000

 Dipole moment (field-independent basis, Debye):
    X=             -1.2801    Y=              1.5192    Z=             -0.6810  Tot=              2.1001
 Quadrupole moment (field-independent basis, Debye-Ang):
   XX=            -96.6537   YY=            -94.5619   ZZ=           -108.5216
   XY=              6.9521   XZ=             -0.1917   YZ=             -1.6620

 Normal termination of Gaussian 16 at Wed Oct 27 04:25:14 2021.
