 Gaussian 16, Revision C.01,
 Gaussian 16:  ES64L-G16RevC.01  3-Jul-2019

 ---------------------------------
 # opt=modredundant hf/aug-cc-pvdz
 ---------------------------------

 ---------------
 pg2T_TT_135.pdb
 ---------------
 Symbolic Z-matrix:
 Charge =  0 Multiplicity = 1

 SCF Done:  E(RHF) =  -1649.42185895     A.U. after   18 cycles
 SCF Done:  E(RHF) =  -1649.50355922     A.U. after   15 cycles
 SCF Done:  E(RHF) =  -1649.60797031     A.U. after   16 cycles
 SCF Done:  E(RHF) =  -1649.62538674     A.U. after   16 cycles
 SCF Done:  E(RHF) =  -1649.63845246     A.U. after   15 cycles
 SCF Done:  E(RHF) =  -1649.63986427     A.U. after   15 cycles
 SCF Done:  E(RHF) =  -1649.64249134     A.U. after   15 cycles
 SCF Done:  E(RHF) =  -1649.64220102     A.U. after   15 cycles
 SCF Done:  E(RHF) =  -1649.64287076     A.U. after   13 cycles
 SCF Done:  E(RHF) =  -1649.64288586     A.U. after   12 cycles
 SCF Done:  E(RHF) =  -1649.64292742     A.U. after   12 cycles
 SCF Done:  E(RHF) =  -1649.64293705     A.U. after   11 cycles
 SCF Done:  E(RHF) =  -1649.64293774     A.U. after   10 cycles
 Optimization completed.
    -- Stationary point found.

                         Standard orientation:
 ---------------------------------------------------------------------
 Center     Atomic      Atomic             Coordinates (Angstroms)
 Number     Number       Type             X           Y           Z
 ---------------------------------------------------------------------
      1          6           0        3.762698    0.714384   -0.214304
      2          6           0        2.368351    0.993782   -0.416653
      3          6           0        1.565522   -0.000548    0.031341
      4          6           0        3.987355   -0.481692    0.365171
      5         16           0        2.497426   -1.302072    0.704313
      6          1           0        4.936801   -0.923115    0.609929
      7          6           0        0.098597   -0.029015   -0.000723
      8         16           0       -0.765840   -1.467001   -0.524610
      9          6           0       -2.288721   -0.669510   -0.279798
     10          6           0       -2.110288    0.608975    0.161852
     11          6           0       -0.738008    0.981749    0.331725
     12          1           0       -0.396880    1.934226    0.702469
     13         16           0       -3.634717    1.404480    0.409365
     14          6           0       -4.485415   -0.030439   -0.100679
     15          6           0       -3.664212   -1.047522   -0.434952
     16          1           0       -5.562015   -0.030382   -0.121192
     17          1           0       -4.007603   -2.011669   -0.772512
     18          1           0        1.996633    1.886099   -0.897080
     19          8           0        4.761124    1.551738   -0.576255
     20          1           0        4.418868    2.323424   -0.994551
 ---------------------------------------------------------------------

 The electronic state is 1-A.
 Alpha  occ. eigenvalues --  -91.99535 -91.99433 -91.98945 -20.60759 -11.31389
 Alpha  occ. eigenvalues --  -11.29535 -11.29452 -11.28161 -11.27771 -11.27624
 Alpha  occ. eigenvalues --  -11.26367 -11.26162 -11.25627 -11.25454  -8.99703
 Alpha  occ. eigenvalues --   -8.99616  -8.99143  -6.67866  -6.67786  -6.67782
 Alpha  occ. eigenvalues --   -6.67704  -6.67576  -6.67497  -6.67312  -6.67222
 Alpha  occ. eigenvalues --   -6.67021  -1.42622  -1.22279  -1.18678  -1.13258
 Alpha  occ. eigenvalues --   -1.03258  -1.02655  -0.99085  -0.96171  -0.94996
 Alpha  occ. eigenvalues --   -0.84274  -0.78780  -0.77802  -0.74623  -0.72991
 Alpha  occ. eigenvalues --   -0.72157  -0.67688  -0.66213  -0.61238  -0.60667
 Alpha  occ. eigenvalues --   -0.58264  -0.57491  -0.56390  -0.54972  -0.53960
 Alpha  occ. eigenvalues --   -0.52789  -0.51188  -0.50108  -0.48438  -0.46922
 Alpha  occ. eigenvalues --   -0.46591  -0.39423  -0.35680  -0.33218  -0.32700
 Alpha  occ. eigenvalues --   -0.29212
 Alpha virt. eigenvalues --    0.02924   0.03377   0.04505   0.04776   0.04849
 Alpha virt. eigenvalues --    0.05863   0.07126   0.08253   0.08279   0.09260
 Alpha virt. eigenvalues --    0.09485   0.10267   0.10681   0.10950   0.11542

 Mulliken charges:
               1
     1  C    0.452459
     2  C    0.221263
     3  C    0.485393
     4  C    0.081948
     5  S    0.485972
     6  H   -0.353717
     7  C    0.269489
     8  S    0.416005
     9  C   -0.768298
    10  C   -0.108411
    11  C    0.157375
    12  H   -0.440955
    13  S    0.605722
    14  C   -0.072916
    15  C    0.529555
    16  H   -0.379312
    17  H   -0.318860
    18  H   -0.550166
    19  O   -0.844686
    20  H    0.132139
 Sum of Mulliken charges =  -0.00000

 Dipole moment (field-independent basis, Debye):
    X=             -1.2606    Y=              1.4708    Z=             -0.8397  Tot=              2.1113
 Quadrupole moment (field-independent basis, Debye-Ang):
   XX=            -96.7568   YY=            -95.5162   ZZ=           -107.5271
   XY=              6.7252   XZ=             -0.0109   YZ=             -1.7756

 Normal termination of Gaussian 16 at Wed Oct 27 04:20:00 2021.
