 Gaussian 16, Revision C.01,
 Gaussian 16:  ES64L-G16RevC.01  3-Jul-2019

 ---------------------------------
 # opt=modredundant hf/aug-cc-pvdz
 ---------------------------------

 ---------------
 pg2T_TT_160.pdb
 ---------------
 Symbolic Z-matrix:
 Charge =  0 Multiplicity = 1

 SCF Done:  E(RHF) =  -1649.42157621     A.U. after   18 cycles
 SCF Done:  E(RHF) =  -1649.50308278     A.U. after   16 cycles
 SCF Done:  E(RHF) =  -1649.60726652     A.U. after   16 cycles
 SCF Done:  E(RHF) =  -1649.62447368     A.U. after   16 cycles
 SCF Done:  E(RHF) =  -1649.63738875     A.U. after   15 cycles
 SCF Done:  E(RHF) =  -1649.63883334     A.U. after   15 cycles
 SCF Done:  E(RHF) =  -1649.64146021     A.U. after   15 cycles
 SCF Done:  E(RHF) =  -1649.64124855     A.U. after   15 cycles
 SCF Done:  E(RHF) =  -1649.64184276     A.U. after   13 cycles
 SCF Done:  E(RHF) =  -1649.64187309     A.U. after   13 cycles
 SCF Done:  E(RHF) =  -1649.64189488     A.U. after   12 cycles
 SCF Done:  E(RHF) =  -1649.64190586     A.U. after   12 cycles
 SCF Done:  E(RHF) =  -1649.64190649     A.U. after   10 cycles
 Optimization completed.
    -- Stationary point found.

                         Standard orientation:
 ---------------------------------------------------------------------
 Center     Atomic      Atomic             Coordinates (Angstroms)
 Number     Number       Type             X           Y           Z
 ---------------------------------------------------------------------
      1          6           0        3.762089    0.761777   -0.089491
      2          6           0        2.368733    1.073334   -0.229005
      3          6           0        1.566185   -0.001265   -0.026579
      4          6           0        3.992600   -0.532012    0.211102
      5         16           0        2.505722   -1.411857    0.352784
      6          1           0        4.942568   -1.014380    0.354818
      7          6           0        0.100123   -0.024986   -0.046846
      8         16           0       -0.780208   -1.528383   -0.284965
      9          6           0       -2.296168   -0.696656   -0.138971
     10          6           0       -2.106581    0.637878    0.071295
     11          6           0       -0.732342    1.029060    0.136055
     12          1           0       -0.390940    2.031526    0.333367
     13         16           0       -3.624737    1.469852    0.218106
     14          6           0       -4.487491   -0.028441   -0.015423
     15          6           0       -3.674374   -1.090825   -0.191701
     16          1           0       -5.564229   -0.027950   -0.006975
     17          1           0       -4.025616   -2.097329   -0.349775
     18          1           0        2.002496    2.053047   -0.495179
     19          8           0        4.756789    1.663512   -0.250061
     20          1           0        4.412329    2.506018   -0.493183
 ---------------------------------------------------------------------

 The electronic state is 1-A.
 Alpha  occ. eigenvalues --  -91.99563 -91.99474 -91.98976 -20.60779 -11.31432
 Alpha  occ. eigenvalues --  -11.29711 -11.29627 -11.28194 -11.27834 -11.27690
 Alpha  occ. eigenvalues --  -11.26401 -11.26210 -11.25606 -11.25377  -8.99750
 Alpha  occ. eigenvalues --   -8.99656  -8.99191  -6.67916  -6.67836  -6.67823
 Alpha  occ. eigenvalues --   -6.67745  -6.67624  -6.67538  -6.67362  -6.67271
 Alpha  occ. eigenvalues --   -6.67069  -1.42654  -1.22361  -1.18729  -1.13306
 Alpha  occ. eigenvalues --   -1.03374  -1.02723  -0.99181  -0.96194  -0.95002
 Alpha  occ. eigenvalues --   -0.84396  -0.78920  -0.77860  -0.74661  -0.73205
 Alpha  occ. eigenvalues --   -0.71992  -0.67818  -0.66247  -0.61346  -0.60719
 Alpha  occ. eigenvalues --   -0.58288  -0.57528  -0.56245  -0.55005  -0.53524
 Alpha  occ. eigenvalues --   -0.53012  -0.51736  -0.50549  -0.48372  -0.46995
 Alpha  occ. eigenvalues --   -0.46450  -0.39733  -0.36070  -0.33611  -0.32610
 Alpha  occ. eigenvalues --   -0.28438
 Alpha virt. eigenvalues --    0.02846   0.03372   0.04462   0.04776   0.04968
 Alpha virt. eigenvalues --    0.05446   0.07030   0.08319   0.08441   0.09169
 Alpha virt. eigenvalues --    0.10028   0.10068   0.10782   0.11086   0.11795

 Mulliken charges:
               1
     1  C    0.362986
     2  C    0.407529
     3  C    0.402635
     4  C    0.064037
     5  S    0.526201
     6  H   -0.372435
     7  C    0.012981
     8  S    0.467302
     9  C   -0.692128
    10  C   -0.074735
    11  C    0.507248
    12  H   -0.493147
    13  S    0.545380
    14  C   -0.140570
    15  C    0.456305
    16  H   -0.379723
    17  H   -0.321103
    18  H   -0.560968
    19  O   -0.850413
    20  H    0.132618
 Sum of Mulliken charges =  -0.00000

 Dipole moment (field-independent basis, Debye):
    X=             -1.3101    Y=              1.5843    Z=             -0.4255  Tot=              2.0994
 Quadrupole moment (field-independent basis, Debye-Ang):
   XX=            -96.5875   YY=            -93.3429   ZZ=           -109.7568
   XY=              7.1876   XZ=             -0.3780   YZ=             -1.3082

 Normal termination of Gaussian 16 at Wed Oct 27 04:18:28 2021.
