 Gaussian 16, Revision C.01,
 Gaussian 16:  ES64L-G16RevC.01  3-Jul-2019

 ---------------------------------
 # opt=modredundant hf/aug-cc-pvdz
 ---------------------------------

 --------------
 pg2T_TT_-5.pdb
 --------------
 Symbolic Z-matrix:
 Charge =  0 Multiplicity = 1

 SCF Done:  E(RHF) =  -1649.42327374     A.U. after   19 cycles
 SCF Done:  E(RHF) =  -1649.50484294     A.U. after   16 cycles
 SCF Done:  E(RHF) =  -1649.60911659     A.U. after   16 cycles
 SCF Done:  E(RHF) =  -1649.62621134     A.U. after   16 cycles
 SCF Done:  E(RHF) =  -1649.63929237     A.U. after   15 cycles
 SCF Done:  E(RHF) =  -1649.64070066     A.U. after   15 cycles
 SCF Done:  E(RHF) =  -1649.64331420     A.U. after   15 cycles
 SCF Done:  E(RHF) =  -1649.64343907     A.U. after   15 cycles
 SCF Done:  E(RHF) =  -1649.64353871     A.U. after   13 cycles
 SCF Done:  E(RHF) =  -1649.64370875     A.U. after   13 cycles
 SCF Done:  E(RHF) =  -1649.64370653     A.U. after   12 cycles
 SCF Done:  E(RHF) =  -1649.64371080     A.U. after   11 cycles
 SCF Done:  E(RHF) =  -1649.64371585     A.U. after   11 cycles
 SCF Done:  E(RHF) =  -1649.64371588     A.U. after    8 cycles
 SCF Done:  E(RHF) =  -1649.64371590     A.U. after    8 cycles
 Optimization completed.
    -- Stationary point found.

                         Standard orientation:
 ---------------------------------------------------------------------
 Center     Atomic      Atomic             Coordinates (Angstroms)
 Number     Number       Type             X           Y           Z
 ---------------------------------------------------------------------
      1          6           0       -3.827205    0.413236    0.038993
      2          6           0       -2.471954    0.888925    0.055667
      3          6           0       -1.560425   -0.112312    0.001428
      4          6           0       -3.920671   -0.928483   -0.028151
      5         16           0       -2.347330   -1.661270   -0.078297
      6          1           0       -4.814385   -1.525508   -0.051848
      7          6           0       -0.100877    0.002333   -0.003345
      8         16           0        0.665541    1.586207   -0.065720
      9          6           0        2.241281    0.856235   -0.027192
     10          6           0        2.150865   -0.503268    0.025997
     11          6           0        0.808783   -1.000326    0.041282
     12          1           0        0.545744   -2.044384    0.088291
     13         16           0        3.726066   -1.233612    0.062302
     14          6           0        4.475647    0.339703    0.003466
     15          6           0        3.585874    1.353899   -0.040724
     16          1           0        5.549654    0.416738    0.005324
     17          1           0        3.861703    2.394915   -0.080771
     18          1           0       -2.213131    1.935811    0.112439
     19          8           0       -4.909226    1.221794    0.087352
     20          1           0       -4.652128    2.127215    0.130673
 ---------------------------------------------------------------------

 The electronic state is 1-A.
 Alpha  occ. eigenvalues --  -91.99617 -91.99515 -91.98903 -20.60765 -11.31444
 Alpha  occ. eigenvalues --  -11.29746 -11.29666 -11.28250 -11.27923 -11.27754
 Alpha  occ. eigenvalues --  -11.26437 -11.26268 -11.25657 -11.25446  -8.99815
 Alpha  occ. eigenvalues --   -8.99696  -8.99123  -6.67985  -6.67907  -6.67861
 Alpha  occ. eigenvalues --   -6.67783  -6.67693  -6.67577  -6.67299  -6.67207
 Alpha  occ. eigenvalues --   -6.67003  -1.42659  -1.22421  -1.18738  -1.13349
 Alpha  occ. eigenvalues --   -1.03243  -1.02988  -0.99336  -0.95993  -0.95151
 Alpha  occ. eigenvalues --   -0.84477  -0.78779  -0.78106  -0.75295  -0.73073
 Alpha  occ. eigenvalues --   -0.71464  -0.67608  -0.66289  -0.61333  -0.60725
 Alpha  occ. eigenvalues --   -0.58628  -0.57556  -0.56801  -0.54789  -0.53320
 Alpha  occ. eigenvalues --   -0.53145  -0.52193  -0.50529  -0.48009  -0.47062
 Alpha  occ. eigenvalues --   -0.46602  -0.39730  -0.36413  -0.33625  -0.32771
 Alpha  occ. eigenvalues --   -0.28233
 Alpha virt. eigenvalues --    0.03121   0.03332   0.04307   0.04707   0.04985
 Alpha virt. eigenvalues --    0.05235   0.06723   0.08282   0.08971   0.09340
 Alpha virt. eigenvalues --    0.10255   0.10521   0.10866   0.11266   0.11760

 Mulliken charges:
               1
     1  C    0.370290
     2  C    0.199372
     3  C    0.636654
     4  C    0.092602
     5  S    0.525926
     6  H   -0.405661
     7  C    0.184274
     8  S    0.581609
     9  C   -0.659609
    10  C   -0.120015
    11  C    0.362307
    12  H   -0.508553
    13  S    0.527453
    14  C   -0.184200
    15  C    0.412837
    16  H   -0.382756
    17  H   -0.334082
    18  H   -0.582953
    19  O   -0.851546
    20  H    0.136053
 Sum of Mulliken charges =  -0.00000

 Dipole moment (field-independent basis, Debye):
    X=              1.1933    Y=              1.8221    Z=              0.1034  Tot=              2.1805
 Quadrupole moment (field-independent basis, Debye-Ang):
   XX=            -96.1272   YY=            -92.7093   ZZ=           -110.6159
   XY=              0.0927   XZ=             -0.3424   YZ=              0.2133

 Normal termination of Gaussian 16 at Wed Oct 27 02:59:46 2021.
