 Gaussian 16, Revision C.01,
 Gaussian 16:  ES64L-G16RevC.01  3-Jul-2019

 ---------------------------------
 # opt=modredundant hf/aug-cc-pvdz
 ---------------------------------

 ---------------
 pg2T_TT_105.pdb
 ---------------
 Symbolic Z-matrix:
 Charge =  0 Multiplicity = 1

 SCF Done:  E(RHF) =  -1649.41960243     A.U. after   18 cycles
 SCF Done:  E(RHF) =  -1649.50159941     A.U. after   15 cycles
 SCF Done:  E(RHF) =  -1649.60630819     A.U. after   15 cycles
 SCF Done:  E(RHF) =  -1649.62385995     A.U. after   15 cycles
 SCF Done:  E(RHF) =  -1649.63720436     A.U. after   15 cycles
 SCF Done:  E(RHF) =  -1649.63863157     A.U. after   15 cycles
 SCF Done:  E(RHF) =  -1649.64130052     A.U. after   14 cycles
 SCF Done:  E(RHF) =  -1649.64085179     A.U. after   15 cycles
 SCF Done:  E(RHF) =  -1649.64170399     A.U. after   13 cycles
 SCF Done:  E(RHF) =  -1649.64170299     A.U. after   12 cycles
 SCF Done:  E(RHF) =  -1649.64175311     A.U. after   12 cycles
 SCF Done:  E(RHF) =  -1649.64176385     A.U. after   11 cycles
 SCF Done:  E(RHF) =  -1649.64176444     A.U. after    9 cycles
 SCF Done:  E(RHF) =  -1649.64176474     A.U. after    9 cycles
 SCF Done:  E(RHF) =  -1649.64176477     A.U. after    8 cycles
 Optimization completed.
    -- Stationary point found.

                         Standard orientation:
 ---------------------------------------------------------------------
 Center     Atomic      Atomic             Coordinates (Angstroms)
 Number     Number       Type             X           Y           Z
 ---------------------------------------------------------------------
      1          6           0        3.776442    0.571715   -0.384868
      2          6           0        2.386218    0.780536   -0.684752
      3          6           0        1.567581    0.023058    0.079542
      4          6           0        3.978330   -0.342538    0.584676
      5         16           0        2.474697   -0.974867    1.172377
      6          1           0        4.920051   -0.673809    0.984678
      7          6           0        0.094772   -0.020222    0.026009
      8         16           0       -0.736120   -1.383743   -0.708816
      9          6           0       -2.275579   -0.644006   -0.395558
     10          6           0       -2.125809    0.562838    0.222603
     11          6           0       -0.761301    0.926505    0.469327
     12          1           0       -0.437689    1.832334    0.955259
     13         16           0       -3.666242    1.302134    0.536647
     14          6           0       -4.484659   -0.057659   -0.186383
     15          6           0       -3.642312   -1.010864   -0.636001
     16          1           0       -5.560410   -0.066038   -0.233672
     17          1           0       -3.964603   -1.923095   -1.110752
     18          1           0        2.026123    1.460249   -1.442835
     19          8           0        4.789537    1.217366   -1.006568
     20          1           0        4.460781    1.798858   -1.671045
 ---------------------------------------------------------------------

 The electronic state is 1-A.
 Alpha  occ. eigenvalues --  -91.99445 -91.99387 -91.98877 -20.60712 -11.31302
 Alpha  occ. eigenvalues --  -11.29354 -11.29274 -11.28138 -11.27709 -11.27534
 Alpha  occ. eigenvalues --  -11.26358 -11.26117 -11.25641 -11.25529  -8.99601
 Alpha  occ. eigenvalues --   -8.99569  -8.99064  -6.67764  -6.67735  -6.67683
 Alpha  occ. eigenvalues --   -6.67657  -6.67473  -6.67450  -6.67231  -6.67141
 Alpha  occ. eigenvalues --   -6.66941  -1.42564  -1.22178  -1.18599  -1.13196
 Alpha  occ. eigenvalues --   -1.03079  -1.02571  -0.98984  -0.96139  -0.94977
 Alpha  occ. eigenvalues --   -0.84085  -0.78577  -0.77791  -0.74703  -0.72598
 Alpha  occ. eigenvalues --   -0.72384  -0.67552  -0.66150  -0.61121  -0.60604
 Alpha  occ. eigenvalues --   -0.58248  -0.57467  -0.56607  -0.54915  -0.54193
 Alpha  occ. eigenvalues --   -0.52521  -0.50948  -0.49492  -0.48648  -0.46676
 Alpha  occ. eigenvalues --   -0.46634  -0.39204  -0.35134  -0.32623  -0.32413
 Alpha  occ. eigenvalues --   -0.30544
 Alpha virt. eigenvalues --    0.03014   0.03383   0.04559   0.04660   0.04783
 Alpha virt. eigenvalues --    0.06109   0.07956   0.08118   0.08234   0.08813
 Alpha virt. eigenvalues --    0.09443   0.10047   0.10384   0.10761   0.11438

 Mulliken charges:
               1
     1  C    0.559458
     2  C    0.175867
     3  C    0.418279
     4  C    0.055051
     5  S    0.437040
     6  H   -0.345210
     7  C    0.367414
     8  S    0.413488
     9  C   -0.776297
    10  C   -0.206689
    11  C    0.080996
    12  H   -0.421615
    13  S    0.645778
    14  C   -0.069407
    15  C    0.611396
    16  H   -0.376471
    17  H   -0.322941
    18  H   -0.528500
    19  O   -0.848038
    20  H    0.130398
 Sum of Mulliken charges =  -0.00000

 Dipole moment (field-independent basis, Debye):
    X=             -1.1973    Y=              1.1497    Z=             -1.3715  Tot=              2.1532
 Quadrupole moment (field-independent basis, Debye-Ang):
   XX=            -96.9964   YY=            -99.6416   ZZ=           -103.2448
   XY=              5.8630   XZ=             -0.2676   YZ=             -2.0131

 Normal termination of Gaussian 16 at Wed Oct 27 03:56:52 2021.
