 Gaussian 16, Revision A.03,
 Gaussian 16:  ES64L-G16RevA.03 25-Dec-2016

 -------------------------------
 # b3lyp/6-311+g(d,p) pop=ChelpG
 -------------------------------

 -------------------
 Title Card Required
 -------------------
 Symbolic Z-matrix:
 Charge =  0 Multiplicity = 1

                         Standard orientation:
 ---------------------------------------------------------------------
 Center     Atomic      Atomic             Coordinates (Angstroms)
 Number     Number       Type             X           Y           Z
 ---------------------------------------------------------------------
      1          6           0       -0.683109   -0.241546    0.012509
      2          6           0       -1.766428    0.553099   -0.230703
      3          6           0       -2.993453   -0.165445   -0.296977
      4          6           0       -2.849085   -1.508385   -0.105636
      5         16           0       -1.196293   -1.888754    0.378206
      6          8           0       -1.694463    1.917306   -0.288701
      7          1           0       -3.937269    0.302299   -0.491157
      8          6           0        0.780943    0.233623   -0.032802
      9          6           0        1.864088   -0.559352    0.209984
     10          6           0        3.091716    0.158288    0.277163
     11          6           0        2.947348    1.501228    0.085822
     12         16           0        1.294127    1.880831   -0.398499
     13          8           0        1.682519   -1.910585    0.314238
     14          1           0        4.034929   -0.308552    0.470437
     15          6           0       -1.756634    3.003190    0.541018
     16          1           0       -0.978028    2.885521    1.265664
     17          1           0       -2.707896    2.967311    1.030061
     18          1           0       -1.646183    3.945657    0.047250
     19          6           0        1.346812   -2.976169   -0.473008
     20          1           0        1.319923   -3.915093    0.040405
     21          1           0        0.383179   -2.767724   -0.886399
     22          1           0        2.070291   -3.022128   -1.259848
     23          1           0        3.726269    2.224385    0.214600
     24          1           0       -3.628180   -2.229872   -0.234841
 ---------------------------------------------------------------------

 SCF Done:  E(RB3LYP) =  -1333.96890192     A.U. after   16 cycles

 The electronic state is 1-A.
 Alpha  occ. eigenvalues --  -88.88201 -88.88024 -19.13604 -19.13464 -10.24342
 Alpha  occ. eigenvalues --  -10.24263 -10.22038 -10.21965 -10.21625 -10.21260
 Alpha  occ. eigenvalues --  -10.20489 -10.20464 -10.18097 -10.17938  -7.96765
 Alpha  occ. eigenvalues --   -7.96514  -5.93079  -5.92833  -5.92711  -5.92469
 Alpha  occ. eigenvalues --   -5.92301  -5.92057  -1.06781  -1.06575  -0.89163
 Alpha  occ. eigenvalues --   -0.87830  -0.77101  -0.76634  -0.76032  -0.72327
 Alpha  occ. eigenvalues --   -0.68826  -0.68006  -0.60048  -0.59071  -0.55772
 Alpha  occ. eigenvalues --   -0.55240  -0.53885  -0.48825  -0.47980  -0.47815
 Alpha  occ. eigenvalues --   -0.47529  -0.47105  -0.45232  -0.44962  -0.42569
 Alpha  occ. eigenvalues --   -0.40694  -0.40361  -0.39543  -0.38191  -0.35554
 Alpha  occ. eigenvalues --   -0.34899  -0.33136  -0.32758  -0.28383  -0.27952
 Alpha  occ. eigenvalues --   -0.27436  -0.24584  -0.23839  -0.20210
 Alpha virt. eigenvalues --   -0.05433  -0.00655  -0.00300   0.00253   0.00819
 Alpha virt. eigenvalues --    0.01247   0.01724   0.02515   0.03228   0.03264
 Alpha virt. eigenvalues --    0.03843   0.04566   0.04657   0.05129   0.05390

 Mulliken charges:
               1
     1  C    0.422413
     2  C    0.008313
     3  C   -0.147437
     4  C   -0.198489
     5  S   -0.487853
     6  O   -0.210005
     7  H    0.127620
     8  C    0.391024
     9  C    0.283536
    10  C   -0.215893
    11  C   -0.159976
    12  S   -0.448803
    13  O   -0.209432
    14  H    0.129259
    15  C   -0.219839
    16  H    0.143670
    17  H    0.124533
    18  H    0.156325
    19  C   -0.216641
    20  H    0.151690
    21  H    0.129462
    22  H    0.127122
    23  H    0.160444
    24  H    0.158957
 Sum of Mulliken charges =  -0.00000

 Dipole moment (field-independent basis, Debye):
    X=             -0.4296    Y=              0.0174    Z=              0.0501  Tot=              0.4329
 Quadrupole moment (field-independent basis, Debye-Ang):
   XX=            -85.3130   YY=            -85.5532   ZZ=           -102.1176
   XY=              1.4771   XZ=             -0.8932   YZ=              4.4136

 ESP charges:
               1
     1  C   -0.069435
     2  C    0.415214
     3  C   -0.265089
     4  C   -0.200667
     5  S    0.031706
     6  O   -0.490052
     7  H    0.152542
     8  C   -0.085295
     9  C    0.437054
    10  C   -0.260013
    11  C   -0.198156
    12  S    0.008596
    13  O   -0.509985
    14  H    0.147127
    15  C    0.407886
    16  H   -0.077992
    17  H   -0.038477
    18  H   -0.022263
    19  C    0.407717
    20  H   -0.014449
    21  H   -0.081739
    22  H   -0.048227
    23  H    0.178729
    24  H    0.175269
 Sum of ESP charges =   0.00000

 Normal termination of Gaussian 16 at Fri Jan 24 17:23:47 2020.
