 Gaussian 16, Revision A.03,
 Gaussian 16:  ES64L-G16RevA.03 25-Dec-2016

 -------------------------------------------------------
 # opt=modredundant b3lyp/6-311+g(d,p) geom=connectivity
 -------------------------------------------------------

 -------------------
 Title Card Required
 -------------------
 Symbolic Z-matrix:
 Charge =  0 Multiplicity = 1

 SCF Done:  E(RB3LYP) =  -1334.05172732     A.U. after   14 cycles
 Optimization completed.
    -- Stationary point found.
 SCF Done:  E(RB3LYP) =  -1334.05172383     A.U. after    9 cycles
 SCF Done:  E(RB3LYP) =  -1334.05172414     A.U. after    9 cycles
 Optimization completed.
 SCF Done:  E(RB3LYP) =  -1334.05171268     A.U. after    9 cycles
 SCF Done:  E(RB3LYP) =  -1334.05171296     A.U. after    8 cycles
 SCF Done:  E(RB3LYP) =  -1334.05169394     A.U. after    9 cycles
 SCF Done:  E(RB3LYP) =  -1334.05169422     A.U. after    8 cycles
 SCF Done:  E(RB3LYP) =  -1334.05166772     A.U. after    9 cycles
 SCF Done:  E(RB3LYP) =  -1334.05166800     A.U. after    9 cycles
 SCF Done:  E(RB3LYP) =  -1334.05163404     A.U. after    9 cycles
 SCF Done:  E(RB3LYP) =  -1334.05127640     A.U. after    8 cycles
 SCF Done:  E(RB3LYP) =  -1334.05119064     A.U. after    9 cycles
 SCF Done:  E(RB3LYP) =  -1334.05119093     A.U. after    8 cycles
 SCF Done:  E(RB3LYP) =  -1334.05109784     A.U. after    9 cycles
 SCF Done:  E(RB3LYP) =  -1334.05109813     A.U. after    8 cycles
 SCF Done:  E(RB3LYP) =  -1334.05099774     A.U. after    9 cycles
 SCF Done:  E(RB3LYP) =  -1334.05099800     A.U. after    8 cycles
    -- Stationary point found.
 SCF Done:  E(RB3LYP) =  -1334.05089025     A.U. after    9 cycles
 SCF Done:  E(RB3LYP) =  -1334.05089052     A.U. after    9 cycles
 SCF Done:  E(RB3LYP) =  -1334.05089054     A.U. after    8 cycles
 Optimization completed.
    -- Stationary point found.

                         Standard orientation:
 ---------------------------------------------------------------------
 Center     Atomic      Atomic             Coordinates (Angstroms)
 Number     Number       Type             X           Y           Z
 ---------------------------------------------------------------------
      1          6           0       -0.586033   -0.409412    0.000088
      2          6           0       -1.903594    0.021096    0.000104
      3          6           0       -2.844511   -1.055879    0.000068
      4          6           0       -2.244545   -2.281160   -0.000023
      5         16           0       -0.523512   -2.164396    0.000396
      6          1           0       -3.916979   -0.927238   -0.000003
      7          1           0       -2.717860   -3.250833   -0.000136
      8          6           0        0.603865    0.410899   -0.000026
      9          6           0        1.928605    0.002820   -0.000070
     10         16           0        0.537862    2.168170   -0.000353
     11          6           0        2.870229    1.071336   -0.000029
     12          6           0        2.259784    2.293618    0.000119
     13          1           0        3.942834    0.942481    0.000030
     14          1           0        2.726233    3.266579    0.000264
     15          8           0       -2.258592    1.335374    0.000073
     16          8           0        2.220819   -1.329390   -0.000062
     17          6           0        3.589932   -1.712244   -0.000144
     18          1           0        4.104310   -1.346335    0.894960
     19          1           0        3.596653   -2.801053   -0.000136
     20          1           0        4.104203   -1.346348   -0.895315
     21          6           0       -3.640391    1.665278   -0.000094
     22          1           0       -4.141060    1.281682    0.895128
     23          1           0       -3.684925    2.753141   -0.000170
     24          1           0       -4.140867    1.281560   -0.895370
 ---------------------------------------------------------------------

 The electronic state is 1-A.
 Alpha  occ. eigenvalues --  -88.87103 -88.87094 -19.15854 -19.15793 -10.23315
 Alpha  occ. eigenvalues --  -10.23220 -10.23032 -10.22953 -10.20477 -10.20372
 Alpha  occ. eigenvalues --  -10.19604 -10.19494 -10.17756 -10.17578  -7.95667
 Alpha  occ. eigenvalues --   -7.95658  -5.91979  -5.91967  -5.91589  -5.91580
 Alpha  occ. eigenvalues --   -5.91231  -5.91228  -1.07416  -1.07299  -0.88829
 Alpha  occ. eigenvalues --   -0.87013  -0.77136  -0.75527  -0.74097  -0.71737
 Alpha  occ. eigenvalues --   -0.69534  -0.67434  -0.59674  -0.58307  -0.55268
 Alpha  occ. eigenvalues --   -0.55215  -0.53741  -0.48373  -0.47765  -0.47525
 Alpha  occ. eigenvalues --   -0.47294  -0.45830  -0.44433  -0.44147  -0.41526
 Alpha  occ. eigenvalues --   -0.40731  -0.40538  -0.37920  -0.37616  -0.36241
 Alpha  occ. eigenvalues --   -0.35067  -0.33265  -0.32718  -0.32672  -0.32644
 Alpha  occ. eigenvalues --   -0.27473  -0.23810  -0.23486  -0.18472
 Alpha virt. eigenvalues --   -0.03960  -0.00051   0.00352   0.00607   0.01014
 Alpha virt. eigenvalues --    0.01364   0.02148   0.02896   0.02976   0.03648
 Alpha virt. eigenvalues --    0.03940   0.05045   0.05122   0.05240   0.05739

 Mulliken charges:
               1
     1  C    0.727827
     2  C   -0.189070
     3  C   -0.486253
     4  C   -0.208972
     5  S   -0.266694
     6  H    0.126286
     7  H    0.154173
     8  C    0.807604
     9  C   -0.141501
    10  S   -0.278207
    11  C   -0.472329
    12  C   -0.215396
    13  H    0.127020
    14  H    0.155563
    15  O   -0.128341
    16  O   -0.125995
    17  C   -0.236016
    18  H    0.141550
    19  H    0.161614
    20  H    0.141543
    21  C   -0.241987
    22  H    0.142292
    23  H    0.162982
    24  H    0.142308
 Sum of Mulliken charges =  -0.00000

 Dipole moment (field-independent basis, Debye):
    X=             -0.0007    Y=             -0.0477    Z=             -0.0003  Tot=              0.0477
 Quadrupole moment (field-independent basis, Debye-Ang):
   XX=            -70.9523   YY=            -90.4847   ZZ=           -102.0139
   XY=             -3.0670   XZ=              0.0013   YZ=             -0.0001

 Normal termination of Gaussian 16 at Mon Jul 15 14:39:16 2019.
