 Gaussian 16, Revision C.01,
 Gaussian 16:  ES64L-G16RevC.01  3-Jul-2019

 ------------------------------------
 #p opt b3lyp/6-311+g(d,p) pop=chelpG
 ------------------------------------

 ----------
 NDIgT2.pdb
 ----------
 Symbolic Z-matrix:
 Charge =  0 Multiplicity = 1

 SCF Done:  E(RB3LYP) =  -2359.26931296     A.U. after   17 cycles
 SCF Done:  E(RB3LYP) =  -2359.31152391     A.U. after   14 cycles
 SCF Done:  E(RB3LYP) =  -2359.30306997     A.U. after   17 cycles
 SCF Done:  E(RB3LYP) =  -2359.33173415     A.U. after   15 cycles
 SCF Done:  E(RB3LYP) =  -2359.33518983     A.U. after   15 cycles
 SCF Done:  E(RB3LYP) =  -2359.33678370     A.U. after   17 cycles
 SCF Done:  E(RB3LYP) =  -2359.33759918     A.U. after   13 cycles
 SCF Done:  E(RB3LYP) =  -2359.33798800     A.U. after   13 cycles
 SCF Done:  E(RB3LYP) =  -2359.33811029     A.U. after   16 cycles
 SCF Done:  E(RB3LYP) =  -2359.33821233     A.U. after   12 cycles
 SCF Done:  E(RB3LYP) =  -2359.33831687     A.U. after   12 cycles
 SCF Done:  E(RB3LYP) =  -2359.33831880     A.U. after   11 cycles
 SCF Done:  E(RB3LYP) =  -2359.33831935     A.U. after   10 cycles
 SCF Done:  E(RB3LYP) =  -2359.33832006     A.U. after   10 cycles
 SCF Done:  E(RB3LYP) =  -2359.33832059     A.U. after   10 cycles
 SCF Done:  E(RB3LYP) =  -2359.33832104     A.U. after   11 cycles
 SCF Done:  E(RB3LYP) =  -2359.33832139     A.U. after    9 cycles
 SCF Done:  E(RB3LYP) =  -2359.33832173     A.U. after   10 cycles
 SCF Done:  E(RB3LYP) =  -2359.33832188     A.U. after    9 cycles
 SCF Done:  E(RB3LYP) =  -2359.33832192     A.U. after    9 cycles
 Optimization completed.
    -- Stationary point found.

                         Standard orientation:
 ---------------------------------------------------------------------
 Center     Atomic      Atomic             Coordinates (Angstroms)
 Number     Number       Type             X           Y           Z
 ---------------------------------------------------------------------
      1          6           0        3.382813   -0.111939   -0.197307
      2          6           0        2.943525   -1.276504   -0.830862
      3          6           0        1.548689   -1.455315   -0.817871
      4          6           0        0.871156   -0.433133   -0.187099
      5         16           0        2.001967    0.778580    0.396684
      6          8           0        3.860501   -2.112600   -1.384320
      7          1           0        1.051334   -2.305963   -1.252484
      8          6           0        4.735780    0.326536   -0.004747
      9          6           0        5.169616    1.499705    0.605251
     10          6           0        6.582945    1.645785    0.647636
     11          6           0        7.223477    0.584306    0.070379
     12         16           0        6.131980   -0.605983   -0.533168
     13          8           0        4.252204    2.373128    1.093039
     14          1           0        7.099600    2.489871    1.080349
     15          6           0        3.400419   -3.359177   -1.901424
     16          1           0        2.736610   -3.207633   -2.758819
     17          1           0        2.882638   -3.936252   -1.129298
     18          6           0        4.719723    3.579851    1.689797
     19          1           0        5.286228    4.180129    0.970905
     20          1           0        5.338445    3.370045    2.568056
     21          1           0        8.287152    0.437191   -0.037955
     22          6           0       -0.562641   -0.192519   -0.053246
     23          6           0       -0.972816    1.166602   -0.197334
     24          1           0       -0.224725    1.934094   -0.347804
     25          6           0       -2.287202    1.552518   -0.212167
     26          6           0       -2.624912    2.988590   -0.398866
     27          8           0       -1.778475    3.856587   -0.507245
     28          7           0       -3.984704    3.315351   -0.446687
     29          6           0       -5.040652    2.395542   -0.331636
     30          8           0       -6.200674    2.757632   -0.389793
     31          6           0       -4.666952    0.969329   -0.133152
     32          6           0       -5.666535    0.019500    0.005758
     33          6           0       -5.323228   -1.320317    0.208658
     34          1           0       -6.086887   -2.078496    0.327625
     35          6           0       -3.994674   -1.715762    0.270164
     36          6           0       -3.700400   -3.144732    0.516165
     37          8           0       -4.574962   -3.988911    0.610382
     38          7           0       -2.349921   -3.466591    0.659060
     39          6           0       -1.269138   -2.572740    0.528861
     40          8           0       -0.148447   -2.998599    0.747571
     41          6           0       -1.572380   -1.164418    0.155548
     42          6           0       -2.945840   -0.774644    0.114838
     43          6           0       -3.311292    0.586261   -0.082246
     44          1           0       -6.701327    0.333532   -0.038681
     45          1           0        4.291311   -3.894259   -2.225139
     46          1           0        3.828936    4.125361    1.995345
     47          6           0       -1.998087   -4.852138    1.000928
     48          1           0       -2.919582   -5.422782    1.057109
     49          1           0       -1.472763   -4.875200    1.955753
     50          1           0       -1.339400   -5.266625    0.237415
     51          6           0       -4.306905    4.736983   -0.635637
     52          1           0       -5.387668    4.835265   -0.649783
     53          1           0       -3.878780    5.089946   -1.574139
     54          1           0       -3.880003    5.321978    0.179251
 ---------------------------------------------------------------------

 The electronic state is 1-A.
 Alpha  occ. eigenvalues --  -88.88562 -88.88540 -19.17365 -19.17014 -19.12261
 Alpha  occ. eigenvalues --  -19.12224 -19.11581 -19.11514 -14.38432 -14.37946
 Alpha  occ. eigenvalues --  -10.30858 -10.30697 -10.30436 -10.30154 -10.25024
 Alpha  occ. eigenvalues --  -10.24742 -10.24020 -10.23708 -10.23658 -10.22713
 Alpha  occ. eigenvalues --  -10.22567 -10.22377 -10.22295 -10.22075 -10.22044
 Alpha  occ. eigenvalues --  -10.22027 -10.21932 -10.21746 -10.21257 -10.21200
 Alpha  occ. eigenvalues --  -10.20898 -10.20840 -10.20764 -10.20605 -10.19140
 Alpha  occ. eigenvalues --  -10.18973  -7.97113  -7.97103  -5.93423  -5.93420
 Alpha  occ. eigenvalues --   -5.93034  -5.93031  -5.92681  -5.92651  -1.08923
 Alpha  occ. eigenvalues --   -1.08581  -1.08512  -1.08050  -1.06697  -1.06139
 Alpha  occ. eigenvalues --   -0.96075  -0.95497  -0.92231  -0.90510  -0.88928
 Alpha  occ. eigenvalues --   -0.86515  -0.84035  -0.80438  -0.78272  -0.77777
 Alpha  occ. eigenvalues --   -0.76542  -0.75500  -0.75007  -0.73333  -0.72326
 Alpha  occ. eigenvalues --   -0.71771  -0.70465  -0.68864  -0.66998  -0.65692
 Alpha  occ. eigenvalues --   -0.65505  -0.64533  -0.61182  -0.59979  -0.58536
 Alpha  occ. eigenvalues --   -0.57289  -0.56766  -0.56539  -0.55203  -0.54977
 Alpha  occ. eigenvalues --   -0.53408  -0.51547  -0.50280  -0.49859  -0.49605
 Alpha  occ. eigenvalues --   -0.49296  -0.48946  -0.48642  -0.48501  -0.48402
 Alpha  occ. eigenvalues --   -0.48179  -0.46942  -0.46491  -0.46242  -0.45839
 Alpha  occ. eigenvalues --   -0.45700  -0.44829  -0.44402  -0.44080  -0.43564
 Alpha  occ. eigenvalues --   -0.42846  -0.42583  -0.42367  -0.41974  -0.41814
 Alpha  occ. eigenvalues --   -0.41732  -0.41093  -0.41036  -0.40402  -0.39864
 Alpha  occ. eigenvalues --   -0.39477  -0.39115  -0.39001  -0.37780  -0.37434
 Alpha  occ. eigenvalues --   -0.36560  -0.35899  -0.34469  -0.34151  -0.33785
 Alpha  occ. eigenvalues --   -0.33572  -0.31957  -0.30886  -0.30359  -0.29656
 Alpha  occ. eigenvalues --   -0.29203  -0.28763  -0.28571  -0.27920  -0.27239
 Alpha  occ. eigenvalues --   -0.26003  -0.24826  -0.24690  -0.19521
 Alpha virt. eigenvalues --   -0.12932  -0.07442  -0.06337  -0.04449  -0.03744
 Alpha virt. eigenvalues --   -0.00859  -0.00469  -0.00326  -0.00009   0.00402
 Alpha virt. eigenvalues --    0.00812   0.01190   0.01466   0.01634   0.01850

 Mulliken charges:
               1
     1  C    0.713140
     2  C   -0.190618
     3  C   -0.511546
     4  C    0.090155
     5  S   -0.591928
     6  O   -0.129455
     7  H    0.136083
     8  C    0.820614
     9  C   -0.033507
    10  C   -0.602005
    11  C   -0.269643
    12  S   -0.259247
    13  O   -0.128878
    14  H    0.132662
    15  C   -0.241078
    16  H    0.144857
    17  H    0.162448
    18  C   -0.240595
    19  H    0.146756
    20  H    0.145520
    21  H    0.161755
    22  C    0.426494
    23  C   -0.301991
    24  H    0.178233
    25  C   -0.095138
    26  C    0.288565
    27  O   -0.281546
    28  N   -0.142249
    29  C    0.227392
    30  O   -0.268675
    31  C    0.205260
    32  C   -0.585037
    33  C   -0.476620
    34  H    0.160642
    35  C    0.146431
    36  C    0.214865
    37  O   -0.277627
    38  N   -0.119235
    39  C   -0.470373
    40  O   -0.215275
    41  C    0.393073
    42  C    0.215896
    43  C    0.159973
    44  H    0.158416
    45  H    0.165334
    46  H    0.169373
    47  C   -0.190651
    48  H    0.182548
    49  H    0.176594
    50  H    0.168279
    51  C   -0.198134
    52  H    0.182044
    53  H    0.174168
    54  H    0.173481
 Sum of Mulliken charges =  -0.00000

 Dipole moment (field-independent basis, Debye):
    X=              4.8217    Y=              0.5931    Z=             -0.2549  Tot=              4.8647
 Quadrupole moment (field-independent basis, Debye-Ang):
   XX=           -216.7688   YY=           -212.8898   ZZ=           -217.9155
   XY=              4.1453   XZ=              3.3955   YZ=             13.9313

 ESP charges:
               1
     1  C   -0.041437
     2  C    0.356646
     3  C   -0.276374
     4  C   -0.055610
     5  S   -0.066713
     6  O   -0.300479
     7  H    0.157166
     8  C   -0.089321
     9  C    0.337654
    10  C   -0.262052
    11  C   -0.164562
    12  S   -0.008247
    13  O   -0.245246
    14  H    0.145270
    15  C    0.052187
    16  H    0.024071
    17  H    0.067687
    18  C    0.008313
    19  H    0.044480
    20  H    0.045817
    21  H    0.173718
    22  C    0.238610
    23  C   -0.032770
    24  H    0.088244
    25  C   -0.179798
    26  C    0.583748
    27  O   -0.502358
    28  N   -0.250434
    29  C    0.536538
    30  O   -0.493022
    31  C   -0.134426
    32  C   -0.025275
    33  C   -0.040433
    34  H    0.103479
    35  C   -0.153847
    36  C    0.565762
    37  O   -0.514926
    38  N   -0.285627
    39  C    0.608739
    40  O   -0.479141
    41  C   -0.307029
    42  C    0.114435
    43  C    0.072432
    44  H    0.094536
    45  H    0.065964
    46  H    0.086051
    47  C    0.023775
    48  H    0.067517
    49  H    0.037466
    50  H    0.037350
    51  C    0.002937
    52  H    0.065696
    53  H    0.047408
    54  H    0.055430
 Sum of ESP charges =  -0.00000

 Normal termination of Gaussian 16 at Tue Nov 17 14:35:50 2020.
