 Gaussian 16, Revision A.03,
 Gaussian 16:  ES64L-G16RevA.03 25-Dec-2016

 --------------------------------------------------------
 # opt=modredundant wb97xd/6-311+g(d,p) geom=connectivity
 --------------------------------------------------------

 -------------------
 Title Card Required
 -------------------
 Symbolic Z-matrix:
 Charge =  0 Multiplicity = 1

 SCF Done:  E(RwB97XD) =  -1333.80533687     A.U. after   16 cycles
 SCF Done:  E(RwB97XD) =  -1333.81256618     A.U. after   16 cycles
 SCF Done:  E(RwB97XD) =  -1333.81329526     A.U. after   16 cycles
 SCF Done:  E(RwB97XD) =  -1333.81837574     A.U. after   15 cycles
 SCF Done:  E(RwB97XD) =  -1333.81948740     A.U. after   16 cycles
 SCF Done:  E(RwB97XD) =  -1333.81979532     A.U. after   15 cycles
 SCF Done:  E(RwB97XD) =  -1333.81988230     A.U. after   14 cycles
 SCF Done:  E(RwB97XD) =  -1333.81991794     A.U. after   14 cycles
 SCF Done:  E(RwB97XD) =  -1333.81993960     A.U. after   14 cycles
 SCF Done:  E(RwB97XD) =  -1333.81997484     A.U. after   14 cycles
 SCF Done:  E(RwB97XD) =  -1333.82105502     A.U. after   15 cycles
 SCF Done:  E(RwB97XD) =  -1333.82108314     A.U. after   13 cycles
 SCF Done:  E(RwB97XD) =  -1333.82109265     A.U. after   13 cycles
 SCF Done:  E(RwB97XD) =  -1333.82110059     A.U. after   13 cycles
 SCF Done:  E(RwB97XD) =  -1333.82110231     A.U. after   13 cycles
 SCF Done:  E(RwB97XD) =  -1333.82110018     A.U. after   14 cycles
 SCF Done:  E(RwB97XD) =  -1333.82110719     A.U. after   13 cycles
 SCF Done:  E(RwB97XD) =  -1333.82110988     A.U. after   13 cycles
 SCF Done:  E(RwB97XD) =  -1333.82111045     A.U. after   12 cycles
 SCF Done:  E(RwB97XD) =  -1333.82111046     A.U. after   11 cycles
 Optimization completed.
    -- Stationary point found.

                         Standard orientation:
 ---------------------------------------------------------------------
 Center     Atomic      Atomic             Coordinates (Angstroms)
 Number     Number       Type             X           Y           Z
 ---------------------------------------------------------------------
      1          6           0       -0.665002   -0.562033    0.185130
      2          6           0       -1.573368    0.430108   -0.110706
      3          6           0       -2.929336   -0.018543   -0.098245
      4          6           0       -3.029674   -1.351429    0.150327
      5         16           0       -1.497221   -2.076981    0.391878
      6          1           0       -3.786004    0.613841   -0.282031
      7          1           0       -3.927891   -1.946194    0.213354
      8          6           0        0.787981   -0.517025    0.138858
      9          6           0        1.636917    0.541674    0.352096
     10         16           0        1.690769   -1.880999   -0.467634
     11          6           0        3.002677    0.251233    0.048890
     12          6           0        3.176473   -1.018574   -0.395688
     13          1           0        3.811200    0.954803    0.194111
     14          1           0        4.099307   -1.510772   -0.662123
     15          8           0       -1.169509    1.671230   -0.457473
     16          8           0        1.232623    1.697714    0.936867
     17          6           0        1.522566    2.876877    0.209650
     18          1           0        1.047590    2.843808   -0.775640
     19          1           0        1.112246    3.704761    0.787548
     20          1           0        2.602295    3.025470    0.093655
     21          6           0       -2.156997    2.673935   -0.554076
     22          1           0       -2.715970    2.773242    0.382766
     23          1           0       -1.625420    3.603506   -0.754316
     24          1           0       -2.852447    2.476329   -1.377794
 ---------------------------------------------------------------------

 The electronic state is 1-A.
 Alpha  occ. eigenvalues --  -89.04504 -89.04137 -19.28314 -19.26497 -10.35196
 Alpha  occ. eigenvalues --  -10.34300 -10.34170 -10.32811 -10.32058 -10.32003
 Alpha  occ. eigenvalues --  -10.31870 -10.31417 -10.29535 -10.28931  -8.08590
 Alpha  occ. eigenvalues --   -8.08222  -6.03425  -6.03061  -6.03044  -6.02680
 Alpha  occ. eigenvalues --   -6.02679  -6.02302  -1.18239  -1.16316  -0.99845
 Alpha  occ. eigenvalues --   -0.97807  -0.87346  -0.85218  -0.84021  -0.81708
 Alpha  occ. eigenvalues --   -0.78821  -0.77023  -0.69513  -0.66751  -0.65179
 Alpha  occ. eigenvalues --   -0.64368  -0.62698  -0.57437  -0.56900  -0.56172
 Alpha  occ. eigenvalues --   -0.55090  -0.54130  -0.53432  -0.51909  -0.50250
 Alpha  occ. eigenvalues --   -0.49216  -0.48742  -0.46745  -0.46292  -0.44105
 Alpha  occ. eigenvalues --   -0.42952  -0.42659  -0.41914  -0.41293  -0.37078
 Alpha  occ. eigenvalues --   -0.35170  -0.31751  -0.31012  -0.26774
 Alpha virt. eigenvalues --    0.02318   0.05609   0.06138   0.06482   0.07079
 Alpha virt. eigenvalues --    0.07692   0.07813   0.08534   0.08932   0.09659
 Alpha virt. eigenvalues --    0.09882   0.10523   0.10748   0.11112   0.11456

 Mulliken charges:
               1
     1  C    1.616249
     2  C   -0.035610
     3  C   -0.173609
     4  C   -0.137755
     5  S   -0.478020
     6  H    0.155756
     7  H    0.187411
     8  C   -0.322879
     9  C   -0.674865
    10  S   -0.401019
    11  C    0.116717
    12  C   -0.277444
    13  H    0.147671
    14  H    0.184633
    15  O   -0.128488
    16  O   -0.055131
    17  C   -0.365316
    18  H    0.161198
    19  H    0.161800
    20  H    0.140328
    21  C   -0.310336
    22  H    0.169627
    23  H    0.166941
    24  H    0.152140
 Sum of Mulliken charges =  -0.00000

 Dipole moment (field-independent basis, Debye):
    X=             -1.0690    Y=              2.4047    Z=             -1.1956  Tot=              2.8905
 Quadrupole moment (field-independent basis, Debye-Ang):
   XX=            -78.2188   YY=            -85.8901   ZZ=           -102.4627
   XY=             -1.4052   XZ=             -0.7015   YZ=             -1.5984

 Normal termination of Gaussian 16 at Thu Feb  6 20:30:45 2020.
