 Gaussian 16, Revision A.03,
 Gaussian 16:  ES64L-G16RevA.03 25-Dec-2016

 --------------------------------------------------------
 # opt=modredundant wb97xd/6-311+g(d,p) geom=connectivity
 --------------------------------------------------------

 -------------------
 Title Card Required
 -------------------
 Symbolic Z-matrix:
 Charge =  0 Multiplicity = 1

 SCF Done:  E(RwB97XD) =  -1333.82310825     A.U. after   17 cycles
 SCF Done:  E(RwB97XD) =  -1333.82457569     A.U. after   14 cycles
 SCF Done:  E(RwB97XD) =  -1333.82471203     A.U. after   14 cycles
 SCF Done:  E(RwB97XD) =  -1333.82475206     A.U. after   14 cycles
 SCF Done:  E(RwB97XD) =  -1333.82477297     A.U. after   13 cycles
 SCF Done:  E(RwB97XD) =  -1333.82477327     A.U. after   10 cycles
 Optimization completed.
    -- Stationary point found.

                         Standard orientation:
 ---------------------------------------------------------------------
 Center     Atomic      Atomic             Coordinates (Angstroms)
 Number     Number       Type             X           Y           Z
 ---------------------------------------------------------------------
      1          6           0        0.667381   -0.293676   -0.268628
      2          6           0        1.817789    0.243164    0.255547
      3          6           0        2.967222   -0.581520    0.066555
      4          6           0        2.665612   -1.729206   -0.602889
      5         16           0        1.006884   -1.823415   -1.015177
      6          1           0        3.962131   -0.342825    0.414099
      7          1           0        3.338534   -2.531221   -0.865822
      8          6           0       -0.668264    0.284860   -0.275958
      9          6           0       -1.820995   -0.244251    0.250929
     10         16           0       -0.998460    1.818257   -1.018948
     11          6           0       -2.966093    0.586181    0.060945
     12          6           0       -2.657987    1.732335   -0.608192
     13          1           0       -3.962499    0.352592    0.407673
     14          1           0       -3.326797    2.537207   -0.872872
     15          8           0        1.787519    1.441252    0.883577
     16          8           0       -1.796502   -1.440964    0.881765
     17          6           0       -3.016521   -1.922900    1.401059
     18          1           0       -3.759081   -2.068653    0.608162
     19          1           0       -2.791090   -2.883519    1.861257
     20          1           0       -3.422450   -1.245909    2.161435
     21          6           0        3.005370    1.930818    1.400798
     22          1           0        3.746746    2.078065    0.607070
     23          1           0        2.775326    2.891584    1.858398
     24          1           0        3.415158    1.258066    2.162867
 ---------------------------------------------------------------------

 The electronic state is 1-A.
 Alpha  occ. eigenvalues --  -89.03878 -89.03876 -19.27827 -19.27826 -10.34602
 Alpha  occ. eigenvalues --  -10.34600 -10.33718 -10.33716 -10.31335 -10.31334
 Alpha  occ. eigenvalues --  -10.31092 -10.31056 -10.29003 -10.29002  -8.07941
 Alpha  occ. eigenvalues --   -8.07939  -6.02770  -6.02768  -6.02391  -6.02390
 Alpha  occ. eigenvalues --   -6.02044  -6.02042  -1.17642  -1.17558  -0.99352
 Alpha  occ. eigenvalues --   -0.97598  -0.87007  -0.84965  -0.84010  -0.81675
 Alpha  occ. eigenvalues --   -0.78749  -0.76910  -0.68893  -0.66775  -0.64636
 Alpha  occ. eigenvalues --   -0.63988  -0.63098  -0.57459  -0.56350  -0.56200
 Alpha  occ. eigenvalues --   -0.55223  -0.54194  -0.52742  -0.52603  -0.49534
 Alpha  occ. eigenvalues --   -0.49420  -0.48304  -0.46640  -0.46055  -0.43035
 Alpha  occ. eigenvalues --   -0.42402  -0.41990  -0.41956  -0.41216  -0.40837
 Alpha  occ. eigenvalues --   -0.33198  -0.31529  -0.29852  -0.27060
 Alpha virt. eigenvalues --    0.03501   0.06074   0.06202   0.06363   0.07149
 Alpha virt. eigenvalues --    0.07480   0.08013   0.08788   0.08965   0.09088
 Alpha virt. eigenvalues --    0.09136   0.10699   0.11133   0.11523   0.11952

 Mulliken charges:
               1
     1  C    1.539289
     2  C   -1.091477
     3  C   -0.070395
     4  C   -0.200896
     5  S   -0.267757
     6  H    0.153933
     7  H    0.185145
     8  C    1.091776
     9  C   -1.225611
    10  S   -0.273444
    11  C   -0.060848
    12  C   -0.219352
    13  H    0.153578
    14  H    0.185045
    15  O   -0.120047
    16  O   -0.120960
    17  C   -0.319493
    18  H    0.157943
    19  H    0.174047
    20  H    0.157424
    21  C   -0.317939
    22  H    0.158275
    23  H    0.174171
    24  H    0.157594
 Sum of Mulliken charges =   0.00000

 Dipole moment (field-independent basis, Debye):
    X=             -0.0011    Y=              0.0184    Z=              1.3483  Tot=              1.3485
 Quadrupole moment (field-independent basis, Debye-Ang):
   XX=            -72.8864   YY=            -90.6290   ZZ=            -97.2287
   XY=              2.5607   XZ=             -0.0120   YZ=              0.0062

 Normal termination of Gaussian 16 at Thu Feb  6 21:23:40 2020.
