 Gaussian 16, Revision A.03,
 Gaussian 16:  ES64L-G16RevA.03 25-Dec-2016

 --------------------------------------------------------
 # opt=modredundant wb97xd/6-311+g(d,p) geom=connectivity
 --------------------------------------------------------

 -------------------
 Title Card Required
 -------------------
 Symbolic Z-matrix:
 Charge =  0 Multiplicity = 1

 SCF Done:  E(RwB97XD) =  -1333.82283078     A.U. after   18 cycles
 SCF Done:  E(RwB97XD) =  -1333.82448826     A.U. after   14 cycles
 SCF Done:  E(RwB97XD) =  -1333.82466889     A.U. after   13 cycles
 SCF Done:  E(RwB97XD) =  -1333.82468354     A.U. after   13 cycles
 SCF Done:  E(RwB97XD) =  -1333.82470474     A.U. after   12 cycles
 SCF Done:  E(RwB97XD) =  -1333.82470621     A.U. after   11 cycles
 SCF Done:  E(RwB97XD) =  -1333.82470700     A.U. after   11 cycles
 SCF Done:  E(RwB97XD) =  -1333.82470727     A.U. after   11 cycles
 SCF Done:  E(RwB97XD) =  -1333.82470759     A.U. after   10 cycles
 SCF Done:  E(RwB97XD) =  -1333.82470787     A.U. after   10 cycles
 SCF Done:  E(RwB97XD) =  -1333.82470790     A.U. after    9 cycles
 Optimization completed.
    -- Stationary point found.

                         Standard orientation:
 ---------------------------------------------------------------------
 Center     Atomic      Atomic             Coordinates (Angstroms)
 Number     Number       Type             X           Y           Z
 ---------------------------------------------------------------------
      1          6           0       -0.715172   -0.481704   -0.129337
      2          6           0       -1.656997    0.373380    0.383976
      3          6           0       -2.972337    0.135539   -0.118317
      4          6           0       -2.998945   -0.896720   -1.007329
      5         16           0       -1.449934   -1.583198   -1.251618
      6          1           0       -3.852667    0.694899    0.164407
      7          1           0       -3.858084   -1.289973   -1.529328
      8          6           0        0.716831   -0.476398    0.138252
      9          6           0        1.653374    0.381133   -0.380623
     10         16           0        1.462261   -1.581133    1.250161
     11          6           0        2.972535    0.145485    0.112572
     12          6           0        3.007765   -0.889535    0.998097
     13          1           0        3.849483    0.708211   -0.173960
     14          1           0        3.871163   -1.281286    1.514154
     15          8           0       -1.300242    1.321001    1.278569
     16          8           0        1.288582    1.328835   -1.271896
     17          6           0        2.297612    2.196413   -1.740073
     18          1           0        3.081320    1.648092   -2.275489
     19          1           0        1.809935    2.884510   -2.428667
     20          1           0        2.746922    2.766463   -0.918867
     21          6           0       -2.314477    2.185204    1.741689
     22          1           0       -3.099689    1.634106    2.272030
     23          1           0       -1.832803    2.874032    2.433769
     24          1           0       -2.760655    2.754773    0.918445
 ---------------------------------------------------------------------

 The electronic state is 1-A.
 Alpha  occ. eigenvalues --  -89.03967 -89.03966 -19.27744 -19.27741 -10.34594
 Alpha  occ. eigenvalues --  -10.34593 -10.33677 -10.33675 -10.31421 -10.31421
 Alpha  occ. eigenvalues --  -10.30919 -10.30883 -10.29045 -10.29043  -8.08032
 Alpha  occ. eigenvalues --   -8.08031  -6.02856  -6.02855  -6.02482  -6.02481
 Alpha  occ. eigenvalues --   -6.02141  -6.02140  -1.17634  -1.17469  -0.99347
 Alpha  occ. eigenvalues --   -0.97618  -0.87009  -0.84610  -0.84290  -0.81718
 Alpha  occ. eigenvalues --   -0.78713  -0.76886  -0.69003  -0.65861  -0.65385
 Alpha  occ. eigenvalues --   -0.63945  -0.63214  -0.57513  -0.56280  -0.56178
 Alpha  occ. eigenvalues --   -0.55094  -0.54134  -0.52811  -0.52493  -0.49531
 Alpha  occ. eigenvalues --   -0.49386  -0.48174  -0.46534  -0.46366  -0.42786
 Alpha  occ. eigenvalues --   -0.42572  -0.42039  -0.41828  -0.41384  -0.40811
 Alpha  occ. eigenvalues --   -0.32275  -0.31969  -0.29128  -0.28162
 Alpha virt. eigenvalues --    0.04396   0.04979   0.06005   0.06344   0.07218
 Alpha virt. eigenvalues --    0.07342   0.07813   0.08770   0.08853   0.09007
 Alpha virt. eigenvalues --    0.09201   0.10544   0.10568   0.11790   0.11957

 Mulliken charges:
               1
     1  C    0.886452
     2  C   -1.032965
     3  C    0.025032
     4  C   -0.325743
     5  S   -0.072359
     6  H    0.153690
     7  H    0.185272
     8  C    0.996819
     9  C   -0.990616
    10  S   -0.078927
    11  C    0.014001
    12  C   -0.315623
    13  H    0.153800
    14  H    0.185277
    15  O   -0.081251
    16  O   -0.080280
    17  C   -0.300032
    18  H    0.156709
    19  H    0.172429
    20  H    0.159656
    21  C   -0.300076
    22  H    0.156699
    23  H    0.172403
    24  H    0.159633
 Sum of Mulliken charges =  -0.00000

 Dipole moment (field-independent basis, Debye):
    X=             -0.0050    Y=              2.3269    Z=             -0.0154  Tot=              2.3269
 Quadrupole moment (field-independent basis, Debye-Ang):
   XX=            -76.1791   YY=            -91.1784   ZZ=            -94.9968
   XY=             -0.0001   XZ=             -2.3109   YZ=             -0.0084

 Normal termination of Gaussian 16 at Thu Feb  6 22:39:22 2020.
