 Gaussian 16, Revision A.03,
 Gaussian 16:  ES64L-G16RevA.03 25-Dec-2016

 --------------------------------------------------------
 # opt=modredundant wb97xd/6-311+g(d,p) geom=connectivity
 --------------------------------------------------------

 -------------------
 Title Card Required
 -------------------
 Symbolic Z-matrix:
 Charge =  0 Multiplicity = 1

 SCF Done:  E(RwB97XD) =  -1333.82337888     A.U. after   17 cycles
 SCF Done:  E(RwB97XD) =  -1333.82478336     A.U. after   14 cycles
 SCF Done:  E(RwB97XD) =  -1333.82491912     A.U. after   13 cycles
 SCF Done:  E(RwB97XD) =  -1333.82494764     A.U. after   14 cycles
 SCF Done:  E(RwB97XD) =  -1333.82496656     A.U. after   13 cycles
 SCF Done:  E(RwB97XD) =  -1333.82496694     A.U. after   11 cycles
 SCF Done:  E(RwB97XD) =  -1333.82496717     A.U. after   10 cycles
 SCF Done:  E(RwB97XD) =  -1333.82496729     A.U. after   10 cycles
 SCF Done:  E(RwB97XD) =  -1333.82496742     A.U. after   10 cycles
 Optimization completed.
    -- Stationary point found.

                         Standard orientation:
 ---------------------------------------------------------------------
 Center     Atomic      Atomic             Coordinates (Angstroms)
 Number     Number       Type             X           Y           Z
 ---------------------------------------------------------------------
      1          6           0       -0.648553   -0.332417   -0.208195
      2          6           0       -1.849874    0.180660    0.219595
      3          6           0       -2.945662   -0.716412    0.048526
      4          6           0       -2.555822   -1.894065   -0.514533
      5         16           0       -0.876759   -1.931410   -0.845433
      6          1           0       -3.966032   -0.505470    0.334737
      7          1           0       -3.173278   -2.750839   -0.737592
      8          6           0        0.650808    0.320810   -0.221123
      9          6           0        1.854185   -0.182002    0.213009
     10         16           0        0.866599    1.924963   -0.848802
     11          6           0        2.944007    0.722306    0.042655
     12          6           0        2.545999    1.898059   -0.518771
     13          1           0        3.965873    0.517881    0.328265
     14          1           0        3.158005    2.758292   -0.743499
     15          8           0       -1.911613    1.426818    0.744957
     16          8           0        1.922584   -1.426076    0.742281
     17          6           0        3.189377   -1.880492    1.165261
     18          1           0        3.595309   -1.247074    1.962272
     19          1           0        3.036541   -2.887021    1.551138
     20          1           0        3.899485   -1.917866    0.331216
     21          6           0       -3.176291    1.890341    1.164321
     22          1           0       -3.587191    1.262349    1.963081
     23          1           0       -3.017999    2.897371    1.546678
     24          1           0       -3.884951    1.928856    0.329102
 ---------------------------------------------------------------------

 The electronic state is 1-A.
 Alpha  occ. eigenvalues --  -89.03862 -89.03855 -19.27869 -19.27866 -10.34575
 Alpha  occ. eigenvalues --  -10.34570 -10.33747 -10.33743 -10.31272 -10.31269
 Alpha  occ. eigenvalues --  -10.31192 -10.31155 -10.28981 -10.28978  -8.07922
 Alpha  occ. eigenvalues --   -8.07915  -6.02754  -6.02747  -6.02372  -6.02365
 Alpha  occ. eigenvalues --   -6.02022  -6.02014  -1.17672  -1.17592  -0.99357
 Alpha  occ. eigenvalues --   -0.97590  -0.87039  -0.85057  -0.83952  -0.81646
 Alpha  occ. eigenvalues --   -0.78783  -0.76914  -0.68878  -0.66981  -0.64479
 Alpha  occ. eigenvalues --   -0.64018  -0.63040  -0.57410  -0.56400  -0.56213
 Alpha  occ. eigenvalues --   -0.55335  -0.54211  -0.52777  -0.52561  -0.49551
 Alpha  occ. eigenvalues --   -0.49417  -0.48377  -0.46655  -0.45941  -0.43266
 Alpha  occ. eigenvalues --   -0.42493  -0.41920  -0.41810  -0.41130  -0.40810
 Alpha  occ. eigenvalues --   -0.33737  -0.31461  -0.30041  -0.26529
 Alpha virt. eigenvalues --    0.03204   0.06062   0.06331   0.06659   0.07096
 Alpha virt. eigenvalues --    0.07552   0.08094   0.08732   0.09094   0.09173
 Alpha virt. eigenvalues --    0.09232   0.10717   0.11269   0.11439   0.12020

 Mulliken charges:
               1
     1  C    1.539127
     2  C   -0.733309
     3  C   -0.208518
     4  C   -0.129977
     5  S   -0.279550
     6  H    0.154208
     7  H    0.184799
     8  C    0.768627
     9  C   -1.110893
    10  S   -0.292739
    11  C   -0.156775
    12  C   -0.184530
    13  H    0.153422
    14  H    0.184485
    15  O   -0.118270
    16  O   -0.119147
    17  C   -0.318593
    18  H    0.155200
    19  H    0.174487
    20  H    0.158968
    21  C   -0.311021
    22  H    0.155569
    23  H    0.174768
    24  H    0.159659
 Sum of Mulliken charges =  -0.00000

 Dipole moment (field-independent basis, Debye):
    X=              0.0009    Y=              0.0265    Z=              1.0945  Tot=              1.0948
 Quadrupole moment (field-independent basis, Debye-Ang):
   XX=            -72.0766   YY=            -89.9552   ZZ=            -98.5048
   XY=             -2.5211   XZ=              0.0198   YZ=              0.0074

 Normal termination of Gaussian 16 at Thu Feb  6 19:41:24 2020.
