 Gaussian 16, Revision A.03,
 Gaussian 16:  ES64L-G16RevA.03 25-Dec-2016

 --------------------------------------------------------
 # opt=modredundant wb97xd/6-311+g(d,p) geom=connectivity
 --------------------------------------------------------

 -------------------
 Title Card Required
 -------------------
 Symbolic Z-matrix:
 Charge =  0 Multiplicity = 1

 SCF Done:  E(RwB97XD) =  -1333.81478066     A.U. after   16 cycles
 SCF Done:  E(RwB97XD) =  -1333.81502103     A.U. after   17 cycles
 SCF Done:  E(RwB97XD) =  -1333.82037587     A.U. after   14 cycles
 SCF Done:  E(RwB97XD) =  -1333.82163128     A.U. after   15 cycles
 SCF Done:  E(RwB97XD) =  -1333.82187623     A.U. after   15 cycles
 SCF Done:  E(RwB97XD) =  -1333.82210490     A.U. after   14 cycles
 SCF Done:  E(RwB97XD) =  -1333.82213730     A.U. after   13 cycles
 SCF Done:  E(RwB97XD) =  -1333.82215924     A.U. after   13 cycles
 SCF Done:  E(RwB97XD) =  -1333.82217535     A.U. after   13 cycles
 SCF Done:  E(RwB97XD) =  -1333.82220649     A.U. after   14 cycles
 SCF Done:  E(RwB97XD) =  -1333.82296913     A.U. after   16 cycles
 SCF Done:  E(RwB97XD) =  -1333.82298120     A.U. after   15 cycles
 SCF Done:  E(RwB97XD) =  -1333.82305662     A.U. after   15 cycles
 SCF Done:  E(RwB97XD) =  -1333.82306398     A.U. after   13 cycles
 SCF Done:  E(RwB97XD) =  -1333.82306463     A.U. after   11 cycles
 SCF Done:  E(RwB97XD) =  -1333.82306466     A.U. after   11 cycles
 SCF Done:  E(RwB97XD) =  -1333.82306467     A.U. after    9 cycles
 SCF Done:  E(RwB97XD) =  -1333.82306467     A.U. after   10 cycles
 SCF Done:  E(RwB97XD) =  -1333.82306467     A.U. after   10 cycles
 SCF Done:  E(RwB97XD) =  -1333.82306467     A.U. after   10 cycles
 Optimization completed.
    -- Stationary point found.

                         Standard orientation:
 ---------------------------------------------------------------------
 Center     Atomic      Atomic             Coordinates (Angstroms)
 Number     Number       Type             X           Y           Z
 ---------------------------------------------------------------------
      1          6           0       -0.668561   -0.567670    0.155249
      2          6           0       -1.561450    0.428536   -0.165742
      3          6           0       -2.925490    0.013348   -0.087768
      4          6           0       -3.045553   -1.299471    0.248384
      5         16           0       -1.522322   -2.043863    0.493477
      6          1           0       -3.774467    0.651831   -0.285805
      7          1           0       -3.954278   -1.868270    0.371901
      8          6           0        0.782751   -0.532031    0.093600
      9          6           0        1.627654    0.506646    0.394319
     10         16           0        1.687462   -1.855391   -0.588067
     11          6           0        2.996703    0.236108    0.088725
     12          6           0        3.173015   -1.001880   -0.439285
     13          1           0        3.805498    0.925964    0.287907
     14          1           0        4.098527   -1.475212   -0.729687
     15          8           0       -1.132983    1.641893   -0.577965
     16          8           0        1.202057    1.623705    1.036299
     17          6           0        1.529427    2.846193    0.401921
     18          1           0        1.125588    2.869004   -0.614816
     19          1           0        1.070627    3.635408    0.997075
     20          1           0        2.612980    3.008547    0.371816
     21          6           0       -2.102379    2.655509   -0.728385
     22          1           0       -2.651192    2.822802    0.204931
     23          1           0       -1.555960    3.560853   -0.990003
     24          1           0       -2.808858    2.420602   -1.532667
 ---------------------------------------------------------------------

 The electronic state is 1-A.
 Alpha  occ. eigenvalues --  -89.04484 -89.04154 -19.28317 -19.26586 -10.35122
 Alpha  occ. eigenvalues --  -10.34284 -10.34159 -10.32867 -10.31897 -10.31833
 Alpha  occ. eigenvalues --  -10.31824 -10.31431 -10.29511 -10.28954  -8.08565
 Alpha  occ. eigenvalues --   -8.08233  -6.03398  -6.03070  -6.03018  -6.02691
 Alpha  occ. eigenvalues --   -6.02659  -6.02318  -1.18196  -1.16388  -0.99800
 Alpha  occ. eigenvalues --   -0.97810  -0.87325  -0.85131  -0.84050  -0.81735
 Alpha  occ. eigenvalues --   -0.78803  -0.77016  -0.69474  -0.66599  -0.65266
 Alpha  occ. eigenvalues --   -0.64337  -0.62714  -0.57454  -0.56893  -0.56080
 Alpha  occ. eigenvalues --   -0.55105  -0.54095  -0.53381  -0.52050  -0.50226
 Alpha  occ. eigenvalues --   -0.49197  -0.48655  -0.46753  -0.46303  -0.43947
 Alpha  occ. eigenvalues --   -0.42983  -0.42614  -0.42082  -0.41369  -0.37267
 Alpha  occ. eigenvalues --   -0.34773  -0.31851  -0.30884  -0.26944
 Alpha virt. eigenvalues --    0.02576   0.05612   0.06135   0.06465   0.06996
 Alpha virt. eigenvalues --    0.07658   0.07800   0.08486   0.08917   0.09588
 Alpha virt. eigenvalues --    0.09869   0.10418   0.10813   0.11291   0.11563

 Mulliken charges:
               1
     1  C    1.579311
     2  C   -0.113154
     3  C   -0.119270
     4  C   -0.159209
     5  S   -0.447983
     6  H    0.155164
     7  H    0.187088
     8  C   -0.185967
     9  C   -0.744670
    10  S   -0.366502
    11  C    0.077490
    12  C   -0.283944
    13  H    0.147901
    14  H    0.184869
    15  O   -0.124959
    16  O   -0.062916
    17  C   -0.364112
    18  H    0.161922
    19  H    0.162960
    20  H    0.140375
    21  C   -0.315894
    22  H    0.170387
    23  H    0.167886
    24  H    0.153226
 Sum of Mulliken charges =  -0.00000

 Dipole moment (field-independent basis, Debye):
    X=             -0.9770    Y=              2.4877    Z=             -1.1018  Tot=              2.8909
 Quadrupole moment (field-independent basis, Debye-Ang):
   XX=            -78.3003   YY=            -85.9521   ZZ=           -102.2195
   XY=             -1.2460   XZ=             -0.4405   YZ=             -1.5570

 Normal termination of Gaussian 16 at Fri Feb  7 00:59:45 2020.
