 Gaussian 16, Revision A.03,
 Gaussian 16:  ES64L-G16RevA.03 25-Dec-2016

 --------------------------------------------------------
 # opt=modredundant wb97xd/6-311+g(d,p) geom=connectivity
 --------------------------------------------------------

 -------------------
 Title Card Required
 -------------------
 Symbolic Z-matrix:
 Charge =  0 Multiplicity = 1

 SCF Done:  E(RwB97XD) =  -1333.81477509     A.U. after   16 cycles
 SCF Done:  E(RwB97XD) =  -1333.81501273     A.U. after   17 cycles
 SCF Done:  E(RwB97XD) =  -1333.82037453     A.U. after   14 cycles
 SCF Done:  E(RwB97XD) =  -1333.82163093     A.U. after   15 cycles
 SCF Done:  E(RwB97XD) =  -1333.82187546     A.U. after   15 cycles
 SCF Done:  E(RwB97XD) =  -1333.82210408     A.U. after   14 cycles
 SCF Done:  E(RwB97XD) =  -1333.82213662     A.U. after   13 cycles
 SCF Done:  E(RwB97XD) =  -1333.82215880     A.U. after   13 cycles
 SCF Done:  E(RwB97XD) =  -1333.82217500     A.U. after   13 cycles
 SCF Done:  E(RwB97XD) =  -1333.82220613     A.U. after   14 cycles
 SCF Done:  E(RwB97XD) =  -1333.82297341     A.U. after   16 cycles
 SCF Done:  E(RwB97XD) =  -1333.82305468     A.U. after   15 cycles
 SCF Done:  E(RwB97XD) =  -1333.82305203     A.U. after   13 cycles
 SCF Done:  E(RwB97XD) =  -1333.82305615     A.U. after   14 cycles
 SCF Done:  E(RwB97XD) =  -1333.82306035     A.U. after   13 cycles
 SCF Done:  E(RwB97XD) =  -1333.82306215     A.U. after   13 cycles
 SCF Done:  E(RwB97XD) =  -1333.82306397     A.U. after   13 cycles
 SCF Done:  E(RwB97XD) =  -1333.82306451     A.U. after   11 cycles
 SCF Done:  E(RwB97XD) =  -1333.82306461     A.U. after   11 cycles
 SCF Done:  E(RwB97XD) =  -1333.82306469     A.U. after   10 cycles
 Optimization completed.
    -- Stationary point found.

                         Standard orientation:
 ---------------------------------------------------------------------
 Center     Atomic      Atomic             Coordinates (Angstroms)
 Number     Number       Type             X           Y           Z
 ---------------------------------------------------------------------
      1          6           0       -0.668442   -0.567758   -0.155113
      2          6           0       -1.561501    0.428303    0.165797
      3          6           0       -2.925476    0.012910    0.087817
      4          6           0       -3.045331   -1.299929   -0.248311
      5         16           0       -1.521978   -2.044096   -0.493345
      6          1           0       -3.774533    0.651253    0.285967
      7          1           0       -3.953973   -1.868862   -0.371833
      8          6           0        0.782872   -0.531908   -0.093588
      9          6           0        1.627631    0.506881   -0.394319
     10         16           0        1.687795   -1.855169    0.587993
     11          6           0        2.996738    0.236474   -0.088924
     12          6           0        3.173241   -1.001519    0.439026
     13          1           0        3.805457    0.926392   -0.288192
     14          1           0        4.098849   -1.474741    0.729300
     15          8           0       -1.133233    1.641798    0.577858
     16          8           0        1.201820    1.623963   -1.036167
     17          6           0        1.528656    2.846403   -0.401431
     18          1           0        2.612163    3.008913   -0.370613
     19          1           0        1.070115    3.635653   -0.996748
     20          1           0        1.124120    2.868998    0.615039
     21          6           0       -2.102811    2.655305    0.727911
     22          1           0       -2.809243    2.420566    1.532279
     23          1           0       -1.556536    3.560839    0.989184
     24          1           0       -2.651645    2.822174   -0.205468
 ---------------------------------------------------------------------

 The electronic state is 1-A.
 Alpha  occ. eigenvalues --  -89.04485 -89.04154 -19.28317 -19.26585 -10.35122
 Alpha  occ. eigenvalues --  -10.34285 -10.34159 -10.32866 -10.31897 -10.31833
 Alpha  occ. eigenvalues --  -10.31824 -10.31431 -10.29511 -10.28955  -8.08565
 Alpha  occ. eigenvalues --   -8.08233  -6.03398  -6.03071  -6.03018  -6.02692
 Alpha  occ. eigenvalues --   -6.02659  -6.02319  -1.18196  -1.16387  -0.99800
 Alpha  occ. eigenvalues --   -0.97811  -0.87325  -0.85131  -0.84050  -0.81735
 Alpha  occ. eigenvalues --   -0.78802  -0.77016  -0.69474  -0.66599  -0.65266
 Alpha  occ. eigenvalues --   -0.64338  -0.62713  -0.57455  -0.56894  -0.56081
 Alpha  occ. eigenvalues --   -0.55105  -0.54095  -0.53380  -0.52049  -0.50226
 Alpha  occ. eigenvalues --   -0.49197  -0.48655  -0.46753  -0.46303  -0.43947
 Alpha  occ. eigenvalues --   -0.42983  -0.42615  -0.42082  -0.41369  -0.37265
 Alpha  occ. eigenvalues --   -0.34774  -0.31851  -0.30885  -0.26945
 Alpha virt. eigenvalues --    0.02575   0.05612   0.06135   0.06465   0.06996
 Alpha virt. eigenvalues --    0.07657   0.07801   0.08486   0.08917   0.09588
 Alpha virt. eigenvalues --    0.09869   0.10418   0.10813   0.11291   0.11563

 Mulliken charges:
               1
     1  C    1.579225
     2  C   -0.113565
     3  C   -0.119077
     4  C   -0.159321
     5  S   -0.448027
     6  H    0.155165
     7  H    0.187089
     8  C   -0.185500
     9  C   -0.744710
    10  S   -0.366469
    11  C    0.077413
    12  C   -0.283790
    13  H    0.147912
    14  H    0.184866
    15  O   -0.124998
    16  O   -0.062946
    17  C   -0.364079
    18  H    0.140377
    19  H    0.162950
    20  H    0.161905
    21  C   -0.315914
    22  H    0.153230
    23  H    0.167879
    24  H    0.170386
 Sum of Mulliken charges =  -0.00000

 Dipole moment (field-independent basis, Debye):
    X=             -0.9778    Y=              2.4869    Z=              1.1017  Tot=              2.8905
 Quadrupole moment (field-independent basis, Debye-Ang):
   XX=            -78.2993   YY=            -85.9536   ZZ=           -102.2207
   XY=             -1.2469   XZ=              0.4408   YZ=              1.5573

 Normal termination of Gaussian 16 at Fri Feb  7 02:06:43 2020.
