 Gaussian 16, Revision A.03,
 Gaussian 16:  ES64L-G16RevA.03 25-Dec-2016

 --------------------------------------------------------
 # opt=modredundant wb97xd/6-311+g(d,p) geom=connectivity
 --------------------------------------------------------

 -------------------
 Title Card Required
 -------------------
 Symbolic Z-matrix:
 Charge =  0 Multiplicity = 1

 SCF Done:  E(RwB97XD) =  -1333.82289584     A.U. after   18 cycles
 SCF Done:  E(RwB97XD) =  -1333.82454887     A.U. after   13 cycles
 SCF Done:  E(RwB97XD) =  -1333.82471383     A.U. after   13 cycles
 SCF Done:  E(RwB97XD) =  -1333.82474913     A.U. after   13 cycles
 SCF Done:  E(RwB97XD) =  -1333.82478060     A.U. after   12 cycles
 SCF Done:  E(RwB97XD) =  -1333.82478378     A.U. after   11 cycles
 SCF Done:  E(RwB97XD) =  -1333.82478706     A.U. after   12 cycles
 SCF Done:  E(RwB97XD) =  -1333.82478819     A.U. after   11 cycles
 SCF Done:  E(RwB97XD) =  -1333.82478916     A.U. after   10 cycles
 SCF Done:  E(RwB97XD) =  -1333.82478957     A.U. after   11 cycles
 SCF Done:  E(RwB97XD) =  -1333.82478959     A.U. after    9 cycles
 Optimization completed.
    -- Stationary point found.

                         Standard orientation:
 ---------------------------------------------------------------------
 Center     Atomic      Atomic             Coordinates (Angstroms)
 Number     Number       Type             X           Y           Z
 ---------------------------------------------------------------------
      1          6           0       -0.718855   -0.514670   -0.099488
      2          6           0       -1.627252    0.398779    0.372793
      3          6           0       -2.964407    0.141967   -0.056945
      4          6           0       -3.042143   -0.963751   -0.849097
      5         16           0       -1.513370   -1.695127   -1.093788
      6          1           0       -3.824595    0.738860    0.210720
      7          1           0       -3.927250   -1.388019   -1.298207
      8          6           0        0.721333   -0.508376    0.111042
      9          6           0        1.622848    0.407909   -0.368867
     10         16           0        1.528498   -1.689534    1.094088
     11          6           0        2.964250    0.155505    0.050062
     12          6           0        3.052490   -0.951608    0.839162
     13          1           0        3.820007    0.756338   -0.222946
     14          1           0        3.942532   -1.372638    1.281507
     15          8           0       -1.223651    1.409398    1.173168
     16          8           0        1.209455    1.416943   -1.166254
     17          6           0        2.180627    2.354177   -1.575672
     18          1           0        2.962757    1.882967   -2.182223
     19          1           0        1.654904    3.090146   -2.181887
     20          1           0        2.638483    2.856163   -0.715673
     21          6           0       -2.201021    2.343957    1.573822
     22          1           0       -2.986534    1.870880    2.174524
     23          1           0       -1.682513    3.082153    2.183534
     24          1           0       -2.653504    2.843667    0.709665
 ---------------------------------------------------------------------

 The electronic state is 1-A.
 Alpha  occ. eigenvalues --  -89.04002 -89.04000 -19.27713 -19.27708 -10.34573
 Alpha  occ. eigenvalues --  -10.34571 -10.33674 -10.33670 -10.31419 -10.31418
 Alpha  occ. eigenvalues --  -10.30966 -10.30931 -10.29057 -10.29054  -8.08068
 Alpha  occ. eigenvalues --   -8.08066  -6.02893  -6.02891  -6.02518  -6.02517
 Alpha  occ. eigenvalues --   -6.02175  -6.02173  -1.17650  -1.17429  -0.99376
 Alpha  occ. eigenvalues --   -0.97625  -0.87052  -0.84532  -0.84380  -0.81716
 Alpha  occ. eigenvalues --   -0.78728  -0.76886  -0.69061  -0.65646  -0.65587
 Alpha  occ. eigenvalues --   -0.63940  -0.63240  -0.57491  -0.56292  -0.56164
 Alpha  occ. eigenvalues --   -0.55132  -0.54114  -0.52872  -0.52420  -0.49589
 Alpha  occ. eigenvalues --   -0.49336  -0.48184  -0.46502  -0.46421  -0.42919
 Alpha  occ. eigenvalues --   -0.42485  -0.42055  -0.41868  -0.41383  -0.40684
 Alpha  occ. eigenvalues --   -0.32704  -0.31884  -0.29480  -0.27598
 Alpha virt. eigenvalues --    0.03985   0.05337   0.05985   0.06353   0.07163
 Alpha virt. eigenvalues --    0.07414   0.07820   0.08741   0.08856   0.09142
 Alpha virt. eigenvalues --    0.09240   0.10548   0.10566   0.11812   0.11978

 Mulliken charges:
               1
     1  C    0.829932
     2  C   -0.846515
     3  C   -0.094517
     4  C   -0.266417
     5  S   -0.131493
     6  H    0.153417
     7  H    0.185356
     8  C    0.933699
     9  C   -0.813800
    10  S   -0.139540
    11  C   -0.102401
    12  C   -0.257614
    13  H    0.153501
    14  H    0.185372
    15  O   -0.076822
    16  O   -0.075446
    17  C   -0.306850
    18  H    0.154479
    19  H    0.171979
    20  H    0.162036
    21  C   -0.306729
    22  H    0.154425
    23  H    0.171935
    24  H    0.162011
 Sum of Mulliken charges =  -0.00000

 Dipole moment (field-independent basis, Debye):
    X=             -0.0061    Y=              2.5029    Z=             -0.0218  Tot=              2.5030
 Quadrupole moment (field-independent basis, Debye-Ang):
   XX=            -76.7300   YY=            -89.6589   ZZ=            -96.4549
   XY=             -0.0016   XZ=             -2.0171   YZ=             -0.0121

 Normal termination of Gaussian 16 at Thu Feb  6 22:44:36 2020.
