 Gaussian 16, Revision A.03,
 Gaussian 16:  ES64L-G16RevA.03 25-Dec-2016

 --------------------------------------------------------
 # opt=modredundant wb97xd/6-311+g(d,p) geom=connectivity
 --------------------------------------------------------

 -------------------
 Title Card Required
 -------------------
 Symbolic Z-matrix:
 Charge =  0 Multiplicity = 1

 SCF Done:  E(RwB97XD) =  -1333.82295285     A.U. after   17 cycles
 SCF Done:  E(RwB97XD) =  -1333.82447480     A.U. after   14 cycles
 SCF Done:  E(RwB97XD) =  -1333.82461633     A.U. after   13 cycles
 SCF Done:  E(RwB97XD) =  -1333.82464789     A.U. after   13 cycles
 SCF Done:  E(RwB97XD) =  -1333.82467104     A.U. after   13 cycles
 SCF Done:  E(RwB97XD) =  -1333.82467144     A.U. after   10 cycles
 Optimization completed.
    -- Stationary point found.

                         Standard orientation:
 ---------------------------------------------------------------------
 Center     Atomic      Atomic             Coordinates (Angstroms)
 Number     Number       Type             X           Y           Z
 ---------------------------------------------------------------------
      1          6           0        0.683675    0.254559   -0.323692
      2          6           0        1.780428   -0.297441    0.289927
      3          6           0        2.980490    0.448818    0.086191
      4          6           0        2.768394    1.553814   -0.682172
      5         16           0        1.134290    1.701715   -1.169664
      6          1           0        3.947381    0.186399    0.491058
      7          1           0        3.495593    2.293444   -0.981137
      8          6           0       -0.683883   -0.246871   -0.329139
      9          6           0       -1.783075    0.298315    0.286176
     10         16           0       -1.126728   -1.696921   -1.174192
     11          6           0       -2.979689   -0.452946    0.080652
     12          6           0       -2.761935   -1.556507   -0.688210
     13          1           0       -3.948118   -0.195050    0.484749
     14          1           0       -3.485750   -2.298615   -0.989241
     15          8           0        1.658919   -1.436755    1.008340
     16          8           0       -1.666748    1.436334    1.007463
     17          6           0       -2.837104    1.938939    1.614245
     18          1           0       -3.251487    1.225315    2.335557
     19          1           0       -2.540592    2.845842    2.138647
     20          1           0       -3.599835    2.187905    0.867506
     21          6           0        2.826903   -1.946132    1.614031
     22          1           0        3.244148   -1.236373    2.337506
     23          1           0        2.526308   -2.853234    2.135760
     24          1           0        3.588787   -2.196256    0.866816
 ---------------------------------------------------------------------

 The electronic state is 1-A.
 Alpha  occ. eigenvalues --  -89.03896 -89.03895 -19.27803 -19.27802 -10.34620
 Alpha  occ. eigenvalues --  -10.34618 -10.33700 -10.33699 -10.31378 -10.31377
 Alpha  occ. eigenvalues --  -10.31012 -10.30977 -10.29018 -10.29016  -8.07961
 Alpha  occ. eigenvalues --   -8.07960  -6.02788  -6.02787  -6.02411  -6.02410
 Alpha  occ. eigenvalues --   -6.02066  -6.02065  -1.17629  -1.17537  -0.99340
 Alpha  occ. eigenvalues --   -0.97603  -0.86986  -0.84875  -0.84072  -0.81695
 Alpha  occ. eigenvalues --   -0.78728  -0.76904  -0.68911  -0.66558  -0.64807
 Alpha  occ. eigenvalues --   -0.63970  -0.63137  -0.57495  -0.56317  -0.56196
 Alpha  occ. eigenvalues --   -0.55149  -0.54181  -0.52693  -0.52650  -0.49512
 Alpha  occ. eigenvalues --   -0.49428  -0.48247  -0.46619  -0.46158  -0.42873
 Alpha  occ. eigenvalues --   -0.42461  -0.42030  -0.41928  -0.41290  -0.40857
 Alpha  occ. eigenvalues --   -0.32731  -0.31609  -0.29598  -0.27608
 Alpha virt. eigenvalues --    0.03835   0.05760   0.06074   0.06349   0.07194
 Alpha virt. eigenvalues --    0.07414   0.07935   0.08821   0.08853   0.09016
 Alpha virt. eigenvalues --    0.09130   0.10672   0.10978   0.11676   0.11919

 Mulliken charges:
               1
     1  C    1.501515
     2  C   -1.259186
     3  C    0.060676
     4  C   -0.263521
     5  S   -0.245332
     6  H    0.153837
     7  H    0.185293
     8  C    1.203081
     9  C   -1.325618
    10  S   -0.248299
    11  C    0.060610
    12  C   -0.271734
    13  H    0.153627
    14  H    0.185266
    15  O   -0.120409
    16  O   -0.120935
    17  C   -0.314899
    18  H    0.159128
    19  H    0.174033
    20  H    0.157237
    21  C   -0.315087
    22  H    0.159215
    23  H    0.174102
    24  H    0.157400
 Sum of Mulliken charges =  -0.00000

 Dipole moment (field-independent basis, Debye):
    X=             -0.0015    Y=             -0.0152    Z=              1.5889  Tot=              1.5890
 Quadrupole moment (field-independent basis, Debye-Ang):
   XX=            -73.7000   YY=            -91.4556   ZZ=            -95.8691
   XY=             -2.6038   XZ=             -0.0086   YZ=             -0.0065

 Normal termination of Gaussian 16 at Thu Feb  6 19:14:20 2020.
