 Gaussian 16, Revision A.03,
 Gaussian 16:  ES64L-G16RevA.03 25-Dec-2016

 --------------------------------------------------------
 # opt=modredundant wb97xd/6-311+g(d,p) geom=connectivity
 --------------------------------------------------------

 -------------------
 Title Card Required
 -------------------
 Symbolic Z-matrix:
 Charge =  0 Multiplicity = 1

 SCF Done:  E(RwB97XD) =  -1333.82383215     A.U. after   17 cycles
 SCF Done:  E(RwB97XD) =  -1333.82516609     A.U. after   15 cycles
 SCF Done:  E(RwB97XD) =  -1333.82530593     A.U. after   15 cycles
 SCF Done:  E(RwB97XD) =  -1333.82531586     A.U. after   14 cycles
 SCF Done:  E(RwB97XD) =  -1333.82533106     A.U. after   14 cycles
 SCF Done:  E(RwB97XD) =  -1333.82533174     A.U. after   11 cycles
 SCF Done:  E(RwB97XD) =  -1333.82533212     A.U. after   11 cycles
 Optimization completed.
    -- Stationary point found.

                         Standard orientation:
 ---------------------------------------------------------------------
 Center     Atomic      Atomic             Coordinates (Angstroms)
 Number     Number       Type             X           Y           Z
 ---------------------------------------------------------------------
      1          6           0       -0.628836   -0.366912   -0.143832
      2          6           0       -1.874482    0.118467    0.180075
      3          6           0       -2.918531   -0.840407    0.030822
      4          6           0       -2.448161   -2.037521   -0.417773
      5         16           0       -0.753438   -2.020883   -0.661127
      6          1           0       -3.960329   -0.657240    0.251258
      7          1           0       -3.013120   -2.939560   -0.597152
      8          6           0        0.632961    0.353286   -0.167104
      9          6           0        1.879598   -0.119975    0.170461
     10         16           0        0.743205    2.014458   -0.662626
     11          6           0        2.916915    0.846573    0.025405
     12          6           0        2.437775    2.041873   -0.418963
     13          1           0        3.959877    0.670229    0.245942
     14          1           0        2.996673    2.947472   -0.599304
     15          8           0       -2.020287    1.401459    0.589235
     16          8           0        2.031097   -1.400280    0.585652
     17          6           0        3.335941   -1.825603    0.912261
     18          1           0        3.750107   -1.241119    1.741693
     19          1           0        3.247539   -2.867003    1.217224
     20          1           0        4.005894   -1.758206    0.047521
     21          6           0       -3.323792    1.835939    0.909049
     22          1           0       -3.744053    1.258318    1.740216
     23          1           0       -3.230432    2.878448    1.208702
     24          1           0       -3.991225    1.767707    0.042442
 ---------------------------------------------------------------------

 The electronic state is 1-A.
 Alpha  occ. eigenvalues --  -89.03847 -89.03830 -19.27941 -19.27933 -10.34533
 Alpha  occ. eigenvalues --  -10.34519 -10.33793 -10.33784 -10.31301 -10.31262
 Alpha  occ. eigenvalues --  -10.31186 -10.31181 -10.28955 -10.28954  -8.07899
 Alpha  occ. eigenvalues --   -8.07883  -6.02734  -6.02718  -6.02349  -6.02332
 Alpha  occ. eigenvalues --   -6.01996  -6.01979  -1.17724  -1.17646  -0.99349
 Alpha  occ. eigenvalues --   -0.97569  -0.87075  -0.85151  -0.83899  -0.81609
 Alpha  occ. eigenvalues --   -0.78826  -0.76914  -0.68860  -0.67172  -0.64354
 Alpha  occ. eigenvalues --   -0.64065  -0.62956  -0.57342  -0.56472  -0.56241
 Alpha  occ. eigenvalues --   -0.55491  -0.54224  -0.52796  -0.52520  -0.49558
 Alpha  occ. eigenvalues --   -0.49425  -0.48457  -0.46661  -0.45808  -0.43587
 Alpha  occ. eigenvalues --   -0.42713  -0.41813  -0.41500  -0.41026  -0.40778
 Alpha  occ. eigenvalues --   -0.34287  -0.31377  -0.30233  -0.26040
 Alpha virt. eigenvalues --    0.02971   0.06033   0.06314   0.06943   0.07111
 Alpha virt. eigenvalues --    0.07628   0.08154   0.08678   0.09182   0.09241
 Alpha virt. eigenvalues --    0.09463   0.10685   0.11364   0.11381   0.11967

 Mulliken charges:
               1
     1  C    1.369799
     2  C   -0.148464
     3  C   -0.324184
     4  C   -0.090415
     5  S   -0.296710
     6  H    0.154417
     7  H    0.184346
     8  C    0.366439
     9  C   -0.971643
    10  S   -0.316977
    11  C   -0.185036
    12  C   -0.216568
    13  H    0.153168
    14  H    0.183795
    15  O   -0.114919
    16  O   -0.112841
    17  C   -0.314726
    18  H    0.153393
    19  H    0.175229
    20  H    0.159534
    21  C   -0.298128
    22  H    0.154052
    23  H    0.175714
    24  H    0.160724
 Sum of Mulliken charges =  -0.00000

 Dipole moment (field-independent basis, Debye):
    X=             -0.0013    Y=              0.0350    Z=              0.8471  Tot=              0.8478
 Quadrupole moment (field-independent basis, Debye-Ang):
   XX=            -71.3438   YY=            -89.4785   ZZ=            -99.5941
   XY=             -2.5266   XZ=              0.0348   YZ=              0.0133

 Normal termination of Gaussian 16 at Thu Feb  6 19:51:57 2020.
