 Gaussian 16, Revision A.03,
 Gaussian 16:  ES64L-G16RevA.03 25-Dec-2016

 --------------------------------------------------------
 # opt=modredundant wb97xd/6-311+g(d,p) geom=connectivity
 --------------------------------------------------------

 -------------------
 Title Card Required
 -------------------
 Symbolic Z-matrix:
 Charge =  0 Multiplicity = 1

 SCF Done:  E(RwB97XD) =  -1333.82612264     A.U. after   15 cycles
 SCF Done:  E(RwB97XD) =  -1333.82694692     A.U. after   11 cycles
 SCF Done:  E(RwB97XD) =  -1333.82704373     A.U. after   11 cycles
 SCF Done:  E(RwB97XD) =  -1333.82705061     A.U. after   10 cycles
 SCF Done:  E(RwB97XD) =  -1333.82705104     A.U. after    9 cycles
 Optimization completed.
    -- Stationary point found.

                         Standard orientation:
 ---------------------------------------------------------------------
 Center     Atomic      Atomic             Coordinates (Angstroms)
 Number     Number       Type             X           Y           Z
 ---------------------------------------------------------------------
      1          6           0        0.596749    0.411179   -0.000046
      2          6           0        1.907251   -0.013531    0.000019
      3          6           0        2.859090    1.044111    0.000068
      4          6           0        2.255866    2.264808    0.000085
      5         16           0        0.545811    2.152527   -0.000191
      6          1           0        3.931030    0.908040    0.000148
      7          1           0        2.732082    3.233472    0.000154
      8          6           0       -0.596749   -0.411179   -0.000043
      9          6           0       -1.907251    0.013531   -0.000150
     10         16           0       -0.545811   -2.152527    0.000030
     11          6           0       -2.859090   -1.044111   -0.000045
     12          6           0       -2.255866   -2.264808    0.000183
     13          1           0       -3.931030   -0.908040   -0.000073
     14          1           0       -2.732082   -3.233472    0.000336
     15          8           0        2.184693   -1.340185    0.000039
     16          8           0       -2.184693    1.340185   -0.000324
     17          6           0       -3.542355    1.724165   -0.000099
     18          1           0       -4.058133    1.359188    0.895103
     19          1           0       -3.549561    2.812848   -0.000139
     20          1           0       -4.058452    1.359129   -0.895094
     21          6           0        3.542355   -1.724165    0.000472
     22          1           0        4.058030   -1.359066    0.895684
     23          1           0        3.549561   -2.812848    0.000581
     24          1           0        4.058555   -1.359251   -0.894513
 ---------------------------------------------------------------------

 The electronic state is 1-A.
 Alpha  occ. eigenvalues --  -89.03801 -89.03801 -19.28183 -19.28183 -10.34405
 Alpha  occ. eigenvalues --  -10.34405 -10.33940 -10.33940 -10.31563 -10.31527
 Alpha  occ. eigenvalues --  -10.30885 -10.30885 -10.28887 -10.28887  -8.07826
 Alpha  occ. eigenvalues --   -8.07825  -6.02668  -6.02668  -6.02272  -6.02272
 Alpha  occ. eigenvalues --   -6.01915  -6.01915  -1.17919  -1.17840  -0.99280
 Alpha  occ. eigenvalues --   -0.97485  -0.87156  -0.85351  -0.83830  -0.81504
 Alpha  occ. eigenvalues --   -0.78960  -0.76900  -0.68814  -0.67512  -0.64237
 Alpha  occ. eigenvalues --   -0.64224  -0.62705  -0.57133  -0.56689  -0.56369
 Alpha  occ. eigenvalues --   -0.55962  -0.54247  -0.52796  -0.52432  -0.49574
 Alpha  occ. eigenvalues --   -0.49404  -0.48716  -0.46646  -0.45508  -0.44481
 Alpha  occ. eigenvalues --   -0.43283  -0.41650  -0.40863  -0.40532  -0.40441
 Alpha  occ. eigenvalues --   -0.35300  -0.31102  -0.30891  -0.25195
 Alpha virt. eigenvalues --    0.02755   0.05909   0.06334   0.06849   0.07694
 Alpha virt. eigenvalues --    0.07840   0.08128   0.08532   0.09391   0.09431
 Alpha virt. eigenvalues --    0.09888   0.10615   0.11565   0.11605   0.11853

 Mulliken charges:
               1
     1  C    0.789327
     2  C   -0.145039
     3  C   -0.490585
     4  C   -0.290826
     5  S   -0.282513
     6  H    0.152876
     7  H    0.183006
     8  C    0.789327
     9  C   -0.145039
    10  S   -0.282513
    11  C   -0.490585
    12  C   -0.290826
    13  H    0.152876
    14  H    0.183006
    15  O   -0.105494
    16  O   -0.105494
    17  C   -0.298138
    18  H    0.154817
    19  H    0.177768
    20  H    0.154803
    21  C   -0.298138
    22  H    0.154819
    23  H    0.177768
    24  H    0.154801
 Sum of Mulliken charges =  -0.00000

 Dipole moment (field-independent basis, Debye):
    X=             -0.0000    Y=              0.0000    Z=              0.0008  Tot=              0.0008
 Quadrupole moment (field-independent basis, Debye-Ang):
   XX=            -70.0368   YY=            -88.9487   ZZ=           -101.3378
   XY=             -2.8831   XZ=              0.0017   YZ=             -0.0010

 Normal termination of Gaussian 16 at Thu Feb  6 20:19:50 2020.
