 Gaussian 16, Revision A.03,
 Gaussian 16:  ES64L-G16RevA.03 25-Dec-2016

 --------------------------------------------------------
 # opt=modredundant wb97xd/6-311+g(d,p) geom=connectivity
 --------------------------------------------------------

 -------------------
 Title Card Required
 -------------------
 Symbolic Z-matrix:
 Charge =  0 Multiplicity = 1

 SCF Done:  E(RwB97XD) =  -1333.82383193     A.U. after   17 cycles
 SCF Done:  E(RwB97XD) =  -1333.82516583     A.U. after   15 cycles
 SCF Done:  E(RwB97XD) =  -1333.82530546     A.U. after   15 cycles
 SCF Done:  E(RwB97XD) =  -1333.82531558     A.U. after   14 cycles
 SCF Done:  E(RwB97XD) =  -1333.82533105     A.U. after   14 cycles
 SCF Done:  E(RwB97XD) =  -1333.82533173     A.U. after   11 cycles
 SCF Done:  E(RwB97XD) =  -1333.82533211     A.U. after   11 cycles
 Optimization completed.
    -- Stationary point found.

                         Standard orientation:
 ---------------------------------------------------------------------
 Center     Atomic      Atomic             Coordinates (Angstroms)
 Number     Number       Type             X           Y           Z
 ---------------------------------------------------------------------
      1          6           0       -0.628820    0.366942   -0.143760
      2          6           0       -1.874485   -0.118392    0.180142
      3          6           0       -2.918499    0.840518    0.030879
      4          6           0       -2.448085    2.037613   -0.417720
      5         16           0       -0.753358    2.020918   -0.661050
      6          1           0       -3.960304    0.657389    0.251311
      7          1           0       -3.013011    2.939671   -0.597105
      8          6           0        0.632946   -0.353309   -0.167042
      9          6           0        1.879604    0.119902    0.170516
     10         16           0        0.743118   -2.014489   -0.662550
     11          6           0        2.916882   -0.846686    0.025453
     12          6           0        2.437690   -2.041970   -0.418906
     13          1           0        3.959853   -0.670383    0.245982
     14          1           0        2.996552   -2.947591   -0.599249
     15          8           0       -2.020331   -1.401367    0.589340
     16          8           0        2.031150    1.400192    0.585737
     17          6           0        3.336075    1.825593    0.911918
     18          1           0        4.005782    1.758099    0.046994
     19          1           0        3.247732    2.867029    1.216773
     20          1           0        3.750497    1.241231    1.741308
     21          6           0       -3.323918   -1.835939    0.908693
     22          1           0       -3.991087   -1.767604    0.041891
     23          1           0       -3.230613   -2.878486    1.208230
     24          1           0       -3.744456   -1.258454    1.739814
 ---------------------------------------------------------------------

 The electronic state is 1-A.
 Alpha  occ. eigenvalues --  -89.03847 -89.03830 -19.27941 -19.27933 -10.34533
 Alpha  occ. eigenvalues --  -10.34519 -10.33793 -10.33784 -10.31301 -10.31262
 Alpha  occ. eigenvalues --  -10.31186 -10.31181 -10.28955 -10.28954  -8.07899
 Alpha  occ. eigenvalues --   -8.07883  -6.02734  -6.02718  -6.02349  -6.02332
 Alpha  occ. eigenvalues --   -6.01996  -6.01979  -1.17724  -1.17646  -0.99349
 Alpha  occ. eigenvalues --   -0.97569  -0.87075  -0.85151  -0.83899  -0.81609
 Alpha  occ. eigenvalues --   -0.78826  -0.76914  -0.68860  -0.67172  -0.64354
 Alpha  occ. eigenvalues --   -0.64065  -0.62956  -0.57342  -0.56472  -0.56241
 Alpha  occ. eigenvalues --   -0.55491  -0.54224  -0.52796  -0.52520  -0.49558
 Alpha  occ. eigenvalues --   -0.49425  -0.48457  -0.46661  -0.45809  -0.43587
 Alpha  occ. eigenvalues --   -0.42712  -0.41814  -0.41500  -0.41027  -0.40778
 Alpha  occ. eigenvalues --   -0.34287  -0.31377  -0.30233  -0.26040
 Alpha virt. eigenvalues --    0.02971   0.06033   0.06314   0.06943   0.07110
 Alpha virt. eigenvalues --    0.07628   0.08154   0.08678   0.09182   0.09241
 Alpha virt. eigenvalues --    0.09463   0.10685   0.11364   0.11381   0.11967

 Mulliken charges:
               1
     1  C    1.370215
     2  C   -0.148489
     3  C   -0.324145
     4  C   -0.090406
     5  S   -0.296730
     6  H    0.154417
     7  H    0.184346
     8  C    0.366365
     9  C   -0.971873
    10  S   -0.317003
    11  C   -0.184996
    12  C   -0.216618
    13  H    0.153168
    14  H    0.183795
    15  O   -0.114940
    16  O   -0.112857
    17  C   -0.314754
    18  H    0.159540
    19  H    0.175231
    20  H    0.153392
    21  C   -0.298158
    22  H    0.160731
    23  H    0.175716
    24  H    0.154053
 Sum of Mulliken charges =  -0.00000

 Dipole moment (field-independent basis, Debye):
    X=             -0.0013    Y=             -0.0350    Z=              0.8460  Tot=              0.8468
 Quadrupole moment (field-independent basis, Debye-Ang):
   XX=            -71.3426   YY=            -89.4774   ZZ=            -99.5961
   XY=              2.5271   XZ=              0.0349   YZ=             -0.0132

 Normal termination of Gaussian 16 at Thu Feb  6 21:21:40 2020.
