 Gaussian 16, Revision A.03,
 Gaussian 16:  ES64L-G16RevA.03 25-Dec-2016

 --------------------------------------------------------
 # opt=modredundant wb97xd/6-311+g(d,p) geom=connectivity
 --------------------------------------------------------

 -------------------
 Title Card Required
 -------------------
 Symbolic Z-matrix:
 Charge =  0 Multiplicity = 1

 SCF Done:  E(RwB97XD) =  -1333.82444699     A.U. after   16 cycles
 SCF Done:  E(RwB97XD) =  -1333.82568100     A.U. after   14 cycles
 SCF Done:  E(RwB97XD) =  -1333.82586119     A.U. after   15 cycles
 SCF Done:  E(RwB97XD) =  -1333.82587296     A.U. after   14 cycles
 SCF Done:  E(RwB97XD) =  -1333.82587697     A.U. after   13 cycles
 SCF Done:  E(RwB97XD) =  -1333.82587833     A.U. after   12 cycles
 SCF Done:  E(RwB97XD) =  -1333.82587855     A.U. after   11 cycles
 SCF Done:  E(RwB97XD) =  -1333.82587858     A.U. after   10 cycles
 SCF Done:  E(RwB97XD) =  -1333.82587862     A.U. after   10 cycles
 SCF Done:  E(RwB97XD) =  -1333.82587868     A.U. after   10 cycles
 SCF Done:  E(RwB97XD) =  -1333.82587872     A.U. after   11 cycles
 SCF Done:  E(RwB97XD) =  -1333.82587875     A.U. after   11 cycles
 Optimization completed.
    -- Stationary point found.

                         Standard orientation:
 ---------------------------------------------------------------------
 Center     Atomic      Atomic             Coordinates (Angstroms)
 Number     Number       Type             X           Y           Z
 ---------------------------------------------------------------------
      1          6           0       -0.612683   -0.391565   -0.084142
      2          6           0       -1.891449    0.066987    0.137950
      3          6           0       -2.892398   -0.939142    0.016674
      4          6           0       -2.358188   -2.147731   -0.313170
      5         16           0       -0.654162   -2.086278   -0.472793
      6          1           0       -3.949581   -0.778584    0.171856
      7          1           0       -2.880463   -3.082875   -0.446418
      8          6           0        0.617008    0.379639   -0.114720
      9          6           0        1.895762   -0.067690    0.129275
     10         16           0        0.645983    2.080623   -0.473817
     11          6           0        2.890798    0.944819    0.014829
     12          6           0        2.349307    2.151535   -0.310381
     13          1           0        3.948607    0.790347    0.171959
     14          1           0        2.866404    3.089355   -0.444872
     15          8           0       -2.103179    1.373613    0.427886
     16          8           0        2.111235   -1.370915    0.431221
     17          6           0        3.445489   -1.776723    0.644493
     18          1           0        3.891196   -1.248940    1.495214
     19          1           0        3.406512   -2.842231    0.864672
     20          1           0        4.058922   -1.614161   -0.248943
     21          6           0       -3.435423    1.784038    0.644948
     22          1           0       -3.878771    1.261255    1.499953
     23          1           0       -3.392533    2.850438    0.860019
     24          1           0       -4.053217    1.619274   -0.245065
 ---------------------------------------------------------------------

 The electronic state is 1-A.
 Alpha  occ. eigenvalues --  -89.03829 -89.03813 -19.28038 -19.28024 -10.34490
 Alpha  occ. eigenvalues --  -10.34471 -10.33852 -10.33839 -10.31412 -10.31373
 Alpha  occ. eigenvalues --  -10.31078 -10.31076 -10.28931 -10.28927  -8.07871
 Alpha  occ. eigenvalues --   -8.07856  -6.02709  -6.02694  -6.02319  -6.02305
 Alpha  occ. eigenvalues --   -6.01966  -6.01950  -1.17795  -1.17716  -0.99326
 Alpha  occ. eigenvalues --   -0.97541  -0.87110  -0.85235  -0.83862  -0.81568
 Alpha  occ. eigenvalues --   -0.78877  -0.76912  -0.68840  -0.67327  -0.64278
 Alpha  occ. eigenvalues --   -0.64128  -0.62858  -0.57268  -0.56558  -0.56283
 Alpha  occ. eigenvalues --   -0.55672  -0.54238  -0.52803  -0.52488  -0.49570
 Alpha  occ. eigenvalues --   -0.49419  -0.48555  -0.46654  -0.45687  -0.43937
 Alpha  occ. eigenvalues --   -0.42942  -0.41737  -0.41148  -0.40919  -0.40699
 Alpha  occ. eigenvalues --   -0.34750  -0.31278  -0.30455  -0.25653
 Alpha virt. eigenvalues --    0.02831   0.05993   0.06300   0.06899   0.07390
 Alpha virt. eigenvalues --    0.07688   0.08176   0.08625   0.09259   0.09325
 Alpha virt. eigenvalues --    0.09670   0.10634   0.11341   0.11484   0.11893

 Mulliken charges:
               1
     1  C    1.046040
     2  C    0.104276
     3  C   -0.352461
     4  C   -0.126102
     5  S   -0.306084
     6  H    0.153957
     7  H    0.183713
     8  C    0.303616
     9  C   -0.684383
    10  S   -0.318498
    11  C   -0.243863
    12  C   -0.255377
    13  H    0.153325
    14  H    0.183548
    15  O   -0.111735
    16  O   -0.108023
    17  C   -0.307607
    18  H    0.152456
    19  H    0.176363
    20  H    0.160290
    21  C   -0.294272
    22  H    0.152981
    23  H    0.176525
    24  H    0.161317
 Sum of Mulliken charges =  -0.00000

 Dipole moment (field-independent basis, Debye):
    X=             -0.0050    Y=              0.0291    Z=              0.5784  Tot=              0.5792
 Quadrupole moment (field-independent basis, Debye-Ang):
   XX=            -70.7058   YY=            -89.1676   ZZ=           -100.4610
   XY=             -2.6196   XZ=              0.0131   YZ=              0.0510

 Normal termination of Gaussian 16 at Thu Feb  6 20:22:57 2020.
