 Gaussian 16, Revision A.03,
 Gaussian 16:  ES64L-G16RevA.03 25-Dec-2016

 --------------------------------------------------------
 # opt=modredundant wb97xd/6-311+g(d,p) geom=connectivity
 --------------------------------------------------------

 -------------------
 Title Card Required
 -------------------
 Symbolic Z-matrix:
 Charge =  0 Multiplicity = 1

 SCF Done:  E(RwB97XD) =  -1333.82280537     A.U. after   17 cycles
 SCF Done:  E(RwB97XD) =  -1333.82443450     A.U. after   15 cycles
 SCF Done:  E(RwB97XD) =  -1333.82460803     A.U. after   13 cycles
 SCF Done:  E(RwB97XD) =  -1333.82463890     A.U. after   13 cycles
 SCF Done:  E(RwB97XD) =  -1333.82462944     A.U. after   12 cycles
 SCF Done:  E(RwB97XD) =  -1333.82463176     A.U. after   11 cycles
 SCF Done:  E(RwB97XD) =  -1333.82463105     A.U. after   11 cycles
 SCF Done:  E(RwB97XD) =  -1333.82463173     A.U. after   11 cycles
 Optimization completed.
    -- Stationary point found.

                         Standard orientation:
 ---------------------------------------------------------------------
 Center     Atomic      Atomic             Coordinates (Angstroms)
 Number     Number       Type             X           Y           Z
 ---------------------------------------------------------------------
      1          6           0        0.708478   -0.428655   -0.187249
      2          6           0        1.694773    0.330804    0.388822
      3          6           0        2.979956    0.134082   -0.201815
      4          6           0        2.939283   -0.771111   -1.219480
      5         16           0        1.363993   -1.390394   -1.474916
      6          1           0        3.885998    0.634944    0.107857
      7          1           0        3.762806   -1.105095   -1.832309
      8          6           0       -0.708858   -0.441378    0.151558
      9          6           0       -1.692927    0.369109   -0.354585
     10         16           0       -1.369586   -1.520241    1.339876
     11          6           0       -2.980013    0.119518    0.211418
     12          6           0       -2.943427   -0.877961    1.138970
     13          1           0       -3.884489    0.648639   -0.052535
     14          1           0       -3.769126   -1.266952    1.715334
     15          8           0        1.402022    1.164229    1.411581
     16          8           0       -1.396583    1.293472   -1.294821
     17          6           0       -2.456539    2.094688   -1.769160
     18          1           0       -2.901421    2.687749   -0.961931
     19          1           0       -2.021625    2.765673   -2.508122
     20          1           0       -3.234023    1.488193   -2.247815
     21          6           0        2.463834    1.918226    1.954292
     22          1           0        2.905871    2.583584    1.203849
     23          1           0        2.031693    2.517816    2.753778
     24          1           0        3.242929    1.270077    2.371832
 ---------------------------------------------------------------------

 The electronic state is 1-A.
 Alpha  occ. eigenvalues --  -89.03940 -89.03940 -19.27766 -19.27764 -10.34611
 Alpha  occ. eigenvalues --  -10.34611 -10.33681 -10.33679 -10.31421 -10.31419
 Alpha  occ. eigenvalues --  -10.30914 -10.30879 -10.29034 -10.29034  -8.08005
 Alpha  occ. eigenvalues --   -8.08005  -6.02830  -6.02829  -6.02455  -6.02455
 Alpha  occ. eigenvalues --   -6.02114  -6.02114  -1.17623  -1.17495  -0.99333
 Alpha  occ. eigenvalues --   -0.97611  -0.86985  -0.84694  -0.84210  -0.81716
 Alpha  occ. eigenvalues --   -0.78706  -0.76888  -0.68963  -0.66091  -0.65186
 Alpha  occ. eigenvalues --   -0.63948  -0.63188  -0.57520  -0.56280  -0.56185
 Alpha  occ. eigenvalues --   -0.55084  -0.54149  -0.52755  -0.52567  -0.49471
 Alpha  occ. eigenvalues --   -0.49446  -0.48184  -0.46556  -0.46315  -0.42677
 Alpha  occ. eigenvalues --   -0.42653  -0.42038  -0.41820  -0.41373  -0.40861
 Alpha  occ. eigenvalues --   -0.32116  -0.31959  -0.28722  -0.28681
 Alpha virt. eigenvalues --    0.04594   0.04831   0.06040   0.06343   0.07281
 Alpha virt. eigenvalues --    0.07283   0.07823   0.08797   0.08832   0.08943
 Alpha virt. eigenvalues --    0.09178   0.10604   0.10652   0.11840   0.11915

 Mulliken charges:
               1
     1  C    1.059302
     2  C   -1.273984
     3  C    0.149318
     4  C   -0.356795
     5  S   -0.080393
     6  H    0.153976
     7  H    0.185152
     8  C    1.158528
     9  C   -1.241167
    10  S   -0.082634
    11  C    0.143828
    12  C   -0.350691
    13  H    0.154057
    14  H    0.185152
    15  O   -0.095880
    16  O   -0.095569
    17  C   -0.296820
    18  H    0.158494
    19  H    0.173605
    20  H    0.158511
    21  C   -0.296439
    22  H    0.158533
    23  H    0.173580
    24  H    0.158335
 Sum of Mulliken charges =  -0.00000

 Dipole moment (field-independent basis, Debye):
    X=              0.0017    Y=              2.0898    Z=              0.0875  Tot=              2.0917
 Quadrupole moment (field-independent basis, Debye-Ang):
   XX=            -75.4470   YY=            -92.8391   ZZ=            -93.5776
   XY=             -0.1146   XZ=              2.5446   YZ=              0.0279

 Normal termination of Gaussian 16 at Thu Feb  6 18:38:07 2020.
